<event>
 7    1  0.4555057E-015  0.9000770E+02  0.7816164E-02  0.1186339E+00
        -11   -1    0    0    0    0  0.00000000000E+00  0.00000000000E+00  0.45593999997E+02  0.45594000000E+02  0.51100000000E-03 0. -1.
         11   -1    0    0    0    0 -0.00000000000E+00 -0.00000000000E+00 -0.45593999997E+02  0.45594000000E+02  0.51100000000E-03 0.  1.
    9900012    2    1    2    0    0  0.10812101798E+01  0.98789060761E-01  0.46295631159E+00  0.90007702039E+02  0.89999962905E+02 0.  0.
        -12    1    1    2    0    0 -0.10812101798E+01 -0.98789060761E-01 -0.46295631159E+00  0.11802979615E+01  0.00000000000E+00 0.  1.
         11    1    3    3    0    0 -0.34960978341E+02  0.52585586257E+01  0.73555867192E+01  0.36111315424E+02  0.51100000000E-03 0. -1.
        -11    1    3    3    0    0 -0.10147678845E+01 -0.11989863159E+02 -0.10596727611E+02  0.16033627436E+02  0.51100000000E-03 0.  1.
        -12    1    3    3    0    0  0.37056956406E+02  0.68300935938E+01  0.37040972036E+01  0.37862759179E+02  0.00000000000E+00 0.  1.
</event>
<event>
 7    1  0.4555057E-015  0.9000772E+02  0.7816164E-02  0.1186339E+00
        -11   -1    0    0    0    0  0.00000000000E+00  0.00000000000E+00  0.45593999997E+02  0.45594000000E+02  0.51100000000E-03 0.  1.
         11   -1    0    0    0    0 -0.00000000000E+00 -0.00000000000E+00 -0.45593999997E+02  0.45594000000E+02  0.51100000000E-03 0. -1.
    9900012    2    1    2    0    0  0.84917957151E+00  0.35186010359E+00 -0.74037429395E+00  0.90007718012E+02  0.89999979089E+02 0.  0.
        -12    1    1    2    0    0 -0.84917957151E+00 -0.35186010359E+00  0.74037429395E+00  0.11802819885E+01  0.00000000000E+00 0.  1.
         11    1    3    3    0    0  0.53511955785E+01  0.46251236287E+00 -0.75695845355E+01  0.92815851075E+01  0.51100000000E-03 0. -1.
        -11    1    3    3    0    0 -0.33967440784E+02  0.63856993376E+01 -0.20357050624E+02  0.40112014408E+02  0.51100000000E-03 0.  1.
         12    1    3    3    0    0  0.29465424777E+02 -0.64963515969E+01  0.27186260866E+02  0.40614118496E+02  0.00000000000E+00 0. -1.
</event>
<event>
 7    1  0.4555057E-015  0.9000765E+02  0.7816164E-02  0.1186339E+00
        -11   -1    0    0    0    0  0.00000000000E+00  0.00000000000E+00  0.45593999997E+02  0.45594000000E+02  0.51100000000E-03 0.  1.
         11   -1    0    0    0    0 -0.00000000000E+00 -0.00000000000E+00 -0.45593999997E+02  0.45594000000E+02  0.51100000000E-03 0. -1.
    9900012    2    1    2    0    0  0.84185890226E+00 -0.82020382995E+00  0.10842445343E+00  0.90007654035E+02  0.89999914269E+02 0.  0.
        -12    1    1    2    0    0 -0.84185890226E+00  0.82020382995E+00 -0.10842445343E+00  0.11803459646E+01  0.00000000000E+00 0.  1.
         11    1    3    3    0    0 -0.16631920339E+02  0.11159621501E+02 -0.11651067480E+02  0.23171217057E+02  0.51100000000E-03 0. -1.
        -11    1    3    3    0    0 -0.33979587954E+01  0.28517349043E+01 -0.23134524126E+02  0.23555991228E+02  0.51100000000E-03 0.  1.
        -12    1    3    3    0    0  0.20871738036E+02 -0.14831560235E+02  0.34894016059E+02  0.43280445751E+02  0.00000000000E+00 0.  1.
</event>
<event>
 7    1  0.4555057E-015  0.9000825E+02  0.7816164E-02  0.1186338E+00
        -11   -1    0    0    0    0  0.00000000000E+00  0.00000000000E+00  0.45593999997E+02  0.45594000000E+02  0.51100000000E-03 0.  1.
         11   -1    0    0    0    0 -0.00000000000E+00 -0.00000000000E+00 -0.45593999997E+02  0.45594000000E+02  0.51100000000E-03 0. -1.
    9900012    2    1    2    0    0  0.74373390431E+00  0.17131909062E+00 -0.89962841785E+00  0.90008245093E+02  0.90000513126E+02 0.  0.
        -12    1    1    2    0    0 -0.74373390431E+00 -0.17131909062E+00  0.89962841785E+00  0.11797549074E+01  0.00000000000E+00 0.  1.
         11    1    3    3    0    0  0.26747878930E+02 -0.17090669900E+02 -0.20839121112E+02  0.37971160028E+02  0.51100000000E-03 0. -1.
        -11    1    3    3    0    0 -0.30772629215E+01 -0.21342867988E+01 -0.93597292549E+01  0.10081133826E+02  0.51100000000E-03 0.  1.
        -12    1    3    3    0    0 -0.22926882105E+02  0.19396275789E+02  0.29299221949E+02  0.41955951239E+02  0.00000000000E+00 0.  1.
</event>
<event>
 7    1  0.4555057E-015  0.9000759E+02  0.7816164E-02  0.1186339E+00
        -11   -1    0    0    0    0  0.00000000000E+00  0.00000000000E+00  0.45593999997E+02  0.45594000000E+02  0.51100000000E-03 0. -1.
         11   -1    0    0    0    0 -0.00000000000E+00 -0.00000000000E+00 -0.45593999997E+02  0.45594000000E+02  0.51100000000E-03 0.  1.
    9900012    2    1    2    0    0 -0.45338505785E+00 -0.10685007202E+01  0.21476610987E+00  0.90007586394E+02  0.89999845734E+02 0.  0.
        -12    1    1    2    0    0  0.45338505785E+00  0.10685007202E+01 -0.21476610987E+00  0.11804136062E+01  0.00000000000E+00 0.  1.
         11    1    3    3    0    0  0.38294077253E+01 -0.12671841247E+01 -0.85868607735E+01  0.94870594674E+01  0.51100000000E-03 0. -1.
        -11    1    3    3    0    0  0.16471487747E+02 -0.32961193312E+01 -0.31135070597E+02  0.35377491892E+02  0.51100000000E-03 0.  1.
         12    1    3    3    0    0 -0.20754280530E+02  0.34948027357E+01  0.39936697480E+02  0.45143035034E+02  0.00000000000E+00 0. -1.
</event>
<event>
 7    1  0.4555057E-015  0.9000851E+02  0.7816164E-02  0.1186338E+00
        -11   -1    0    0    0    0  0.00000000000E+00  0.00000000000E+00  0.45593999997E+02  0.45594000000E+02  0.51100000000E-03 0.  1.
         11   -1    0    0    0    0 -0.00000000000E+00 -0.00000000000E+00 -0.45593999997E+02  0.45594000000E+02  0.51100000000E-03 0. -1.
    9900012    2    1    2    0    0  0.10355646087E+01 -0.17433561077E+00 -0.53704119642E+00  0.90008508495E+02  0.90000780004E+02 0.  0.
        -12    1    1    2    0    0 -0.10355646087E+01  0.17433561077E+00  0.53704119642E+00  0.11794915051E+01  0.00000000000E+00 0.  1.
         11    1    3    3    0    0  0.31593983965E+02  0.15471346936E+02  0.13856485888E+02  0.37809318959E+02  0.51100000000E-03 0. -1.
        -11    1    3    3    0    0  0.13656600850E+01  0.14878596703E+01  0.88998706875E+01  0.91261411550E+01  0.51100000000E-03 0.  1.
        -12    1    3    3    0    0 -0.31924079441E+02 -0.17133542217E+02 -0.23293397772E+02  0.43073048380E+02  0.00000000000E+00 0.  1.
</event>
<event>
 7    1  0.4555057E-015  0.9000779E+02  0.7816164E-02  0.1186339E+00
        -11   -1    0    0    0    0  0.00000000000E+00  0.00000000000E+00  0.45593999997E+02  0.45594000000E+02  0.51100000000E-03 0. -1.
         11   -1    0    0    0    0 -0.00000000000E+00 -0.00000000000E+00 -0.45593999997E+02  0.45594000000E+02  0.51100000000E-03 0.  1.
    9900012    2    1    2    0    0 -0.67072468489E+00 -0.43186336218E+00  0.86977477846E+00  0.90007794199E+02  0.90000056283E+02 0.  0.
        -12    1    1    2    0    0  0.67072468489E+00  0.43186336218E+00 -0.86977477846E+00  0.11802058006E+01  0.00000000000E+00 0.  1.
         11    1    3    3    0    0 -0.17735980437E+02  0.27300038990E+02  0.22025520623E+02  0.39306242378E+02  0.51100000000E-03 0. -1.
        -11    1    3    3    0    0 -0.41084180337E+01 -0.82220066996E+01  0.61191925720E+01  0.11041965898E+02  0.51100000000E-03 0.  1.
        -12    1    3    3    0    0  0.21173673786E+02 -0.19509895653E+02 -0.27274938417E+02  0.39659585923E+02  0.00000000000E+00 0.  1.
</event>
<event>
 7    1  0.4555057E-015  0.9000772E+02  0.7816164E-02  0.1186339E+00
        -11   -1    0    0    0    0  0.00000000000E+00  0.00000000000E+00  0.45593999997E+02  0.45594000000E+02  0.51100000000E-03 0.  1.
         11   -1    0    0    0    0 -0.00000000000E+00 -0.00000000000E+00 -0.45593999997E+02  0.45594000000E+02  0.51100000000E-03 0. -1.
    9900012    2    1    2    0    0 -0.87373649915E+00  0.73631780406E+00 -0.29577360214E+00  0.90007719778E+02  0.89999980879E+02 0.  0.
        -12    1    1    2    0    0  0.87373649915E+00 -0.73631780406E+00  0.29577360214E+00  0.11802802219E+01  0.00000000000E+00 0.  1.
         11    1    3    3    0    0  0.16347547809E+01 -0.98532796620E+01 -0.21662434345E+01  0.10220183666E+02  0.51100000000E-03 0. -1.
        -11    1    3    3    0    0  0.85044325701E+01 -0.32884481327E+02 -0.52783102604E+01  0.34374046095E+02  0.51100000000E-03 0.  1.
         12    1    3    3    0    0 -0.11012923850E+02  0.43474078793E+02  0.71487800927E+01  0.45413490016E+02  0.00000000000E+00 0. -1.
</event>
<event>
 7    1  0.4555057E-015  0.9000789E+02  0.7816164E-02  0.1186339E+00
        -11   -1    0    0    0    0  0.00000000000E+00  0.00000000000E+00  0.45593999997E+02  0.45594000000E+02  0.51100000000E-03 0.  1.
         11   -1    0    0    0    0 -0.00000000000E+00 -0.00000000000E+00 -0.45593999997E+02  0.45594000000E+02  0.51100000000E-03 0. -1.
    9900012    2    1    2    0    0 -0.76593146124E+00  0.88960465458E+00 -0.12089884971E+00  0.90007888151E+02  0.90000151474E+02 0.  0.
        -12    1    1    2    0    0  0.76593146124E+00 -0.88960465458E+00  0.12089884971E+00  0.11801118492E+01  0.00000000000E+00 0.  1.
         11    1    3    3    0    0 -0.20806942155E+01  0.15904738365E+01 -0.47531047678E+01  0.54268684006E+01  0.51100000000E-03 0. -1.
        -11    1    3    3    0    0 -0.22877830721E+02 -0.34809457427E+02  0.87434894947E+01  0.42562214154E+02  0.51100000000E-03 0.  1.
         12    1    3    3    0    0  0.24192593475E+02  0.34108588245E+02 -0.41112835767E+01  0.42018805597E+02  0.00000000000E+00 0. -1.
</event>
<event>
 7    1  0.4555057E-015  0.9000756E+02  0.7816164E-02  0.1186339E+00
        -11   -1    0    0    0    0  0.00000000000E+00  0.00000000000E+00  0.45593999997E+02  0.45594000000E+02  0.51100000000E-03 0.  1.
         11   -1    0    0    0    0 -0.00000000000E+00 -0.00000000000E+00 -0.45593999997E+02  0.45594000000E+02  0.51100000000E-03 0. -1.
    9900012    2    1    2    0    0  0.58505096400E+00 -0.74086744878E+00  0.70870464744E+00  0.90007563011E+02  0.89999822043E+02 0.  0.
        -12    1    1    2    0    0 -0.58505096400E+00  0.74086744878E+00 -0.70870464744E+00  0.11804369888E+01  0.00000000000E+00 0.  1.
         11    1    3    3    0    0  0.32922666646E+02  0.23199797617E+01 -0.17124205003E+02  0.37182289903E+02  0.51100000000E-03 0. -1.
        -11    1    3    3    0    0  0.60936214187E+01 -0.84916034243E+01  0.93554771039E+00  0.10493559953E+02  0.51100000000E-03 0.  1.
        -12    1    3    3    0    0 -0.38431237101E+02  0.54307562138E+01  0.16897361940E+02  0.42331713155E+02  0.00000000000E+00 0.  1.
</event>
<event>
 7    1  0.4555057E-015  0.9000771E+02  0.7816164E-02  0.1186339E+00
        -11   -1    0    0    0    0  0.00000000000E+00  0.00000000000E+00  0.45593999997E+02  0.45594000000E+02  0.51100000000E-03 0. -1.
         11   -1    0    0    0    0 -0.00000000000E+00 -0.00000000000E+00 -0.45593999997E+02  0.45594000000E+02  0.51100000000E-03 0.  1.
    9900012    2    1    2    0    0  0.78044022924E+00  0.65003889370E+00  0.60119963127E+00  0.90007712530E+02  0.89999973536E+02 0.  0.
        -12    1    1    2    0    0 -0.78044022924E+00 -0.65003889370E+00 -0.60119963127E+00  0.11802874698E+01  0.00000000000E+00 0.  1.
         11    1    3    3    0    0  0.35357585126E+02  0.11145071416E+02  0.25551112809E+01  0.37160463355E+02  0.51100000000E-03 0. -1.
        -11    1    3    3    0    0  0.76429830381E+01 -0.19192156260E+01  0.48173330424E+01  0.92360855476E+01  0.51100000000E-03 0.  1.
        -12    1    3    3    0    0 -0.42220127935E+02 -0.85758168967E+01 -0.67712446920E+01  0.43611163628E+02  0.00000000000E+00 0.  1.
</event>
<event>
 7    1  0.4555057E-015  0.9000774E+02  0.7816164E-02  0.1186339E+00
        -11   -1    0    0    0    0  0.00000000000E+00  0.00000000000E+00  0.45593999997E+02  0.45594000000E+02  0.51100000000E-03 0.  1.
         11   -1    0    0    0    0 -0.00000000000E+00 -0.00000000000E+00 -0.45593999997E+02  0.45594000000E+02  0.51100000000E-03 0. -1.
    9900012    2    1    2    0    0 -0.76566329880E+00 -0.44796938888E+00 -0.77852403846E+00  0.90007738784E+02  0.90000000136E+02 0.  0.
        -12    1    1    2    0    0  0.76566329880E+00  0.44796938888E+00  0.77852403846E+00  0.11802612164E+01  0.00000000000E+00 0.  1.
         11    1    3    3    0    0 -0.45373044902E+01 -0.22271593951E+01  0.66705101875E+01  0.83691742383E+01  0.51100000000E-03 0. -1.
        -11    1    3    3    0    0 -0.28743354969E+02 -0.65833351740E+01  0.22150519830E+02  0.36880432290E+02  0.51100000000E-03 0.  1.
         12    1    3    3    0    0  0.32514996161E+02  0.83625251802E+01 -0.29599554056E+02  0.44758132256E+02  0.00000000000E+00 0. -1.
</event>
<event>
 7    1  0.4555057E-015  0.9000753E+02  0.7816164E-02  0.1186339E+00
        -11   -1    0    0    0    0  0.00000000000E+00  0.00000000000E+00  0.45593999997E+02  0.45594000000E+02  0.51100000000E-03 0. -1.
         11   -1    0    0    0    0 -0.00000000000E+00 -0.00000000000E+00 -0.45593999997E+02  0.45594000000E+02  0.51100000000E-03 0.  1.
    9900012    2    1    2    0    0  0.58304861252E+00 -0.58021129164E+00  0.84670546294E+00  0.90007533580E+02  0.89999792223E+02 0.  0.
        -12    1    1    2    0    0 -0.58304861252E+00  0.58021129164E+00 -0.84670546294E+00  0.11804664199E+01  0.00000000000E+00 0.  1.
         11    1    3    3    0    0  0.92826168270E+00  0.89411966304E+01  0.10539246490E+02  0.13852161700E+02  0.51100000000E-03 0. -1.
        -11    1    3    3    0    0 -0.12508319066E+02  0.49416592035E+01  0.29623459480E+02  0.32533481114E+02  0.51100000000E-03 0.  1.
         12    1    3    3    0    0  0.12163105996E+02 -0.14463067126E+02 -0.39316000507E+02  0.43621890766E+02  0.00000000000E+00 0. -1.
</event>
<event>
 7    1  0.4555057E-015  0.9000785E+02  0.7816164E-02  0.1186339E+00
        -11   -1    0    0    0    0  0.00000000000E+00  0.00000000000E+00  0.45593999997E+02  0.45594000000E+02  0.51100000000E-03 0.  1.
         11   -1    0    0    0    0 -0.00000000000E+00 -0.00000000000E+00 -0.45593999997E+02  0.45594000000E+02  0.51100000000E-03 0. -1.
    9900012    2    1    2    0    0  0.15950059210E+00 -0.84522233447E+00 -0.80803608085E+00  0.90007845967E+02  0.90000108734E+02 0.  0.
        -12    1    1    2    0    0 -0.15950059210E+00  0.84522233447E+00  0.80803608085E+00  0.11801540330E+01  0.00000000000E+00 0.  1.
         11    1    3    3    0    0 -0.27219200606E+02  0.20655459526E+02 -0.26809330481E+02  0.43431245561E+02  0.51100000000E-03 0. -1.
        -11    1    3    3    0    0  0.95315417949E+01 -0.29225305075E+01 -0.65667075403E-02  0.99695294241E+01  0.51100000000E-03 0.  1.
        -12    1    3    3    0    0  0.17847159403E+02 -0.18578151353E+02  0.26007861108E+02  0.36607070982E+02  0.00000000000E+00 0.  1.
</event>
<event>
 7    1  0.4555057E-015  0.9000772E+02  0.7816164E-02  0.1186339E+00
        -11   -1    0    0    0    0  0.00000000000E+00  0.00000000000E+00  0.45593999997E+02  0.45594000000E+02  0.51100000000E-03 0.  1.
         11   -1    0    0    0    0 -0.00000000000E+00 -0.00000000000E+00 -0.45593999997E+02  0.45594000000E+02  0.51100000000E-03 0. -1.
    9900012    2    1    2    0    0  0.16794304405E+00 -0.21357203181E+00 -0.11485824956E+01  0.90007720530E+02  0.89999981641E+02 0.  0.
        -12    1    1    2    0    0 -0.16794304405E+00  0.21357203181E+00  0.11485824956E+01  0.11802794703E+01  0.00000000000E+00 0.  1.
         11    1    3    3    0    0  0.29987351583E+01  0.65700558732E+01  0.55422904240E+01  0.91035723830E+01  0.51100000000E-03 0. -1.
        -11    1    3    3    0    0  0.20765761328E+02 -0.13018644010E+02  0.28808847978E+02  0.37823956132E+02  0.51100000000E-03 0.  1.
         12    1    3    3    0    0 -0.23596553443E+02  0.62350161054E+01 -0.35499720897E+02  0.43080192014E+02  0.00000000000E+00 0. -1.
</event>
<event>
 7    1  0.4555057E-015  0.9000788E+02  0.7816164E-02  0.1186339E+00
        -11   -1    0    0    0    0  0.00000000000E+00  0.00000000000E+00  0.45593999997E+02  0.45594000000E+02  0.51100000000E-03 0.  1.
         11   -1    0    0    0    0 -0.00000000000E+00 -0.00000000000E+00 -0.45593999997E+02  0.45594000000E+02  0.51100000000E-03 0. -1.
    9900012    2    1    2    0    0  0.63066926800E+00  0.70379012667E+00 -0.70684517960E+00  0.90007875271E+02  0.90000138425E+02 0.  0.
        -12    1    1    2    0    0 -0.63066926800E+00 -0.70379012667E+00  0.70684517960E+00  0.11801247290E+01  0.00000000000E+00 0.  1.
         11    1    3    3    0    0 -0.27905700143E+02  0.11105693496E+02 -0.27513894156E+02  0.40731792256E+02  0.51100000000E-03 0. -1.
        -11    1    3    3    0    0 -0.52826102499E+01 -0.12928091713E+01  0.75563837894E+01  0.93100087454E+01  0.51100000000E-03 0.  1.
        -12    1    3    3    0    0  0.33818979660E+02 -0.91090941983E+01  0.19250665187E+02  0.39966074270E+02  0.00000000000E+00 0.  1.
</event>
<event>
 7    1  0.4555057E-015  0.9000775E+02  0.7816164E-02  0.1186339E+00
        -11   -1    0    0    0    0  0.00000000000E+00  0.00000000000E+00  0.45593999997E+02  0.45594000000E+02  0.51100000000E-03 0. -1.
         11   -1    0    0    0    0 -0.00000000000E+00 -0.00000000000E+00 -0.45593999997E+02  0.45594000000E+02  0.51100000000E-03 0.  1.
    9900012    2    1    2    0    0 -0.84596646052E+00 -0.64483728684E+00  0.51139363246E+00  0.90007746711E+02  0.90000008168E+02 0.  0.
        -12    1    1    2    0    0  0.84596646052E+00  0.64483728684E+00 -0.51139363246E+00  0.11802532890E+01  0.00000000000E+00 0.  1.
         11    1    3    3    0    0  0.19741876341E+02  0.25667952736E+02  0.18512424225E+02  0.37300071448E+02  0.51100000000E-03 0. -1.
        -11    1    3    3    0    0 -0.54031677598E-01  0.70483430215E-01  0.94494114138E+01  0.94498287638E+01  0.51100000000E-03 0.  1.
        -12    1    3    3    0    0 -0.20533811124E+02 -0.26383273453E+02 -0.27450442006E+02  0.43257846499E+02  0.00000000000E+00 0.  1.
</event>
<event>
 7    1  0.4555057E-015  0.9000769E+02  0.7816164E-02  0.1186339E+00
        -11   -1    0    0    0    0  0.00000000000E+00  0.00000000000E+00  0.45593999997E+02  0.45594000000E+02  0.51100000000E-03 0.  1.
         11   -1    0    0    0    0 -0.00000000000E+00 -0.00000000000E+00 -0.45593999997E+02  0.45594000000E+02  0.51100000000E-03 0. -1.
    9900012    2    1    2    0    0 -0.94933476427E+00  0.17116906415E+00 -0.68014048497E+00  0.90007692234E+02  0.89999952971E+02 0.  0.
        -12    1    1    2    0    0  0.94933476427E+00 -0.17116906415E+00  0.68014048497E+00  0.11803077660E+01  0.00000000000E+00 0.  1.
         11    1    3    3    0    0 -0.22391335595E+02  0.37164076321E+02  0.58477534417E+01  0.43780551608E+02  0.51100000000E-03 0. -1.
        -11    1    3    3    0    0  0.10255157480E+02 -0.60828773922E+01  0.24034475109E+01  0.12163314207E+02  0.51100000000E-03 0.  1.
        -12    1    3    3    0    0  0.11186843351E+02 -0.30910029865E+02 -0.89313414376E+01  0.34063826419E+02  0.00000000000E+00 0.  1.
</event>
<event>
 7    1  0.4555057E-015  0.9000783E+02  0.7816164E-02  0.1186339E+00
        -11   -1    0    0    0    0  0.00000000000E+00  0.00000000000E+00  0.45593999997E+02  0.45594000000E+02  0.51100000000E-03 0. -1.
         11   -1    0    0    0    0 -0.00000000000E+00 -0.00000000000E+00 -0.45593999997E+02  0.45594000000E+02  0.51100000000E-03 0.  1.
    9900012    2    1    2    0    0  0.11307492941E+01 -0.67635925860E-01  0.33111973106E+00  0.90007826767E+02  0.90000089280E+02 0.  0.
        -12    1    1    2    0    0 -0.11307492941E+01  0.67635925860E-01 -0.33111973106E+00  0.11801732334E+01  0.00000000000E+00 0.  1.
         11    1    3    3    0    0  0.19405486765E+02  0.30502424963E+02  0.18376273647E+01  0.36198725389E+02  0.51100000000E-03 0. -1.
        -11    1    3    3    0    0  0.10843251649E+02  0.94015581956E+00 -0.26307794892E+00  0.10887112085E+02  0.51100000000E-03 0.  1.
        -12    1    3    3    0    0 -0.29117989120E+02 -0.31510216708E+02 -0.12434296847E+01  0.42921989292E+02  0.00000000000E+00 0.  1.
</event>
<event>
 7    1  0.4555057E-015  0.9000774E+02  0.7816164E-02  0.1186339E+00
        -11   -1    0    0    0    0  0.00000000000E+00  0.00000000000E+00  0.45593999997E+02  0.45594000000E+02  0.51100000000E-03 0. -1.
         11   -1    0    0    0    0 -0.00000000000E+00 -0.00000000000E+00 -0.45593999997E+02  0.45594000000E+02  0.51100000000E-03 0.  1.
    9900012    2    1    2    0    0  0.71363173650E+00 -0.70340792689E-01  0.93744090869E+00  0.90007740054E+02  0.90000001423E+02 0.  0.
        -12    1    1    2    0    0 -0.71363173650E+00  0.70340792689E-01 -0.93744090869E+00  0.11802599458E+01  0.00000000000E+00 0.  1.
         11    1    3    3    0    0  0.35959668694E+02  0.22537567363E+02  0.14917920791E+01  0.42464869706E+02  0.51100000000E-03 0. -1.
        -11    1    3    3    0    0 -0.64893764075E+01 -0.11658304501E+02  0.80610979032E+01  0.15588757798E+02  0.51100000000E-03 0.  1.
        -12    1    3    3    0    0 -0.28756660550E+02 -0.10949603655E+02 -0.86154490736E+01  0.31954112551E+02  0.00000000000E+00 0.  1.
</event>
<event>
 7    1  0.4555057E-015  0.9000642E+02  0.7816164E-02  0.1186342E+00
        -11   -1    0    0    0    0  0.00000000000E+00  0.00000000000E+00  0.45593999997E+02  0.45594000000E+02  0.51100000000E-03 0. -1.
         11   -1    0    0    0    0 -0.00000000000E+00 -0.00000000000E+00 -0.45593999997E+02  0.45594000000E+02  0.51100000000E-03 0.  1.
    9900012    2    1    2    0    0 -0.10683243501E+01 -0.46732307718E+00 -0.19084014392E+00  0.90006421507E+02  0.89998665461E+02 0.  0.
        -12    1    1    2    0    0  0.10683243501E+01  0.46732307718E+00  0.19084014392E+00  0.11815784934E+01  0.00000000000E+00 0.  1.
         11    1    3    3    0    0  0.29489526442E+02  0.29572729299E+01  0.21236224851E+02  0.36460319241E+02  0.51100000000E-03 0. -1.
        -11    1    3    3    0    0  0.21307018452E+01  0.78811127707E+01  0.53871305646E+01  0.97812578352E+01  0.51100000000E-03 0.  1.
        -12    1    3    3    0    0 -0.32688552637E+02 -0.11305708778E+02 -0.26814195560E+02  0.43764844430E+02  0.00000000000E+00 0.  1.
</event>
<event>
 7    1  0.4555057E-015  0.9000768E+02  0.7816164E-02  0.1186339E+00
        -11   -1    0    0    0    0  0.00000000000E+00  0.00000000000E+00  0.45593999997E+02  0.45594000000E+02  0.51100000000E-03 0.  1.
         11   -1    0    0    0    0 -0.00000000000E+00 -0.00000000000E+00 -0.45593999997E+02  0.45594000000E+02  0.51100000000E-03 0. -1.
    9900012    2    1    2    0    0 -0.52454418788E+00  0.18712444421E+00  0.10406670059E+01  0.90007682255E+02  0.89999942860E+02 0.  0.
        -12    1    1    2    0    0  0.52454418788E+00 -0.18712444421E+00 -0.10406670059E+01  0.11803177453E+01  0.00000000000E+00 0.  1.
         11    1    3    3    0    0  0.24444245719E+01  0.51824718561E+01 -0.49026251199E+01  0.75411510630E+01  0.51100000000E-03 0. -1.
        -11    1    3    3    0    0 -0.28848850628E+02  0.18508892063E+02  0.25210249152E+02  0.42548700691E+02  0.51100000000E-03 0.  1.
         12    1    3    3    0    0  0.25879881869E+02 -0.23504239474E+02 -0.19266957026E+02  0.39917830500E+02  0.00000000000E+00 0. -1.
</event>
<event>
 7    1  0.4555057E-015  0.9000748E+02  0.7816164E-02  0.1186340E+00
        -11   -1    0    0    0    0  0.00000000000E+00  0.00000000000E+00  0.45593999997E+02  0.45594000000E+02  0.51100000000E-03 0. -1.
         11   -1    0    0    0    0 -0.00000000000E+00 -0.00000000000E+00 -0.45593999997E+02  0.45594000000E+02  0.51100000000E-03 0.  1.
    9900012    2    1    2    0    0  0.35481156590E+00 -0.61036463754E+00  0.94614471825E+00  0.90007480595E+02  0.89999738538E+02 0.  0.
        -12    1    1    2    0    0 -0.35481156590E+00  0.61036463754E+00 -0.94614471825E+00  0.11805194052E+01  0.00000000000E+00 0.  1.
         11    1    3    3    0    0 -0.51543100663E+01  0.21628369046E+01 -0.22708663467E+01  0.60333746744E+01  0.51100000000E-03 0. -1.
        -11    1    3    3    0    0  0.32486467465E+02  0.17787791562E+02 -0.20738400398E+02  0.42448290288E+02  0.51100000000E-03 0.  1.
         12    1    3    3    0    0 -0.26977345833E+02 -0.20560993104E+02  0.23955411463E+02  0.41525815633E+02  0.00000000000E+00 0. -1.
</event>
<event>
 7    1  0.4555057E-015  0.9000773E+02  0.7816164E-02  0.1186339E+00
        -11   -1    0    0    0    0  0.00000000000E+00  0.00000000000E+00  0.45593999997E+02  0.45594000000E+02  0.51100000000E-03 0. -1.
         11   -1    0    0    0    0 -0.00000000000E+00 -0.00000000000E+00 -0.45593999997E+02  0.45594000000E+02  0.51100000000E-03 0.  1.
    9900012    2    1    2    0    0  0.70482588143E+00 -0.92430655986E+00  0.20471296153E+00  0.90007733277E+02  0.89999994557E+02 0.  0.
        -12    1    1    2    0    0 -0.70482588143E+00  0.92430655986E+00 -0.20471296153E+00  0.11802667225E+01  0.00000000000E+00 0.  1.
         11    1    3    3    0    0  0.90428957313E+01  0.35915210485E+01 -0.14027198854E+02  0.17071476052E+02  0.51100000000E-03 0. -1.
        -11    1    3    3    0    0  0.13553245112E+02 -0.32947540402E+02  0.61271153912E+01  0.36149307253E+02  0.51100000000E-03 0.  1.
         12    1    3    3    0    0 -0.21891314962E+02  0.28431712794E+02  0.81047964247E+01  0.36786949972E+02  0.00000000000E+00 0. -1.
</event>
<event>
 7    1  0.4936157E-015  0.9000775E+02  0.7816164E-02  0.1186339E+00
        -11   -1    0    0    0    0  0.00000000000E+00  0.00000000000E+00  0.45593999997E+02  0.45594000000E+02  0.51100000000E-03 0.  1.
         11   -1    0    0    0    0 -0.00000000000E+00 -0.00000000000E+00 -0.45593999997E+02  0.45594000000E+02  0.51100000000E-03 0. -1.
    9900012    2    1    2    0    0 -0.23803123231E+00  0.60103203584E+00  0.98746532023E+00  0.90007751664E+02  0.90000013186E+02 0.  0.
        -12    1    1    2    0    0  0.23803123231E+00 -0.60103203584E+00 -0.98746532023E+00  0.11802483359E+01  0.00000000000E+00 0.  1.
         11    1    3    3    0    0 -0.16122523211E+02  0.26137050027E+02  0.20339612189E+02  0.36834507776E+02  0.51100000000E-03 0. -1.
        -11    1    3    3    0    0 -0.36371526501E+01  0.31608425261E+01  0.77580330073E+01  0.91327367901E+01  0.51100000000E-03 0.  1.
        -12    1    3    3    0    0  0.19521644629E+02 -0.28696860518E+02 -0.27110179876E+02  0.44040507098E+02  0.00000000000E+00 0.  1.
</event>
<event>
 7    1  0.4555057E-015  0.9000760E+02  0.7816164E-02  0.1186339E+00
        -11   -1    0    0    0    0  0.00000000000E+00  0.00000000000E+00  0.45593999997E+02  0.45594000000E+02  0.51100000000E-03 0.  1.
         11   -1    0    0    0    0 -0.00000000000E+00 -0.00000000000E+00 -0.45593999997E+02  0.45594000000E+02  0.51100000000E-03 0. -1.
    9900012    2    1    2    0    0 -0.26789189921E+00 -0.10099142725E+01 -0.54923197045E+00  0.90007598092E+02  0.89999857586E+02 0.  0.
        -12    1    1    2    0    0  0.26789189921E+00  0.10099142725E+01  0.54923197045E+00  0.11804019082E+01  0.00000000000E+00 0.  1.
         11    1    3    3    0    0  0.31425677677E+02 -0.19444860211E+02 -0.96353938902E+01  0.38190530524E+02  0.51100000000E-03 0. -1.
        -11    1    3    3    0    0  0.72682497012E+01  0.37038104314E+01 -0.25882162233E+01  0.85583017539E+01  0.51100000000E-03 0.  1.
        -12    1    3    3    0    0 -0.38961819277E+02  0.14731135507E+02  0.11674378143E+02  0.43258765814E+02  0.00000000000E+00 0.  1.
</event>
<event>
 7    1  0.4555057E-015  0.9000773E+02  0.7816164E-02  0.1186339E+00
        -11   -1    0    0    0    0  0.00000000000E+00  0.00000000000E+00  0.45593999997E+02  0.45594000000E+02  0.51100000000E-03 0.  1.
         11   -1    0    0    0    0 -0.00000000000E+00 -0.00000000000E+00 -0.45593999997E+02  0.45594000000E+02  0.51100000000E-03 0. -1.
    9900012    2    1    2    0    0 -0.42759994135E+00 -0.11000766650E+01  0.54798464348E-02  0.90007728672E+02  0.89999989891E+02 0.  0.
        -12    1    1    2    0    0  0.42759994135E+00  0.11000766650E+01 -0.54798464348E-02  0.11802713279E+01  0.00000000000E+00 0.  1.
         11    1    3    3    0    0 -0.76430028122E+01 -0.29964175191E+02 -0.17386026204E+02  0.35475924150E+02  0.51100000000E-03 0. -1.
        -11    1    3    3    0    0 -0.55093077243E+01 -0.80681648123E+01 -0.33192127391E+01  0.10318184361E+02  0.51100000000E-03 0.  1.
        -12    1    3    3    0    0  0.12724710595E+02  0.36932263338E+02  0.20710718790E+02  0.44213620161E+02  0.00000000000E+00 0.  1.
</event>
<event>
 7    1  0.4555057E-015  0.9000774E+02  0.7816164E-02  0.1186339E+00
        -11   -1    0    0    0    0  0.00000000000E+00  0.00000000000E+00  0.45593999997E+02  0.45594000000E+02  0.51100000000E-03 0.  1.
         11   -1    0    0    0    0 -0.00000000000E+00 -0.00000000000E+00 -0.45593999997E+02  0.45594000000E+02  0.51100000000E-03 0. -1.
    9900012    2    1    2    0    0  0.53260843527E+00  0.41739616155E+00 -0.96701260464E+00  0.90007743808E+02  0.90000005226E+02 0.  0.
        -12    1    1    2    0    0 -0.53260843527E+00 -0.41739616155E+00  0.96701260464E+00  0.11802561919E+01  0.00000000000E+00 0.  1.
         11    1    3    3    0    0 -0.31619545796E+02 -0.19022294784E+02  0.23456297701E+02  0.43724607229E+02  0.51100000000E-03 0. -1.
        -11    1    3    3    0    0  0.52276944234E+01  0.89061364178E+00 -0.82469281836E+01  0.98047848712E+01  0.51100000000E-03 0.  1.
        -12    1    3    3    0    0  0.26924459808E+02  0.18549077304E+02 -0.16176382122E+02  0.36478351708E+02  0.00000000000E+00 0.  1.
</event>
<event>
 7    1  0.4555057E-015  0.9000777E+02  0.7816164E-02  0.1186339E+00
        -11   -1    0    0    0    0  0.00000000000E+00  0.00000000000E+00  0.45593999997E+02  0.45594000000E+02  0.51100000000E-03 0.  1.
         11   -1    0    0    0    0 -0.00000000000E+00 -0.00000000000E+00 -0.45593999997E+02  0.45594000000E+02  0.51100000000E-03 0. -1.
    9900012    2    1    2    0    0 -0.21973897199E+00  0.10725418757E+01 -0.44080623031E+00  0.90007770606E+02  0.90000032378E+02 0.  0.
        -12    1    1    2    0    0  0.21973897199E+00 -0.10725418757E+01  0.44080623031E+00  0.11802293945E+01  0.00000000000E+00 0.  1.
         11    1    3    3    0    0 -0.18556570034E+00 -0.10427570577E+02 -0.74519946377E-01  0.10429487823E+02  0.51100000000E-03 0. -1.
        -11    1    3    3    0    0  0.30349866124E+02 -0.92366973280E+01  0.20027881168E+02  0.37517289023E+02  0.51100000000E-03 0.  1.
         12    1    3    3    0    0 -0.30384039396E+02  0.20736809781E+02 -0.20394167452E+02  0.42060993759E+02  0.00000000000E+00 0. -1.
</event>
<event>
 7    1  0.4555057E-015  0.9000775E+02  0.7816164E-02  0.1186339E+00
        -11   -1    0    0    0    0  0.00000000000E+00  0.00000000000E+00  0.45593999997E+02  0.45594000000E+02  0.51100000000E-03 0. -1.
         11   -1    0    0    0    0 -0.00000000000E+00 -0.00000000000E+00 -0.45593999997E+02  0.45594000000E+02  0.51100000000E-03 0.  1.
    9900012    2    1    2    0    0 -0.41513997395E+00 -0.93372698780E+00  0.59060281956E+00  0.90007746224E+02  0.90000007674E+02 0.  0.
        -12    1    1    2    0    0  0.41513997395E+00  0.93372698780E+00 -0.59060281956E+00  0.11802537762E+01  0.00000000000E+00 0.  1.
         11    1    3    3    0    0 -0.27750471829E+02 -0.28296627761E+02  0.10893621100E+02  0.41103026777E+02  0.51100000000E-03 0. -1.
        -11    1    3    3    0    0 -0.52941696937E+01  0.81866280695E+01 -0.28245539181E+00  0.97534041854E+01  0.51100000000E-03 0.  1.
        -12    1    3    3    0    0  0.32629501548E+02  0.19176272703E+02 -0.10020562888E+02  0.39151315261E+02  0.00000000000E+00 0.  1.
</event>
<event>
 7    1  0.4555057E-015  0.9000743E+02  0.7816164E-02  0.1186340E+00
        -11   -1    0    0    0    0  0.00000000000E+00  0.00000000000E+00  0.45593999997E+02  0.45594000000E+02  0.51100000000E-03 0.  1.
         11   -1    0    0    0    0 -0.00000000000E+00 -0.00000000000E+00 -0.45593999997E+02  0.45594000000E+02  0.51100000000E-03 0. -1.
    9900012    2    1    2    0    0  0.16709001788E+00  0.55785744019E+00  0.10269480432E+01  0.90007429680E+02  0.89999686951E+02 0.  0.
        -12    1    1    2    0    0 -0.16709001788E+00 -0.55785744019E+00 -0.10269480432E+01  0.11805703203E+01  0.00000000000E+00 0.  1.
         11    1    3    3    0    0 -0.12060915370E+02  0.22328662954E+02  0.28877949539E+02  0.38444386309E+02  0.51100000000E-03 0. -1.
        -11    1    3    3    0    0  0.48588036895E+01 -0.22502481664E+01  0.82680047495E+01  0.98504564819E+01  0.51100000000E-03 0.  1.
        -12    1    3    3    0    0  0.73692016984E+01 -0.19520557347E+02 -0.36119006245E+02  0.41712586889E+02  0.00000000000E+00 0.  1.
</event>
<event>
 7    1  0.4555057E-015  0.9000770E+02  0.7816164E-02  0.1186339E+00
        -11   -1    0    0    0    0  0.00000000000E+00  0.00000000000E+00  0.45593999997E+02  0.45594000000E+02  0.51100000000E-03 0.  1.
         11   -1    0    0    0    0 -0.00000000000E+00 -0.00000000000E+00 -0.45593999997E+02  0.45594000000E+02  0.51100000000E-03 0. -1.
    9900012    2    1    2    0    0 -0.43869132777E+00 -0.31625573315E+00 -0.10491135897E+01  0.90007700422E+02  0.89999961268E+02 0.  0.
        -12    1    1    2    0    0  0.43869132777E+00  0.31625573315E+00  0.10491135897E+01  0.11802995780E+01  0.00000000000E+00 0.  1.
         11    1    3    3    0    0 -0.52789758015E+00 -0.35151637096E-01  0.10151393128E+02  0.10165170642E+02  0.51100000000E-03 0. -1.
        -11    1    3    3    0    0  0.18932674595E+02  0.17813260449E+02  0.24421702188E+02  0.35667603693E+02  0.51100000000E-03 0.  1.
         12    1    3    3    0    0 -0.18843468343E+02 -0.18094364545E+02 -0.35622208905E+02  0.44174926087E+02  0.00000000000E+00 0. -1.
</event>
<event>
 7    1  0.4555057E-015  0.9000774E+02  0.7816164E-02  0.1186339E+00
        -11   -1    0    0    0    0  0.00000000000E+00  0.00000000000E+00  0.45593999997E+02  0.45594000000E+02  0.51100000000E-03 0. -1.
         11   -1    0    0    0    0 -0.00000000000E+00 -0.00000000000E+00 -0.45593999997E+02  0.45594000000E+02  0.51100000000E-03 0.  1.
    9900012    2    1    2    0    0  0.94330580696E+00  0.47256255653E+00  0.52902958737E+00  0.90007740063E+02  0.90000001432E+02 0.  0.
        -12    1    1    2    0    0 -0.94330580696E+00 -0.47256255653E+00 -0.52902958737E+00  0.11802599373E+01  0.00000000000E+00 0.  1.
         11    1    3    3    0    0  0.42235984394E+02 -0.68780319526E+01 -0.10959892346E+02  0.44173577417E+02  0.51100000000E-03 0. -1.
        -11    1    3    3    0    0 -0.14220646567E+02  0.25865732207E+01 -0.29990037262E+01  0.14761814706E+02  0.51100000000E-03 0.  1.
        -12    1    3    3    0    0 -0.27072032021E+02  0.47640212884E+01  0.14487925660E+02  0.31072347940E+02  0.00000000000E+00 0.  1.
</event>
<event>
 7    1  0.4555057E-015  0.9000746E+02  0.7816164E-02  0.1186340E+00
        -11   -1    0    0    0    0  0.00000000000E+00  0.00000000000E+00  0.45593999997E+02  0.45594000000E+02  0.51100000000E-03 0. -1.
         11   -1    0    0    0    0 -0.00000000000E+00 -0.00000000000E+00 -0.45593999997E+02  0.45594000000E+02  0.51100000000E-03 0.  1.
    9900012    2    1    2    0    0 -0.38409280892E+00  0.93651178550E+00  0.60753762721E+00  0.90007456236E+02  0.89999713858E+02 0.  0.
        -12    1    1    2    0    0  0.38409280892E+00 -0.93651178550E+00 -0.60753762721E+00  0.11805437640E+01  0.00000000000E+00 0.  1.
         11    1    3    3    0    0  0.26255501524E+01  0.22747036559E+01 -0.84383325764E+01  0.91254176483E+01  0.51100000000E-03 0. -1.
        -11    1    3    3    0    0 -0.78494209942E+01 -0.25701968425E+02 -0.26352039166E+02  0.37638206112E+02  0.51100000000E-03 0.  1.
         12    1    3    3    0    0  0.48397780329E+01  0.24363776554E+02  0.35397909370E+02  0.43243832475E+02  0.00000000000E+00 0. -1.
</event>
<event>
 7    1  0.4555057E-015  0.9000762E+02  0.7816164E-02  0.1186339E+00
        -11   -1    0    0    0    0  0.00000000000E+00  0.00000000000E+00  0.45593999997E+02  0.45594000000E+02  0.51100000000E-03 0.  1.
         11   -1    0    0    0    0 -0.00000000000E+00 -0.00000000000E+00 -0.45593999997E+02  0.45594000000E+02  0.51100000000E-03 0. -1.
    9900012    2    1    2    0    0  0.69244385920E+00 -0.15520783850E+00 -0.94325143558E+00  0.90007622415E+02  0.89999882231E+02 0.  0.
        -12    1    1    2    0    0 -0.69244385920E+00  0.15520783850E+00  0.94325143558E+00  0.11803775845E+01  0.00000000000E+00 0.  1.
         11    1    3    3    0    0  0.12780825946E+02  0.75526385062E+01 -0.20592247216E+02  0.25385675212E+02  0.51100000000E-03 0. -1.
        -11    1    3    3    0    0  0.20239347624E+02 -0.12995471234E+02 -0.37811847584E+01  0.24347706735E+02  0.51100000000E-03 0.  1.
        -12    1    3    3    0    0 -0.32327729711E+02  0.52876248889E+01  0.23430180539E+02  0.40274240469E+02  0.00000000000E+00 0.  1.
</event>
<event>
 7    1  0.4555057E-015  0.9000777E+02  0.7816164E-02  0.1186339E+00
        -11   -1    0    0    0    0  0.00000000000E+00  0.00000000000E+00  0.45593999997E+02  0.45594000000E+02  0.51100000000E-03 0.  1.
         11   -1    0    0    0    0 -0.00000000000E+00 -0.00000000000E+00 -0.45593999997E+02  0.45594000000E+02  0.51100000000E-03 0. -1.
    9900012    2    1    2    0    0 -0.46760929761E+00  0.24229153416E+00 -0.10562143489E+01  0.90007765958E+02  0.90000027669E+02 0.  0.
        -12    1    1    2    0    0  0.46760929761E+00 -0.24229153416E+00  0.10562143489E+01  0.11802340419E+01  0.00000000000E+00 0.  1.
         11    1    3    3    0    0  0.22682847494E+02  0.28324729119E+02 -0.17935884734E+02  0.40478362264E+02  0.51100000000E-03 0. -1.
        -11    1    3    3    0    0 -0.16646633327E+01 -0.37110540034E+01 -0.77544037246E+01  0.87563578737E+01  0.51100000000E-03 0.  1.
        -12    1    3    3    0    0 -0.21485793459E+02 -0.24371383582E+02  0.24634074110E+02  0.40773045821E+02  0.00000000000E+00 0.  1.
</event>
<event>
 7    1  0.4555057E-015  0.9000803E+02  0.7816164E-02  0.1186338E+00
        -11   -1    0    0    0    0  0.00000000000E+00  0.00000000000E+00  0.45593999997E+02  0.45594000000E+02  0.51100000000E-03 0. -1.
         11   -1    0    0    0    0 -0.00000000000E+00 -0.00000000000E+00 -0.45593999997E+02  0.45594000000E+02  0.51100000000E-03 0.  1.
    9900012    2    1    2    0    0 -0.70614118974E+00 -0.94272078696E+00  0.70438870838E-01  0.90008034112E+02  0.90000299362E+02 0.  0.
        -12    1    1    2    0    0  0.70614118974E+00  0.94272078696E+00 -0.70438870838E-01  0.11799658879E+01  0.00000000000E+00 0.  1.
         11    1    3    3    0    0 -0.33285284339E+01 -0.90964980241E+01 -0.81723891371E+01  0.12673331145E+02  0.51100000000E-03 0. -1.
        -11    1    3    3    0    0  0.35497721431E+02  0.16639392239E+02 -0.74913010854E+01  0.39913371107E+02  0.51100000000E-03 0.  1.
         12    1    3    3    0    0 -0.32875334187E+02 -0.84856150023E+01  0.15734129093E+02  0.37421331860E+02  0.00000000000E+00 0. -1.
</event>
<event>
 7    1  0.4555057E-015  0.9000775E+02  0.7816164E-02  0.1186339E+00
        -11   -1    0    0    0    0  0.00000000000E+00  0.00000000000E+00  0.45593999997E+02  0.45594000000E+02  0.51100000000E-03 0.  1.
         11   -1    0    0    0    0 -0.00000000000E+00 -0.00000000000E+00 -0.45593999997E+02  0.45594000000E+02  0.51100000000E-03 0. -1.
    9900012    2    1    2    0    0  0.11770337115E+01  0.80631525649E-01 -0.32833660039E-01  0.90007750937E+02  0.90000012450E+02 0.  0.
        -12    1    1    2    0    0 -0.11770337115E+01 -0.80631525649E-01  0.32833660039E-01  0.11802490628E+01  0.00000000000E+00 0.  1.
         11    1    3    3    0    0  0.35087885973E+02  0.13897525345E+02 -0.13891193073E+02  0.40215248327E+02  0.51100000000E-03 0. -1.
        -11    1    3    3    0    0 -0.55118576151E+01  0.95635632363E+01  0.33758257516E+01  0.11542898939E+02  0.51100000000E-03 0.  1.
        -12    1    3    3    0    0 -0.28398994646E+02 -0.23380457056E+02  0.10482533661E+02  0.38249603671E+02  0.00000000000E+00 0.  1.
</event>
<event>
 7    1  0.4555057E-015  0.9000780E+02  0.7816164E-02  0.1186339E+00
        -11   -1    0    0    0    0  0.00000000000E+00  0.00000000000E+00  0.45593999997E+02  0.45594000000E+02  0.51100000000E-03 0.  1.
         11   -1    0    0    0    0 -0.00000000000E+00 -0.00000000000E+00 -0.45593999997E+02  0.45594000000E+02  0.51100000000E-03 0. -1.
    9900012    2    1    2    0    0 -0.10069224848E+01 -0.50911275236E+00 -0.34609502584E+00  0.90007800673E+02  0.90000062842E+02 0.  0.
        -12    1    1    2    0    0  0.10069224848E+01  0.50911275236E+00  0.34609502584E+00  0.11801993272E+01  0.00000000000E+00 0.  1.
         11    1    3    3    0    0 -0.83254539147E+00  0.29424809131E+02 -0.25853018484E+02  0.39177686114E+02  0.51100000000E-03 0. -1.
        -11    1    3    3    0    0 -0.12410994889E+01  0.63093668783E+01  0.88211519141E+01  0.10916096358E+02  0.51100000000E-03 0.  1.
        -12    1    3    3    0    0  0.10667223956E+01 -0.36243288762E+02  0.16685771544E+02  0.39914018201E+02  0.00000000000E+00 0.  1.
</event>
<event>
 7    1  0.4555057E-015  0.9000784E+02  0.7816164E-02  0.1186339E+00
        -11   -1    0    0    0    0  0.00000000000E+00  0.00000000000E+00  0.45593999997E+02  0.45594000000E+02  0.51100000000E-03 0.  1.
         11   -1    0    0    0    0 -0.00000000000E+00 -0.00000000000E+00 -0.45593999997E+02  0.45594000000E+02  0.51100000000E-03 0. -1.
    9900012    2    1    2    0    0  0.26751834423E+00 -0.55099795230E+00 -0.10087698613E+01  0.90007838384E+02  0.90000101050E+02 0.  0.
        -12    1    1    2    0    0 -0.26751834423E+00  0.55099795230E+00  0.10087698613E+01  0.11801616165E+01  0.00000000000E+00 0.  1.
         11    1    3    3    0    0  0.79355421460E+01 -0.30683806175E+01 -0.49553744587E+01  0.98459903032E+01  0.51100000000E-03 0. -1.
        -11    1    3    3    0    0  0.29886132930E+02  0.30496399374E+01  0.23199689181E+02  0.37956643998E+02  0.51100000000E-03 0.  1.
         12    1    3    3    0    0 -0.37554156732E+02 -0.53225727222E+00 -0.19253084583E+02  0.42205204082E+02  0.00000000000E+00 0. -1.
</event>
<event>
 7    1  0.4555057E-015  0.9000780E+02  0.7816164E-02  0.1186339E+00
        -11   -1    0    0    0    0  0.00000000000E+00  0.00000000000E+00  0.45593999997E+02  0.45594000000E+02  0.51100000000E-03 0.  1.
         11   -1    0    0    0    0 -0.00000000000E+00 -0.00000000000E+00 -0.45593999997E+02  0.45594000000E+02  0.51100000000E-03 0. -1.
    9900012    2    1    2    0    0 -0.10118835841E+01  0.11297288222E+00  0.59681611445E+00  0.90007804790E+02  0.90000067013E+02 0.  0.
        -12    1    1    2    0    0  0.10118835841E+01 -0.11297288222E+00 -0.59681611445E+00  0.11801952103E+01  0.00000000000E+00 0.  1.
         11    1    3    3    0    0 -0.39873418748E+01 -0.83116401000E+01 -0.54445867580E+01  0.10706343055E+02  0.51100000000E-03 0. -1.
        -11    1    3    3    0    0 -0.33803470686E+02 -0.78090874851E+01  0.15504269947E+02  0.38000511373E+02  0.51100000000E-03 0.  1.
         12    1    3    3    0    0  0.36778928977E+02  0.16233700467E+02 -0.94628670749E+01  0.41300950362E+02  0.00000000000E+00 0. -1.
</event>
<event>
 7    1  0.4555057E-015  0.9000772E+02  0.7816164E-02  0.1186339E+00
        -11   -1    0    0    0    0  0.00000000000E+00  0.00000000000E+00  0.45593999997E+02  0.45594000000E+02  0.51100000000E-03 0.  1.
         11   -1    0    0    0    0 -0.00000000000E+00 -0.00000000000E+00 -0.45593999997E+02  0.45594000000E+02  0.51100000000E-03 0. -1.
    9900012    2    1    2    0    0  0.77210525972E+00  0.19129578035E+00 -0.87196828459E+00  0.90007716434E+02  0.89999977491E+02 0.  0.
        -12    1    1    2    0    0 -0.77210525972E+00 -0.19129578035E+00  0.87196828459E+00  0.11802835664E+01  0.00000000000E+00 0.  1.
         11    1    3    3    0    0 -0.15326473439E+02 -0.52530188215E+01 -0.35086942342E+02  0.38646972947E+02  0.51100000000E-03 0. -1.
        -11    1    3    3    0    0  0.53594220029E+01 -0.46157543155E+01 -0.55305760512E+01  0.89786337393E+01  0.51100000000E-03 0.  1.
        -12    1    3    3    0    0  0.10739156696E+02  0.10060068917E+02  0.39745550109E+02  0.42382109747E+02  0.00000000000E+00 0.  1.
</event>
<event>
 7    1  0.4555057E-015  0.9000774E+02  0.7816164E-02  0.1186339E+00
        -11   -1    0    0    0    0  0.00000000000E+00  0.00000000000E+00  0.45593999997E+02  0.45594000000E+02  0.51100000000E-03 0.  1.
         11   -1    0    0    0    0 -0.00000000000E+00 -0.00000000000E+00 -0.45593999997E+02  0.45594000000E+02  0.51100000000E-03 0. -1.
    9900012    2    1    2    0    0 -0.28253969619E+00 -0.10047652870E+01 -0.55102748779E+00  0.90007740175E+02  0.90000001545E+02 0.  0.
        -12    1    1    2    0    0  0.28253969619E+00  0.10047652870E+01  0.55102748779E+00  0.11802598248E+01  0.00000000000E+00 0.  1.
         11    1    3    3    0    0 -0.11689071925E+02 -0.36768927945E+02 -0.93765557114E+00  0.38593622050E+02  0.51100000000E-03 0. -1.
        -11    1    3    3    0    0  0.11217028780E+00 -0.19498048534E+00 -0.11799729815E+02  0.11801873730E+02  0.51100000000E-03 0.  1.
        -12    1    3    3    0    0  0.11294361941E+02  0.35959143143E+02  0.12186357898E+02  0.39612244396E+02  0.00000000000E+00 0.  1.
</event>
<event>
 8    1  0.4555057E-015  0.9000773E+02  0.7816164E-02  0.1186339E+00
        -11   -1    0    0    0    0  0.00000000000E+00  0.00000000000E+00  0.45593999997E+02  0.45594000000E+02  0.51100000000E-03 0. -1.
         11   -1    0    0    0    0 -0.00000000000E+00 -0.00000000000E+00 -0.45593999997E+02  0.45594000000E+02  0.51100000000E-03 0.  1.
    9900012    2    1    2    0    0 -0.10338033887E+01  0.49439631086E+00  0.28259804717E+00  0.90007729347E+02  0.89999990574E+02 0.  0.
         23    2    3    3    0    0  0.76071657935E+01 -0.18195647500E+02 -0.13802529493E+02  0.65060286515E+02  0.60443200624E+02 0.  0.
        -12    1    1    2    0    0  0.10338033887E+01 -0.49439631086E+00 -0.28259804717E+00  0.11802706532E+01  0.00000000000E+00 0.  1.
         11    1    4    4    0    0  0.52498331406E+01 -0.18673167814E+02  0.21912472113E+02  0.29264387548E+02  0.51100000000E-03 0. -1.
        -11    1    4    4    0    0  0.23573326529E+01  0.47752031444E+00 -0.35715001605E+02  0.35795898966E+02  0.51100000000E-03 0.  1.
         12    1    3    3    0    0 -0.86409691822E+01  0.18690043811E+02  0.14085127540E+02  0.24947442832E+02  0.00000000000E+00 0. -1.
</event>
<event>
 7    1  0.4555057E-015  0.9000776E+02  0.7816164E-02  0.1186339E+00
        -11   -1    0    0    0    0  0.00000000000E+00  0.00000000000E+00  0.45593999997E+02  0.45594000000E+02  0.51100000000E-03 0. -1.
         11   -1    0    0    0    0 -0.00000000000E+00 -0.00000000000E+00 -0.45593999997E+02  0.45594000000E+02  0.51100000000E-03 0.  1.
    9900012    2    1    2    0    0 -0.81526022173E+00  0.83559160236E+00  0.17349807215E+00  0.90007760983E+02  0.90000022628E+02 0.  0.
        -12    1    1    2    0    0  0.81526022173E+00 -0.83559160236E+00 -0.17349807215E+00  0.11802390165E+01  0.00000000000E+00 0.  1.
         11    1    3    3    0    0 -0.91380833439E+00 -0.84834695987E+01  0.26787963931E+01  0.89431679220E+01  0.51100000000E-03 0. -1.
        -11    1    3    3    0    0  0.30028383656E+02 -0.21224508320E+02  0.65556230210E+01  0.37351837597E+02  0.51100000000E-03 0.  1.
         12    1    3    3    0    0 -0.29929835543E+02  0.30543569521E+02 -0.90609213420E+01  0.43712755465E+02  0.00000000000E+00 0. -1.
</event>
<event>
 7    1  0.4555057E-015  0.9000763E+02  0.7816164E-02  0.1186339E+00
        -11   -1    0    0    0    0  0.00000000000E+00  0.00000000000E+00  0.45593999997E+02  0.45594000000E+02  0.51100000000E-03 0.  1.
         11   -1    0    0    0    0 -0.00000000000E+00 -0.00000000000E+00 -0.45593999997E+02  0.45594000000E+02  0.51100000000E-03 0. -1.
    9900012    2    1    2    0    0 -0.15519842752E+00 -0.83287454420E+00 -0.82188643938E+00  0.90007634007E+02  0.89999893976E+02 0.  0.
        -12    1    1    2    0    0  0.15519842752E+00  0.83287454420E+00  0.82188643938E+00  0.11803659930E+01  0.00000000000E+00 0.  1.
         11    1    3    3    0    0 -0.10160340490E+01  0.76174552067E+01 -0.56887250448E+00  0.77059434986E+01  0.51100000000E-03 0. -1.
        -11    1    3    3    0    0  0.40742168024E+02 -0.11111093591E+02  0.19095025365E+01  0.42273240428E+02  0.51100000000E-03 0.  1.
         12    1    3    3    0    0 -0.39881332402E+02  0.26607638400E+01 -0.21625164714E+01  0.40028450081E+02  0.00000000000E+00 0. -1.
</event>
<event>
 7    1  0.4555057E-015  0.9000774E+02  0.7816164E-02  0.1186339E+00
        -11   -1    0    0    0    0  0.00000000000E+00  0.00000000000E+00  0.45593999997E+02  0.45594000000E+02  0.51100000000E-03 0. -1.
         11   -1    0    0    0    0 -0.00000000000E+00 -0.00000000000E+00 -0.45593999997E+02  0.45594000000E+02  0.51100000000E-03 0.  1.
    9900012    2    1    2    0    0  0.82387848152E+00  0.63203864529E+00  0.56104879819E+00  0.90007735472E+02  0.89999996781E+02 0.  0.
        -12    1    1    2    0    0 -0.82387848152E+00 -0.63203864529E+00 -0.56104879819E+00  0.11802645277E+01  0.00000000000E+00 0.  1.
         11    1    3    3    0    0 -0.19100805923E+02  0.69290677375E+01  0.28124214971E+02  0.34696170316E+02  0.51100000000E-03 0. -1.
        -11    1    3    3    0    0 -0.11505430061E+02 -0.89343116316E+00  0.21324281007E+01  0.11735433098E+02  0.51100000000E-03 0.  1.
        -12    1    3    3    0    0  0.31430114465E+02 -0.54035979290E+01 -0.29695594274E+02  0.43576132058E+02  0.00000000000E+00 0.  1.
</event>
<event>
 7    1  0.4555057E-015  0.9000773E+02  0.7816164E-02  0.1186339E+00
        -11   -1    0    0    0    0  0.00000000000E+00  0.00000000000E+00  0.45593999997E+02  0.45594000000E+02  0.51100000000E-03 0.  1.
         11   -1    0    0    0    0 -0.00000000000E+00 -0.00000000000E+00 -0.45593999997E+02  0.45594000000E+02  0.51100000000E-03 0. -1.
    9900012    2    1    2    0    0 -0.65498499630E+00 -0.30582775126E+00 -0.93300124205E+00  0.90007734235E+02  0.89999995527E+02 0.  0.
        -12    1    1    2    0    0  0.65498499630E+00  0.30582775126E+00  0.93300124205E+00  0.11802657652E+01  0.00000000000E+00 0.  1.
         11    1    3    3    0    0  0.24294205313E+01 -0.22391239320E+01 -0.36042784381E+02  0.36193895429E+02  0.51100000000E-03 0. -1.
        -11    1    3    3    0    0  0.31120094909E+01 -0.75633372495E+00 -0.88118564182E+01  0.93757910371E+01  0.51100000000E-03 0.  1.
        -12    1    3    3    0    0 -0.61964150185E+01  0.26896299057E+01  0.43921639557E+02  0.44438047769E+02  0.00000000000E+00 0.  1.
</event>
<event>
 7    1  0.4555057E-015  0.9000777E+02  0.7816164E-02  0.1186339E+00
        -11   -1    0    0    0    0  0.00000000000E+00  0.00000000000E+00  0.45593999997E+02  0.45594000000E+02  0.51100000000E-03 0.  1.
         11   -1    0    0    0    0 -0.00000000000E+00 -0.00000000000E+00 -0.45593999997E+02  0.45594000000E+02  0.51100000000E-03 0. -1.
    9900012    2    1    2    0    0  0.11559503537E+01 -0.14661968712E+00  0.18768207541E+00  0.90007769889E+02  0.90000031652E+02 0.  0.
        -12    1    1    2    0    0 -0.11559503537E+01  0.14661968712E+00 -0.18768207541E+00  0.11802301108E+01  0.00000000000E+00 0.  1.
         11    1    3    3    0    0  0.85142274089E+01 -0.15058093295E+01  0.61598094107E+01  0.10616156665E+02  0.51100000000E-03 0. -1.
        -11    1    3    3    0    0  0.15779032303E+02  0.33442789599E+02  0.72533969097E+01  0.37683017442E+02  0.51100000000E-03 0.  1.
         12    1    3    3    0    0 -0.23137309358E+02 -0.32083599957E+02 -0.13225524245E+02  0.41708595781E+02  0.00000000000E+00 0. -1.
</event>
<event>
 7    1  0.4555057E-015  0.9000764E+02  0.7816164E-02  0.1186339E+00
        -11   -1    0    0    0    0  0.00000000000E+00  0.00000000000E+00  0.45593999997E+02  0.45594000000E+02  0.51100000000E-03 0.  1.
         11   -1    0    0    0    0 -0.00000000000E+00 -0.00000000000E+00 -0.45593999997E+02  0.45594000000E+02  0.51100000000E-03 0. -1.
    9900012    2    1    2    0    0  0.80697149125E+00  0.16608108406E+00 -0.84526607727E+00  0.90007635372E+02  0.89999895359E+02 0.  0.
        -12    1    1    2    0    0 -0.80697149125E+00 -0.16608108406E+00  0.84526607727E+00  0.11803646282E+01  0.00000000000E+00 0.  1.
         11    1    3    3    0    0  0.11282319166E+02  0.17213918629E+02  0.30791662136E+02  0.37036956917E+02  0.51100000000E-03 0. -1.
        -11    1    3    3    0    0  0.89626976677E+01 -0.45523375299E+01  0.37313485971E+01  0.10722718363E+02  0.51100000000E-03 0.  1.
        -12    1    3    3    0    0 -0.19438045342E+02 -0.12495500015E+02 -0.35368276811E+02  0.42247960092E+02  0.00000000000E+00 0.  1.
</event>
<event>
 7    1  0.4555057E-015  0.9000775E+02  0.7816164E-02  0.1186339E+00
        -11   -1    0    0    0    0  0.00000000000E+00  0.00000000000E+00  0.45593999997E+02  0.45594000000E+02  0.51100000000E-03 0. -1.
         11   -1    0    0    0    0 -0.00000000000E+00 -0.00000000000E+00 -0.45593999997E+02  0.45594000000E+02  0.51100000000E-03 0.  1.
    9900012    2    1    2    0    0 -0.16231093876E+00 -0.11306443466E+01  0.29713908576E+00  0.90007748707E+02  0.90000010190E+02 0.  0.
        -12    1    1    2    0    0  0.16231093876E+00  0.11306443466E+01 -0.29713908576E+00  0.11802512934E+01  0.00000000000E+00 0.  1.
         11    1    3    3    0    0 -0.71129711852E+01  0.90077579976E+01  0.37708112658E+02  0.39416187331E+02  0.51100000000E-03 0. -1.
        -11    1    3    3    0    0 -0.87383630443E+01 -0.49545851082E+01 -0.39253357173E+00  0.10052909288E+02  0.51100000000E-03 0.  1.
        -12    1    3    3    0    0  0.15689023291E+02 -0.51838172360E+01 -0.37018440001E+02  0.40538652087E+02  0.00000000000E+00 0.  1.
</event>
<event>
 7    1  0.4555057E-015  0.9000772E+02  0.7816164E-02  0.1186339E+00
        -11   -1    0    0    0    0  0.00000000000E+00  0.00000000000E+00  0.45593999997E+02  0.45594000000E+02  0.51100000000E-03 0. -1.
         11   -1    0    0    0    0 -0.00000000000E+00 -0.00000000000E+00 -0.45593999997E+02  0.45594000000E+02  0.51100000000E-03 0.  1.
    9900012    2    1    2    0    0  0.79449285930E+00  0.87159412174E+00  0.46642504437E-01  0.90007715822E+02  0.89999976871E+02 0.  0.
        -12    1    1    2    0    0 -0.79449285930E+00 -0.87159412174E+00 -0.46642504437E-01  0.11802841775E+01  0.00000000000E+00 0.  1.
         11    1    3    3    0    0 -0.81928582471E+01 -0.14894708987E+02 -0.31670292144E+02  0.35944160678E+02  0.51100000000E-03 0. -1.
        -11    1    3    3    0    0 -0.23819829555E+01 -0.10859330285E+02 -0.33608505880E-02  0.11117504603E+02  0.51100000000E-03 0.  1.
        -12    1    3    3    0    0  0.11369334062E+02  0.26625633393E+02  0.31720295499E+02  0.42946050542E+02  0.00000000000E+00 0.  1.
</event>
<event>
 7    1  0.4555057E-015  0.9000770E+02  0.7816164E-02  0.1186339E+00
        -11   -1    0    0    0    0  0.00000000000E+00  0.00000000000E+00  0.45593999997E+02  0.45594000000E+02  0.51100000000E-03 0. -1.
         11   -1    0    0    0    0 -0.00000000000E+00 -0.00000000000E+00 -0.45593999997E+02  0.45594000000E+02  0.51100000000E-03 0.  1.
    9900012    2    1    2    0    0  0.41467845686E+00  0.42632631871E+00  0.10195116817E+01  0.90007696471E+02  0.89999957264E+02 0.  0.
        -12    1    1    2    0    0 -0.41467845686E+00 -0.42632631871E+00 -0.10195116817E+01  0.11803035295E+01  0.00000000000E+00 0.  1.
         11    1    3    3    0    0 -0.64056571752E+01  0.90682190184E+00 -0.59769617379E+01  0.88078851994E+01  0.51100000000E-03 0. -1.
        -11    1    3    3    0    0 -0.36944586472E+02 -0.23374810322E+01  0.14625919230E+01  0.37047340829E+02  0.51100000000E-03 0.  1.
         12    1    3    3    0    0  0.43764922104E+02  0.18569854491E+01  0.55338814966E+01  0.44152470442E+02  0.00000000000E+00 0. -1.
</event>
<event>
 7    1  0.4555057E-015  0.9000763E+02  0.7816164E-02  0.1186339E+00
        -11   -1    0    0    0    0  0.00000000000E+00  0.00000000000E+00  0.45593999997E+02  0.45594000000E+02  0.51100000000E-03 0.  1.
         11   -1    0    0    0    0 -0.00000000000E+00 -0.00000000000E+00 -0.45593999997E+02  0.45594000000E+02  0.51100000000E-03 0. -1.
    9900012    2    1    2    0    0 -0.64391439299E+00 -0.21594665828E+00 -0.96541144483E+00  0.90007628041E+02  0.89999887931E+02 0.  0.
        -12    1    1    2    0    0  0.64391439299E+00  0.21594665828E+00  0.96541144483E+00  0.11803719594E+01  0.00000000000E+00 0.  1.
         11    1    3    3    0    0 -0.49714967669E+00  0.36468197342E+02  0.59944277710E+00  0.36476511718E+02  0.51100000000E-03 0. -1.
        -11    1    3    3    0    0 -0.32897051683E+01  0.79410693557E+01  0.13482936418E+01  0.87006113930E+01  0.51100000000E-03 0.  1.
        -12    1    3    3    0    0  0.31429404520E+01 -0.44625213356E+02 -0.29131478637E+01  0.44830504930E+02  0.00000000000E+00 0.  1.
</event>
<event>
 7    1  0.4555057E-015  0.9000776E+02  0.7816164E-02  0.1186339E+00
        -11   -1    0    0    0    0  0.00000000000E+00  0.00000000000E+00  0.45593999997E+02  0.45594000000E+02  0.51100000000E-03 0.  1.
         11   -1    0    0    0    0 -0.00000000000E+00 -0.00000000000E+00 -0.45593999997E+02  0.45594000000E+02  0.51100000000E-03 0. -1.
    9900012    2    1    2    0    0  0.75727105118E+00  0.60942027903E+00 -0.66941478215E+00  0.90007759062E+02  0.90000020681E+02 0.  0.
        -12    1    1    2    0    0 -0.75727105118E+00 -0.60942027903E+00  0.66941478215E+00  0.11802409381E+01  0.00000000000E+00 0.  1.
         11    1    3    3    0    0  0.16783048017E+02 -0.89761541997E+01  0.47447337092E+01  0.19615161054E+02  0.51100000000E-03 0. -1.
        -11    1    3    3    0    0 -0.11443770962E+02 -0.14624696929E+02  0.25068078342E+02  0.31196958283E+02  0.51100000000E-03 0.  1.
         12    1    3    3    0    0 -0.45820060036E+01  0.24210271408E+02 -0.30482226834E+02  0.39195639724E+02  0.00000000000E+00 0. -1.
</event>
<event>
 7    1  0.4555057E-015  0.9000772E+02  0.7816164E-02  0.1186339E+00
        -11   -1    0    0    0    0  0.00000000000E+00  0.00000000000E+00  0.45593999997E+02  0.45594000000E+02  0.51100000000E-03 0. -1.
         11   -1    0    0    0    0 -0.00000000000E+00 -0.00000000000E+00 -0.45593999997E+02  0.45594000000E+02  0.51100000000E-03 0.  1.
    9900012    2    1    2    0    0 -0.10583747867E+01 -0.36269241140E+00  0.37597756883E+00  0.90007719480E+02  0.89999980577E+02 0.  0.
        -12    1    1    2    0    0  0.10583747867E+01  0.36269241140E+00 -0.37597756883E+00  0.11802805203E+01  0.00000000000E+00 0.  1.
         11    1    3    3    0    0  0.57294663360E+01 -0.53545075781E+01 -0.47524606784E+01  0.91697011216E+01  0.51100000000E-03 0. -1.
        -11    1    3    3    0    0  0.32500956487E+02  0.65901752145E+01 -0.15305808129E+02  0.36524106350E+02  0.51100000000E-03 0.  1.
         12    1    3    3    0    0 -0.39288797610E+02 -0.15983600478E+01  0.20434246376E+02  0.44313912008E+02  0.00000000000E+00 0. -1.
</event>
<event>
 7    1  0.4555057E-015  0.9000776E+02  0.7816164E-02  0.1186339E+00
        -11   -1    0    0    0    0  0.00000000000E+00  0.00000000000E+00  0.45593999997E+02  0.45594000000E+02  0.51100000000E-03 0. -1.
         11   -1    0    0    0    0 -0.00000000000E+00 -0.00000000000E+00 -0.45593999997E+02  0.45594000000E+02  0.51100000000E-03 0.  1.
    9900012    2    1    2    0    0 -0.29016075235E+00 -0.49976182483E+00  0.10290802062E+01  0.90007762221E+02  0.90000023883E+02 0.  0.
        -12    1    1    2    0    0  0.29016075235E+00  0.49976182483E+00 -0.10290802062E+01  0.11802377788E+01  0.00000000000E+00 0.  1.
         11    1    3    3    0    0 -0.20557643471E+02  0.19184801526E+02  0.31866292088E+02  0.42498633936E+02  0.51100000000E-03 0. -1.
        -11    1    3    3    0    0 -0.27779535277E+01 -0.19623439823E+01 -0.12918526495E+02  0.13358747949E+02  0.51100000000E-03 0.  1.
        -12    1    3    3    0    0  0.23045436246E+02 -0.17722219368E+02 -0.17918685387E+02  0.34150380337E+02  0.00000000000E+00 0.  1.
</event>
<event>
 7    1  0.4555057E-015  0.9000801E+02  0.7816164E-02  0.1186338E+00
        -11   -1    0    0    0    0  0.00000000000E+00  0.00000000000E+00  0.45593999997E+02  0.45594000000E+02  0.51100000000E-03 0. -1.
         11   -1    0    0    0    0 -0.00000000000E+00 -0.00000000000E+00 -0.45593999997E+02  0.45594000000E+02  0.51100000000E-03 0.  1.
    9900012    2    1    2    0    0  0.32645302803E+00  0.11230131234E+01  0.15697241898E+00  0.90008012545E+02  0.90000277510E+02 0.  0.
        -12    1    1    2    0    0 -0.32645302803E+00 -0.11230131234E+01 -0.15697241898E+00  0.11799874555E+01  0.00000000000E+00 0.  1.
         11    1    3    3    0    0 -0.25698552739E+02 -0.29186760389E+02 -0.18660977741E+02  0.43133683884E+02  0.51100000000E-03 0. -1.
        -11    1    3    3    0    0  0.86789088428E+01  0.15787420362E+01  0.10038723856E+01  0.88782681389E+01  0.51100000000E-03 0.  1.
        -12    1    3    3    0    0  0.17346096924E+02  0.28731031477E+02  0.17814077774E+02  0.37996060522E+02  0.00000000000E+00 0.  1.
</event>
<event>
 7    1  0.4555057E-015  0.9000771E+02  0.7816164E-02  0.1186339E+00
        -11   -1    0    0    0    0  0.00000000000E+00  0.00000000000E+00  0.45593999997E+02  0.45594000000E+02  0.51100000000E-03 0.  1.
         11   -1    0    0    0    0 -0.00000000000E+00 -0.00000000000E+00 -0.45593999997E+02  0.45594000000E+02  0.51100000000E-03 0. -1.
    9900012    2    1    2    0    0 -0.84338350909E+00  0.26301314243E+00 -0.78268966318E+00  0.90007714117E+02  0.89999975143E+02 0.  0.
        -12    1    1    2    0    0  0.84338350909E+00 -0.26301314243E+00  0.78268966318E+00  0.11802858829E+01  0.00000000000E+00 0.  1.
         11    1    3    3    0    0  0.14056223334E+01 -0.49591508261E+01  0.57323542979E+01  0.77090101257E+01  0.51100000000E-03 0. -1.
        -11    1    3    3    0    0 -0.41846720129E+02  0.34025994548E+01  0.78727652986E+00  0.41992207291E+02  0.51100000000E-03 0.  1.
         12    1    3    3    0    0  0.39597714286E+02  0.18195645137E+01 -0.73023204910E+01  0.40306496700E+02  0.00000000000E+00 0. -1.
</event>
<event>
 7    1  0.5895012E-015  0.9000768E+02  0.7816164E-02  0.1186339E+00
        -11   -1    0    0    0    0  0.00000000000E+00  0.00000000000E+00  0.45593999997E+02  0.45594000000E+02  0.51100000000E-03 0. -1.
         11   -1    0    0    0    0 -0.00000000000E+00 -0.00000000000E+00 -0.45593999997E+02  0.45594000000E+02  0.51100000000E-03 0.  1.
    9900012    2    1    2    0    0 -0.16480865319E+00  0.21450185113E+00  0.11489055815E+01  0.90007679293E+02  0.89999939860E+02 0.  0.
        -12    1    1    2    0    0  0.16480865319E+00 -0.21450185113E+00 -0.11489055815E+01  0.11803207070E+01  0.00000000000E+00 0.  1.
         11    1    3    3    0    0  0.89056964199E+01 -0.19801661656E+02  0.31312610709E+02  0.38103763892E+02  0.51100000000E-03 0. -1.
        -11    1    3    3    0    0 -0.43820646993E+01 -0.77039848661E+01  0.21013887980E+01  0.91087709921E+01  0.51100000000E-03 0.  1.
        -12    1    3    3    0    0 -0.46884403738E+01  0.27720148374E+02 -0.32265093925E+02  0.42795144409E+02  0.00000000000E+00 0.  1.
</event>
<event>
 7    1  0.4555057E-015  0.9000781E+02  0.7816164E-02  0.1186339E+00
        -11   -1    0    0    0    0  0.00000000000E+00  0.00000000000E+00  0.45593999997E+02  0.45594000000E+02  0.51100000000E-03 0.  1.
         11   -1    0    0    0    0 -0.00000000000E+00 -0.00000000000E+00 -0.45593999997E+02  0.45594000000E+02  0.51100000000E-03 0. -1.
    9900012    2    1    2    0    0 -0.79510852003E+00 -0.76014999434E+00 -0.42758041147E+00  0.90007809091E+02  0.90000071371E+02 0.  0.
        -12    1    1    2    0    0  0.79510852003E+00  0.76014999434E+00  0.42758041147E+00  0.11801909086E+01  0.00000000000E+00 0.  1.
         11    1    3    3    0    0  0.14441475581E+02  0.12397192345E+00 -0.10142934190E+02  0.17647965895E+02  0.51100000000E-03 0. -1.
        -11    1    3    3    0    0 -0.26586023236E+02  0.29004319155E+02  0.16137444284E+01  0.39378564378E+02  0.51100000000E-03 0.  1.
         12    1    3    3    0    0  0.11349439135E+02 -0.29888441073E+02  0.81016093499E+01  0.32981278818E+02  0.00000000000E+00 0. -1.
</event>
<event>
 7    1  0.4555057E-015  0.9000778E+02  0.7816164E-02  0.1186339E+00
        -11   -1    0    0    0    0  0.00000000000E+00  0.00000000000E+00  0.45593999997E+02  0.45594000000E+02  0.51100000000E-03 0. -1.
         11   -1    0    0    0    0 -0.00000000000E+00 -0.00000000000E+00 -0.45593999997E+02  0.45594000000E+02  0.51100000000E-03 0.  1.
    9900012    2    1    2    0    0 -0.11473996611E+01 -0.27111130541E+00 -0.53824084207E-01  0.90007777837E+02  0.90000039704E+02 0.  0.
        -12    1    1    2    0    0  0.11473996611E+01  0.27111130541E+00  0.53824084207E-01  0.11802221631E+01  0.00000000000E+00 0.  1.
         11    1    3    3    0    0  0.17631793663E+02 -0.45595942398E+01  0.34700336651E+02  0.39189072602E+02  0.51100000000E-03 0. -1.
        -11    1    3    3    0    0 -0.11021839515E+02 -0.14834234486E+01  0.32639524923E+01  0.11590292384E+02  0.51100000000E-03 0.  1.
        -12    1    3    3    0    0 -0.77573538096E+01  0.57719063830E+01 -0.38018113228E+02  0.39228412851E+02  0.00000000000E+00 0.  1.
</event>
<event>
 7    1  0.4555057E-015  0.9000776E+02  0.7816164E-02  0.1186339E+00
        -11   -1    0    0    0    0  0.00000000000E+00  0.00000000000E+00  0.45593999997E+02  0.45594000000E+02  0.51100000000E-03 0. -1.
         11   -1    0    0    0    0 -0.00000000000E+00 -0.00000000000E+00 -0.45593999997E+02  0.45594000000E+02  0.51100000000E-03 0.  1.
    9900012    2    1    2    0    0 -0.46508917580E+00  0.10696014472E+01  0.18060481337E+00  0.90007757103E+02  0.90000018697E+02 0.  0.
        -12    1    1    2    0    0  0.46508917580E+00 -0.10696014472E+01 -0.18060481337E+00  0.11802428970E+01  0.00000000000E+00 0.  1.
         11    1    3    3    0    0 -0.31681462975E+00  0.82203093801E+01  0.38423017146E+01  0.90794901036E+01  0.51100000000E-03 0. -1.
        -11    1    3    3    0    0  0.31754605069E+02  0.13460367234E+02 -0.19677205918E+02  0.39708045308E+02  0.51100000000E-03 0.  1.
         12    1    3    3    0    0 -0.31902879615E+02 -0.20611075167E+02  0.16015509017E+02  0.41220221692E+02  0.00000000000E+00 0. -1.
</event>
<event>
 7    1  0.4555057E-015  0.9000774E+02  0.7816164E-02  0.1186339E+00
        -11   -1    0    0    0    0  0.00000000000E+00  0.00000000000E+00  0.45593999997E+02  0.45594000000E+02  0.51100000000E-03 0.  1.
         11   -1    0    0    0    0 -0.00000000000E+00 -0.00000000000E+00 -0.45593999997E+02  0.45594000000E+02  0.51100000000E-03 0. -1.
    9900012    2    1    2    0    0 -0.99006877453E+00 -0.33303826657E+00 -0.54942117059E+00  0.90007739737E+02  0.90000001102E+02 0.  0.
        -12    1    1    2    0    0  0.99006877453E+00  0.33303826657E+00  0.54942117059E+00  0.11802602628E+01  0.00000000000E+00 0.  1.
         11    1    3    3    0    0  0.12784184195E+02 -0.50746550012E+01 -0.28533697359E+00  0.13757503639E+02  0.51100000000E-03 0. -1.
        -11    1    3    3    0    0 -0.35014072964E+02 -0.10999707369E+02  0.21033949966E+02  0.42301370180E+02  0.51100000000E-03 0.  1.
         12    1    3    3    0    0  0.21239819994E+02  0.15741324104E+02 -0.21298034163E+02  0.33948865918E+02  0.00000000000E+00 0. -1.
</event>
<event>
 7    1  0.4555057E-015  0.9000775E+02  0.7816164E-02  0.1186339E+00
        -11   -1    0    0    0    0  0.00000000000E+00  0.00000000000E+00  0.45593999997E+02  0.45594000000E+02  0.51100000000E-03 0. -1.
         11   -1    0    0    0    0 -0.00000000000E+00 -0.00000000000E+00 -0.45593999997E+02  0.45594000000E+02  0.51100000000E-03 0.  1.
    9900012    2    1    2    0    0  0.61766233558E+00 -0.72184227979E+00  0.70029773545E+00  0.90007754282E+02  0.90000015838E+02 0.  0.
        -12    1    1    2    0    0 -0.61766233558E+00  0.72184227979E+00 -0.70029773545E+00  0.11802457185E+01  0.00000000000E+00 0.  1.
         11    1    3    3    0    0 -0.53666175926E+01  0.23330111405E+02  0.33435275586E+02  0.41121920387E+02  0.51100000000E-03 0. -1.
        -11    1    3    3    0    0 -0.17554225562E+01 -0.14662421785E+02 -0.88850109895E+00  0.14793835048E+02  0.51100000000E-03 0.  1.
        -12    1    3    3    0    0  0.77397024844E+01 -0.93895318997E+01 -0.31846476752E+02  0.34091998846E+02  0.00000000000E+00 0.  1.
</event>
<event>
 7    1  0.4555057E-015  0.9000788E+02  0.7816164E-02  0.1186339E+00
        -11   -1    0    0    0    0  0.00000000000E+00  0.00000000000E+00  0.45593999997E+02  0.45594000000E+02  0.51100000000E-03 0. -1.
         11   -1    0    0    0    0 -0.00000000000E+00 -0.00000000000E+00 -0.45593999997E+02  0.45594000000E+02  0.51100000000E-03 0.  1.
    9900012    2    1    2    0    0 -0.53894638742E+00  0.41941404936E+00  0.96245370965E+00  0.90007877762E+02  0.90000140948E+02 0.  0.
        -12    1    1    2    0    0  0.53894638742E+00 -0.41941404936E+00 -0.96245370965E+00  0.11801222380E+01  0.00000000000E+00 0.  1.
         11    1    3    3    0    0  0.14354173183E+02 -0.27845470235E+02 -0.13863571699E+02  0.34258008128E+02  0.51100000000E-03 0. -1.
        -11    1    3    3    0    0  0.30265012715E+00  0.12314989215E+02 -0.14528722220E+02  0.19048210574E+02  0.51100000000E-03 0.  1.
        -12    1    3    3    0    0 -0.15195769698E+02  0.15949895070E+02  0.29354747629E+02  0.36701659060E+02  0.00000000000E+00 0.  1.
</event>
<event>
 7    1  0.4555057E-015  0.9000768E+02  0.7816164E-02  0.1186339E+00
        -11   -1    0    0    0    0  0.00000000000E+00  0.00000000000E+00  0.45593999997E+02  0.45594000000E+02  0.51100000000E-03 0.  1.
         11   -1    0    0    0    0 -0.00000000000E+00 -0.00000000000E+00 -0.45593999997E+02  0.45594000000E+02  0.51100000000E-03 0. -1.
    9900012    2    1    2    0    0 -0.81587663909E+00  0.82454017893E+00  0.21826700685E+00  0.90007677297E+02  0.89999937837E+02 0.  0.
        -12    1    1    2    0    0  0.81587663909E+00 -0.82454017893E+00 -0.21826700685E+00  0.11803227030E+01  0.00000000000E+00 0.  1.
         11    1    3    3    0    0  0.52490213666E+01  0.35975944141E+02  0.10386792379E+02  0.37811456443E+02  0.51100000000E-03 0. -1.
        -11    1    3    3    0    0  0.10962193081E+02 -0.25903345049E+00  0.27020650048E+01  0.11293269280E+02  0.51100000000E-03 0.  1.
        -12    1    3    3    0    0 -0.17027091087E+02 -0.34892370512E+02 -0.12870590377E+02  0.40902951574E+02  0.00000000000E+00 0.  1.
</event>
<event>
 7    1  0.4555057E-015  0.9000773E+02  0.7816164E-02  0.1186339E+00
        -11   -1    0    0    0    0  0.00000000000E+00  0.00000000000E+00  0.45593999997E+02  0.45594000000E+02  0.51100000000E-03 0. -1.
         11   -1    0    0    0    0 -0.00000000000E+00 -0.00000000000E+00 -0.45593999997E+02  0.45594000000E+02  0.51100000000E-03 0.  1.
    9900012    2    1    2    0    0 -0.88856517237E+00  0.46730873013E+00 -0.62056444932E+00  0.90007734881E+02  0.89999996182E+02 0.  0.
        -12    1    1    2    0    0  0.88856517237E+00 -0.46730873013E+00  0.62056444932E+00  0.11802651188E+01  0.00000000000E+00 0.  1.
         11    1    3    3    0    0 -0.61310648971E+01 -0.37051729955E+02  0.14697269757E+02  0.40329026619E+02  0.51100000000E-03 0. -1.
        -11    1    3    3    0    0 -0.43973322318E+01 -0.17247431880E+01 -0.69625314654E+01  0.84135672868E+01  0.51100000000E-03 0.  1.
        -12    1    3    3    0    0  0.96398319565E+01  0.39243781873E+02 -0.83553027407E+01  0.41265140976E+02  0.00000000000E+00 0.  1.
</event>
<event>
 7    1  0.4555057E-015  0.9000772E+02  0.7816164E-02  0.1186339E+00
        -11   -1    0    0    0    0  0.00000000000E+00  0.00000000000E+00  0.45593999997E+02  0.45594000000E+02  0.51100000000E-03 0.  1.
         11   -1    0    0    0    0 -0.00000000000E+00 -0.00000000000E+00 -0.45593999997E+02  0.45594000000E+02  0.51100000000E-03 0. -1.
    9900012    2    1    2    0    0 -0.10957502886E+01 -0.19964794316E+00 -0.39054950855E+00  0.90007721679E+02  0.89999982805E+02 0.  0.
        -12    1    1    2    0    0  0.10957502886E+01  0.19964794316E+00  0.39054950855E+00  0.11802783209E+01  0.00000000000E+00 0.  1.
         11    1    3    3    0    0  0.21225308893E+02 -0.12650866831E+01 -0.18514555167E+02  0.28194023041E+02  0.51100000000E-03 0. -1.
        -11    1    3    3    0    0 -0.72281803270E+01  0.20954366603E+02 -0.99039437357E+01  0.24277977106E+02  0.51100000000E-03 0.  1.
        -12    1    3    3    0    0 -0.15092878855E+02 -0.19888927863E+02  0.28027949395E+02  0.37535721532E+02  0.00000000000E+00 0.  1.
</event>
<event>
 7    1  0.4555057E-015  0.9000772E+02  0.7816164E-02  0.1186339E+00
        -11   -1    0    0    0    0  0.00000000000E+00  0.00000000000E+00  0.45593999997E+02  0.45594000000E+02  0.51100000000E-03 0.  1.
         11   -1    0    0    0    0 -0.00000000000E+00 -0.00000000000E+00 -0.45593999997E+02  0.45594000000E+02  0.51100000000E-03 0. -1.
    9900012    2    1    2    0    0 -0.73945444553E+00  0.44029062206E-01  0.91887320639E+00  0.90007720624E+02  0.89999981737E+02 0.  0.
        -12    1    1    2    0    0  0.73945444553E+00 -0.44029062206E-01 -0.91887320639E+00  0.11802793757E+01  0.00000000000E+00 0.  1.
         11    1    3    3    0    0 -0.11275584445E+01  0.21369028803E+01  0.11025683447E+02  0.11287313131E+02  0.51100000000E-03 0. -1.
        -11    1    3    3    0    0 -0.10073356280E+02  0.10300974412E+02  0.31187805091E+02  0.34354938032E+02  0.51100000000E-03 0.  1.
         12    1    3    3    0    0  0.10461460278E+02 -0.12393848230E+02 -0.41294615332E+02  0.44365469461E+02  0.00000000000E+00 0. -1.
</event>
<event>
 7    1  0.5634913E-015  0.9000773E+02  0.7816164E-02  0.1186339E+00
        -11   -1    0    0    0    0  0.00000000000E+00  0.00000000000E+00  0.45593999997E+02  0.45594000000E+02  0.51100000000E-03 0. -1.
         11   -1    0    0    0    0 -0.00000000000E+00 -0.00000000000E+00 -0.45593999997E+02  0.45594000000E+02  0.51100000000E-03 0.  1.
    9900012    2    1    2    0    0  0.70841099581E+00  0.94253443837E+00 -0.53011413962E-01  0.90007734133E+02  0.89999995424E+02 0.  0.
        -12    1    1    2    0    0 -0.70841099581E+00 -0.94253443837E+00  0.53011413962E-01  0.11802658669E+01  0.00000000000E+00 0.  1.
         11    1    3    3    0    0  0.91468129793E+01 -0.84354419979E+00  0.23010499550E+01  0.94694554042E+01  0.51100000000E-03 0. -1.
        -11    1    3    3    0    0  0.22945604807E+02  0.29472862504E+02  0.60869375498E+01  0.37844434374E+02  0.51100000000E-03 0.  1.
         12    1    3    3    0    0 -0.31384006790E+02 -0.27686783865E+02 -0.84409989188E+01  0.42693844355E+02  0.00000000000E+00 0. -1.
</event>
<event>
 7    1  0.4555057E-015  0.9000790E+02  0.7816164E-02  0.1186339E+00
        -11   -1    0    0    0    0  0.00000000000E+00  0.00000000000E+00  0.45593999997E+02  0.45594000000E+02  0.51100000000E-03 0.  1.
         11   -1    0    0    0    0 -0.00000000000E+00 -0.00000000000E+00 -0.45593999997E+02  0.45594000000E+02  0.51100000000E-03 0. -1.
    9900012    2    1    2    0    0 -0.10730265260E+00 -0.41421352476E+00 -0.10997969748E+01  0.90007898272E+02  0.90000161729E+02 0.  0.
        -12    1    1    2    0    0  0.10730265260E+00  0.41421352476E+00  0.10997969748E+01  0.11801017283E+01  0.00000000000E+00 0.  1.
         11    1    3    3    0    0 -0.32678873464E+02  0.26132144176E+02 -0.23416975846E+01  0.41908009711E+02  0.51100000000E-03 0. -1.
        -11    1    3    3    0    0  0.55261134622E+01 -0.74485343747E+00  0.83603693025E+01  0.10049304044E+02  0.51100000000E-03 0.  1.
        -12    1    3    3    0    0  0.27045457349E+02 -0.25801504263E+02 -0.71184686926E+01  0.38050584516E+02  0.00000000000E+00 0.  1.
</event>
<event>
 7    1  0.4555057E-015  0.9000775E+02  0.7816164E-02  0.1186339E+00
        -11   -1    0    0    0    0  0.00000000000E+00  0.00000000000E+00  0.45593999997E+02  0.45594000000E+02  0.51100000000E-03 0. -1.
         11   -1    0    0    0    0 -0.00000000000E+00 -0.00000000000E+00 -0.45593999997E+02  0.45594000000E+02  0.51100000000E-03 0.  1.
    9900012    2    1    2    0    0  0.49250249338E+00 -0.89633468809E+00 -0.58908521573E+00  0.90007747497E+02  0.90000008964E+02 0.  0.
        -12    1    1    2    0    0 -0.49250249338E+00  0.89633468809E+00  0.58908521573E+00  0.11802525028E+01  0.00000000000E+00 0.  1.
         11    1    3    3    0    0  0.75093012576E+01  0.67619576257E+00 -0.53474885742E+01  0.92435101774E+01  0.51100000000E-03 0. -1.
        -11    1    3    3    0    0  0.34860967123E+02  0.28868890005E+01 -0.95925485303E+01  0.36271726516E+02  0.51100000000E-03 0.  1.
         12    1    3    3    0    0 -0.41877765887E+02 -0.44594194512E+01  0.14350951889E+02  0.44492510804E+02  0.00000000000E+00 0. -1.
</event>
<event>
 7    1  0.4555057E-015  0.9000773E+02  0.7816164E-02  0.1186339E+00
        -11   -1    0    0    0    0  0.00000000000E+00  0.00000000000E+00  0.45593999997E+02  0.45594000000E+02  0.51100000000E-03 0.  1.
         11   -1    0    0    0    0 -0.00000000000E+00 -0.00000000000E+00 -0.45593999997E+02  0.45594000000E+02  0.51100000000E-03 0. -1.
    9900012    2    1    2    0    0 -0.11700266128E+01 -0.14720369942E+00 -0.48971057500E-01  0.90007733349E+02  0.89999994629E+02 0.  0.
        -12    1    1    2    0    0  0.11700266128E+01  0.14720369942E+00  0.48971057500E-01  0.11802666513E+01  0.00000000000E+00 0.  1.
         11    1    3    3    0    0  0.14641248243E+01 -0.10561193572E+02 -0.66416643934E+01  0.12561615236E+02  0.51100000000E-03 0. -1.
        -11    1    3    3    0    0  0.23411017760E+02 -0.23001096021E+02  0.11545406929E+02  0.34791128067E+02  0.51100000000E-03 0.  1.
         12    1    3    3    0    0 -0.26045169198E+02  0.33415085894E+02 -0.49527135935E+01  0.42654990045E+02  0.00000000000E+00 0. -1.
</event>
<event>
 7    1  0.4555057E-015  0.9000774E+02  0.7816164E-02  0.1186339E+00
        -11   -1    0    0    0    0  0.00000000000E+00  0.00000000000E+00  0.45593999997E+02  0.45594000000E+02  0.51100000000E-03 0.  1.
         11   -1    0    0    0    0 -0.00000000000E+00 -0.00000000000E+00 -0.45593999997E+02  0.45594000000E+02  0.51100000000E-03 0. -1.
    9900012    2    1    2    0    0  0.10835652100E+01 -0.72970965716E-01  0.46213872652E+00  0.90007741330E+02  0.90000002715E+02 0.  0.
        -12    1    1    2    0    0 -0.10835652100E+01  0.72970965716E-01 -0.46213872652E+00  0.11802586702E+01  0.00000000000E+00 0.  1.
         11    1    3    3    0    0 -0.44574186027E+01 -0.17065149263E+00  0.10402794731E+02  0.11318826839E+02  0.51100000000E-03 0. -1.
        -11    1    3    3    0    0  0.72007506246E+01 -0.38466513668E+02 -0.85847367776E+01  0.40065211707E+02  0.51100000000E-03 0.  1.
         12    1    3    3    0    0 -0.16597668119E+01  0.38564194195E+02 -0.13559192273E+01  0.38623702784E+02  0.00000000000E+00 0. -1.
</event>
<event>
 7    1  0.4555057E-015  0.9000801E+02  0.7816164E-02  0.1186338E+00
        -11   -1    0    0    0    0  0.00000000000E+00  0.00000000000E+00  0.45593999997E+02  0.45594000000E+02  0.51100000000E-03 0.  1.
         11   -1    0    0    0    0 -0.00000000000E+00 -0.00000000000E+00 -0.45593999997E+02  0.45594000000E+02  0.51100000000E-03 0. -1.
    9900012    2    1    2    0    0  0.10398757268E+01 -0.55543244088E+00 -0.50210412695E-01  0.90008013640E+02  0.90000278620E+02 0.  0.
        -12    1    1    2    0    0 -0.10398757268E+01  0.55543244088E+00  0.50210412695E-01  0.11799863597E+01  0.00000000000E+00 0.  1.
         11    1    3    3    0    0 -0.37502654699E+02  0.11191293780E+02  0.11140953294E+02  0.40691706852E+02  0.51100000000E-03 0. -1.
        -11    1    3    3    0    0  0.76559211718E+00 -0.58659182137E+00 -0.98556603273E+01  0.99027401260E+01  0.51100000000E-03 0.  1.
        -12    1    3    3    0    0  0.37776938308E+02 -0.11160134400E+02 -0.13355033799E+01  0.39413566663E+02  0.00000000000E+00 0.  1.
</event>
<event>
 7    1  0.4555057E-015  0.9000785E+02  0.7816164E-02  0.1186339E+00
        -11   -1    0    0    0    0  0.00000000000E+00  0.00000000000E+00  0.45593999997E+02  0.45594000000E+02  0.51100000000E-03 0. -1.
         11   -1    0    0    0    0 -0.00000000000E+00 -0.00000000000E+00 -0.45593999997E+02  0.45594000000E+02  0.51100000000E-03 0.  1.
    9900012    2    1    2    0    0  0.87278613757E+00 -0.53974894507E+00 -0.58280897405E+00  0.90007851337E+02  0.90000114175E+02 0.  0.
        -12    1    1    2    0    0 -0.87278613757E+00  0.53974894507E+00  0.58280897405E+00  0.11801486626E+01  0.00000000000E+00 0.  1.
         11    1    3    3    0    0 -0.57223511350E+01  0.41772211887E+01  0.12117106734E+01  0.71876785118E+01  0.51100000000E-03 0. -1.
        -11    1    3    3    0    0  0.31922076127E+02  0.22584761695E+02  0.15111732892E+02  0.41922009450E+02  0.51100000000E-03 0.  1.
         12    1    3    3    0    0 -0.25326938854E+02 -0.27301731828E+02 -0.16906252540E+02  0.40898163376E+02  0.00000000000E+00 0. -1.
</event>
<event>
 7    1  0.4555057E-015  0.9000774E+02  0.7816164E-02  0.1186339E+00
        -11   -1    0    0    0    0  0.00000000000E+00  0.00000000000E+00  0.45593999997E+02  0.45594000000E+02  0.51100000000E-03 0. -1.
         11   -1    0    0    0    0 -0.00000000000E+00 -0.00000000000E+00 -0.45593999997E+02  0.45594000000E+02  0.51100000000E-03 0.  1.
    9900012    2    1    2    0    0  0.39626826060E+00 -0.57732532016E+00 -0.95009127839E+00  0.90007743038E+02  0.90000004446E+02 0.  0.
        -12    1    1    2    0    0 -0.39626826060E+00  0.57732532016E+00  0.95009127839E+00  0.11802569622E+01  0.00000000000E+00 0.  1.
         11    1    3    3    0    0  0.59413453042E+01 -0.31707491402E+02  0.17510480710E+02  0.36705333808E+02  0.51100000000E-03 0. -1.
        -11    1    3    3    0    0  0.10697101530E+01 -0.91339478001E+01 -0.31583196115E+01  0.97235932276E+01  0.51100000000E-03 0.  1.
        -12    1    3    3    0    0 -0.66147871966E+01  0.40264113882E+02 -0.15302252377E+02  0.43578816002E+02  0.00000000000E+00 0.  1.
</event>
<event>
 7    1  0.4555057E-015  0.9000772E+02  0.7816164E-02  0.1186339E+00
        -11   -1    0    0    0    0  0.00000000000E+00  0.00000000000E+00  0.45593999997E+02  0.45594000000E+02  0.51100000000E-03 0.  1.
         11   -1    0    0    0    0 -0.00000000000E+00 -0.00000000000E+00 -0.45593999997E+02  0.45594000000E+02  0.51100000000E-03 0. -1.
    9900012    2    1    2    0    0  0.23542139766E+00 -0.10919246553E+01 -0.38124565537E+00  0.90007715739E+02  0.89999976787E+02 0.  0.
        -12    1    1    2    0    0 -0.23542139766E+00  0.10919246553E+01  0.38124565537E+00  0.11802842611E+01  0.00000000000E+00 0.  1.
         11    1    3    3    0    0  0.22956085932E+02 -0.23128127581E+02 -0.72159138247E+01  0.33376062969E+02  0.51100000000E-03 0. -1.
        -11    1    3    3    0    0  0.12048609931E+02 -0.33774541686E+01  0.51512752786E+01  0.13531882174E+02  0.51100000000E-03 0.  1.
        -12    1    3    3    0    0 -0.34769274465E+02  0.25413657095E+02  0.16833928908E+01  0.43099770595E+02  0.00000000000E+00 0.  1.
</event>
<event>
 7    1  0.4555057E-015  0.9000769E+02  0.7816164E-02  0.1186339E+00
        -11   -1    0    0    0    0  0.00000000000E+00  0.00000000000E+00  0.45593999997E+02  0.45594000000E+02  0.51100000000E-03 0.  1.
         11   -1    0    0    0    0 -0.00000000000E+00 -0.00000000000E+00 -0.45593999997E+02  0.45594000000E+02  0.51100000000E-03 0. -1.
    9900012    2    1    2    0    0 -0.30183689015E+00  0.75215341630E-01 -0.11385833494E+01  0.90007688643E+02  0.89999949333E+02 0.  0.
        -12    1    1    2    0    0  0.30183689015E+00 -0.75215341630E-01  0.11385833494E+01  0.11803113570E+01  0.00000000000E+00 0.  1.
         11    1    3    3    0    0 -0.91862519934E+01 -0.15403731950E+01 -0.32246028420E+01  0.98568777519E+01  0.51100000000E-03 0. -1.
        -11    1    3    3    0    0  0.29438974463E+01  0.40573739868E+02  0.22403206858E+01  0.40742041384E+02  0.51100000000E-03 0.  1.
         12    1    3    3    0    0  0.59405176570E+01 -0.38958151332E+02 -0.15430119317E+00  0.39408769507E+02  0.00000000000E+00 0. -1.
</event>
<event>
 7    1  0.4555057E-015  0.9000743E+02  0.7816164E-02  0.1186340E+00
        -11   -1    0    0    0    0  0.00000000000E+00  0.00000000000E+00  0.45593999997E+02  0.45594000000E+02  0.51100000000E-03 0. -1.
         11   -1    0    0    0    0 -0.00000000000E+00 -0.00000000000E+00 -0.45593999997E+02  0.45594000000E+02  0.51100000000E-03 0.  1.
    9900012    2    1    2    0    0  0.91928031545E+00  0.43533952500E+00  0.59929031764E+00  0.90007429932E+02  0.89999687207E+02 0.  0.
        -12    1    1    2    0    0 -0.91928031545E+00 -0.43533952500E+00 -0.59929031764E+00  0.11805700679E+01  0.00000000000E+00 0.  1.
         11    1    3    3    0    0  0.36823152220E+02  0.68836522870E+01 -0.11402226706E+02  0.39157885315E+02  0.51100000000E-03 0. -1.
        -11    1    3    3    0    0 -0.63182839885E+00 -0.86356257028E+01 -0.66240699251E+01  0.10901905386E+02  0.51100000000E-03 0.  1.
        -12    1    3    3    0    0 -0.35272043506E+02  0.21873129408E+01  0.18625586948E+02  0.39947639231E+02  0.00000000000E+00 0.  1.
</event>
<event>
 7    1  0.4555057E-015  0.9000773E+02  0.7816164E-02  0.1186339E+00
        -11   -1    0    0    0    0  0.00000000000E+00  0.00000000000E+00  0.45593999997E+02  0.45594000000E+02  0.51100000000E-03 0.  1.
         11   -1    0    0    0    0 -0.00000000000E+00 -0.00000000000E+00 -0.45593999997E+02  0.45594000000E+02  0.51100000000E-03 0. -1.
    9900012    2    1    2    0    0 -0.15076915878E+00  0.31121872596E+00 -0.11284694510E+01  0.90007732345E+02  0.89999993612E+02 0.  0.
        -12    1    1    2    0    0  0.15076915878E+00 -0.31121872596E+00  0.11284694510E+01  0.11802676546E+01  0.00000000000E+00 0.  1.
         11    1    3    3    0    0  0.20480799626E+02  0.13462517592E+02 -0.29862929294E+02  0.38632849746E+02  0.51100000000E-03 0. -1.
        -11    1    3    3    0    0  0.28754853835E+01  0.90415311686E+01  0.26925723639E+01  0.98624362233E+01  0.51100000000E-03 0.  1.
        -12    1    3    3    0    0 -0.23507054169E+02 -0.22192830034E+02  0.26041887479E+02  0.41512446376E+02  0.00000000000E+00 0.  1.
</event>
<event>
 7    1  0.4555057E-015  0.9000661E+02  0.7816164E-02  0.1186341E+00
        -11   -1    0    0    0    0  0.00000000000E+00  0.00000000000E+00  0.45593999997E+02  0.45594000000E+02  0.51100000000E-03 0.  1.
         11   -1    0    0    0    0 -0.00000000000E+00 -0.00000000000E+00 -0.45593999997E+02  0.45594000000E+02  0.51100000000E-03 0. -1.
    9900012    2    1    2    0    0 -0.11248017498E+01 -0.33539245886E+00  0.13425862041E+00  0.90006605716E+02  0.89998852104E+02 0.  0.
        -12    1    1    2    0    0  0.11248017498E+01  0.33539245886E+00 -0.13425862041E+00  0.11813942843E+01  0.00000000000E+00 0.  1.
         11    1    3    3    0    0  0.24198709738E+02  0.19280299021E+02 -0.14318519815E+01  0.30973499700E+02  0.51100000000E-03 0. -1.
        -11    1    3    3    0    0 -0.54810646634E+01 -0.31924305340E+01  0.24031828739E+02  0.24854828009E+02  0.51100000000E-03 0.  1.
         12    1    3    3    0    0 -0.19842446825E+02 -0.16423260945E+02 -0.22465718137E+02  0.34178278006E+02  0.00000000000E+00 0. -1.
</event>
<event>
 7    1  0.4555057E-015  0.9000776E+02  0.7816164E-02  0.1186339E+00
        -11   -1    0    0    0    0  0.00000000000E+00  0.00000000000E+00  0.45593999997E+02  0.45594000000E+02  0.51100000000E-03 0.  1.
         11   -1    0    0    0    0 -0.00000000000E+00 -0.00000000000E+00 -0.45593999997E+02  0.45594000000E+02  0.51100000000E-03 0. -1.
    9900012    2    1    2    0    0  0.30595028433E+00  0.10929856178E+01  0.32363991429E+00  0.90007760223E+02  0.90000021858E+02 0.  0.
        -12    1    1    2    0    0 -0.30595028433E+00 -0.10929856178E+01 -0.32363991429E+00  0.11802397771E+01  0.00000000000E+00 0.  1.
         11    1    3    3    0    0  0.20127409439E+01 -0.13132461869E+02 -0.66699464226E+01  0.14866097887E+02  0.51100000000E-03 0. -1.
        -11    1    3    3    0    0 -0.28390313109E+02 -0.41558037607E+01 -0.18303858858E+02  0.34033980559E+02  0.51100000000E-03 0.  1.
         12    1    3    3    0    0  0.26683522449E+02  0.18381251247E+02  0.25297445195E+02  0.41107681777E+02  0.00000000000E+00 0. -1.
</event>
<event>
 7    1  0.4555057E-015  0.9000770E+02  0.7816164E-02  0.1186339E+00
        -11   -1    0    0    0    0  0.00000000000E+00  0.00000000000E+00  0.45593999997E+02  0.45594000000E+02  0.51100000000E-03 0. -1.
         11   -1    0    0    0    0 -0.00000000000E+00 -0.00000000000E+00 -0.45593999997E+02  0.45594000000E+02  0.51100000000E-03 0.  1.
    9900012    2    1    2    0    0 -0.85354777255E+00  0.56023673142E+00  0.59218966349E+00  0.90007704447E+02  0.89999965346E+02 0.  0.
        -12    1    1    2    0    0  0.85354777255E+00 -0.56023673142E+00 -0.59218966349E+00  0.11802955532E+01  0.00000000000E+00 0.  1.
         11    1    3    3    0    0 -0.13853754453E+02  0.15390758348E+02  0.24010367812E+02  0.31706461766E+02  0.51100000000E-03 0. -1.
        -11    1    3    3    0    0  0.88130732687E+01  0.12643872905E+02  0.71482312289E+01  0.16989261092E+02  0.51100000000E-03 0.  1.
        -12    1    3    3    0    0  0.41871334118E+01 -0.27474394522E+02 -0.30566409378E+02  0.41311981589E+02  0.00000000000E+00 0.  1.
</event>
<event>
 7    1  0.4555057E-015  0.9000762E+02  0.7816164E-02  0.1186339E+00
        -11   -1    0    0    0    0  0.00000000000E+00  0.00000000000E+00  0.45593999997E+02  0.45594000000E+02  0.51100000000E-03 0.  1.
         11   -1    0    0    0    0 -0.00000000000E+00 -0.00000000000E+00 -0.45593999997E+02  0.45594000000E+02  0.51100000000E-03 0. -1.
    9900012    2    1    2    0    0 -0.41377324999E+00  0.10393542157E+01 -0.37659063951E+00  0.90007624637E+02  0.89999884482E+02 0.  0.
        -12    1    1    2    0    0  0.41377324999E+00 -0.10393542157E+01  0.37659063951E+00  0.11803753631E+01  0.00000000000E+00 0.  1.
         11    1    3    3    0    0  0.29940632004E+01 -0.11807109524E+02  0.64234137639E+01  0.13770711470E+02  0.51100000000E-03 0. -1.
        -11    1    3    3    0    0 -0.23368403930E+02  0.36769754918E+02  0.27372542694E+01  0.43653061063E+02  0.51100000000E-03 0.  1.
         12    1    3    3    0    0  0.19960567479E+02 -0.23923291179E+02 -0.95372586728E+01  0.32583852104E+02  0.00000000000E+00 0. -1.
</event>
<event>
 7    1  0.4555057E-015  0.9000776E+02  0.7816164E-02  0.1186339E+00
        -11   -1    0    0    0    0  0.00000000000E+00  0.00000000000E+00  0.45593999997E+02  0.45594000000E+02  0.51100000000E-03 0.  1.
         11   -1    0    0    0    0 -0.00000000000E+00 -0.00000000000E+00 -0.45593999997E+02  0.45594000000E+02  0.51100000000E-03 0. -1.
    9900012    2    1    2    0    0  0.11237232691E+01  0.10219874149E+00 -0.34606151348E+00  0.90007763948E+02  0.90000025632E+02 0.  0.
        -12    1    1    2    0    0 -0.11237232691E+01 -0.10219874149E+00  0.34606151348E+00  0.11802360524E+01  0.00000000000E+00 0.  1.
         11    1    3    3    0    0  0.63739759122E+01  0.50247604200E+01 -0.57150580173E+01  0.99266144586E+01  0.51100000000E-03 0. -1.
        -11    1    3    3    0    0  0.23186489643E+02  0.27765473930E+02  0.64364726645E+01  0.36741842974E+02  0.51100000000E-03 0.  1.
         12    1    3    3    0    0 -0.28436742286E+02 -0.32688035609E+02 -0.10674761607E+01  0.43339306515E+02  0.00000000000E+00 0. -1.
</event>
<event>
 7    1  0.4555057E-015  0.9000772E+02  0.7816164E-02  0.1186339E+00
        -11   -1    0    0    0    0  0.00000000000E+00  0.00000000000E+00  0.45593999997E+02  0.45594000000E+02  0.51100000000E-03 0. -1.
         11   -1    0    0    0    0 -0.00000000000E+00 -0.00000000000E+00 -0.45593999997E+02  0.45594000000E+02  0.51100000000E-03 0.  1.
    9900012    2    1    2    0    0 -0.10063323257E+01  0.53122005689E+00  0.31332478592E+00  0.90007715322E+02  0.89999976365E+02 0.  0.
        -12    1    1    2    0    0  0.10063323257E+01 -0.53122005689E+00 -0.31332478592E+00  0.11802846776E+01  0.00000000000E+00 0.  1.
         11    1    3    3    0    0 -0.72729297019E+01 -0.44293083677E+01  0.25092968566E+02  0.26498516011E+02  0.51100000000E-03 0. -1.
        -11    1    3    3    0    0 -0.17986408046E+01  0.20271864721E+02  0.11455182950E+02  0.23353903842E+02  0.51100000000E-03 0.  1.
         12    1    3    3    0    0  0.80652381807E+01 -0.15311336296E+02 -0.36234826730E+02  0.40155295469E+02  0.00000000000E+00 0. -1.
</event>
<event>
 7    1  0.4555057E-015  0.9000767E+02  0.7816164E-02  0.1186339E+00
        -11   -1    0    0    0    0  0.00000000000E+00  0.00000000000E+00  0.45593999997E+02  0.45594000000E+02  0.51100000000E-03 0.  1.
         11   -1    0    0    0    0 -0.00000000000E+00 -0.00000000000E+00 -0.45593999997E+02  0.45594000000E+02  0.51100000000E-03 0. -1.
    9900012    2    1    2    0    0  0.91802738632E+00 -0.83752774208E-01 -0.73714981410E+00  0.90007670106E+02  0.89999930552E+02 0.  0.
        -12    1    1    2    0    0 -0.91802738632E+00  0.83752774208E-01  0.73714981410E+00  0.11803298936E+01  0.00000000000E+00 0.  1.
         11    1    3    3    0    0  0.20403195444E+02  0.20899877949E+02 -0.33515543170E+02  0.44456573382E+02  0.51100000000E-03 0. -1.
        -11    1    3    3    0    0 -0.79853224245E+01 -0.51713843947E+01  0.30898746901E+01  0.10002795441E+02  0.51100000000E-03 0.  1.
        -12    1    3    3    0    0 -0.11499845633E+02 -0.15812246328E+02  0.29688518666E+02  0.35548301283E+02  0.00000000000E+00 0.  1.
</event>
<event>
 8    1  0.4555057E-015  0.9000779E+02  0.7816164E-02  0.1186339E+00
        -11   -1    0    0    0    0  0.00000000000E+00  0.00000000000E+00  0.45593999997E+02  0.45594000000E+02  0.51100000000E-03 0. -1.
         11   -1    0    0    0    0 -0.00000000000E+00 -0.00000000000E+00 -0.45593999997E+02  0.45594000000E+02  0.51100000000E-03 0.  1.
    9900012    2    1    2    0    0  0.98239509148E+00 -0.64967185300E+00  0.75607259858E-01  0.90007792353E+02  0.90000054412E+02 0.  0.
         23    2    3    3    0    0 -0.21580327044E+02 -0.11537062431E+02  0.60548345151E+01  0.64251960736E+02  0.59100246298E+02 0.  0.
        -12    1    1    2    0    0 -0.98239509148E+00  0.64967185300E+00 -0.75607259858E-01  0.11802076470E+01  0.00000000000E+00 0.  1.
         11    1    4    4    0    0  0.16245259750E+02 -0.39586788705E+01  0.17309419745E+02  0.24066483227E+02  0.51100000000E-03 0. -1.
        -11    1    4    4    0    0 -0.37825586793E+02 -0.75783835601E+01 -0.11254585230E+02  0.40185477509E+02  0.51100000000E-03 0.  1.
         12    1    3    3    0    0  0.22562722135E+02  0.10887390578E+02 -0.59792272553E+01  0.25755831617E+02  0.00000000000E+00 0. -1.
</event>
<event>
 7    1  0.4555057E-015  0.9000772E+02  0.7816164E-02  0.1186339E+00
        -11   -1    0    0    0    0  0.00000000000E+00  0.00000000000E+00  0.45593999997E+02  0.45594000000E+02  0.51100000000E-03 0. -1.
         11   -1    0    0    0    0 -0.00000000000E+00 -0.00000000000E+00 -0.45593999997E+02  0.45594000000E+02  0.51100000000E-03 0.  1.
    9900012    2    1    2    0    0 -0.23956367473E+00  0.11455662489E+01 -0.15278432555E+00  0.90007722137E+02  0.89999983269E+02 0.  0.
        -12    1    1    2    0    0  0.23956367473E+00 -0.11455662489E+01  0.15278432555E+00  0.11802778635E+01  0.00000000000E+00 0.  1.
         11    1    3    3    0    0 -0.24195279108E+02  0.30382582453E+02  0.35011168143E+00  0.38841156343E+02  0.51100000000E-03 0. -1.
        -11    1    3    3    0    0  0.52768771719E+01  0.59489133017E+01 -0.72521160980E+01  0.10762350594E+02  0.51100000000E-03 0.  1.
        -12    1    3    3    0    0  0.18678838262E+02 -0.35185929506E+02  0.67492200910E+01  0.40404215199E+02  0.00000000000E+00 0.  1.
</event>
<event>
 7    1  0.4555057E-015  0.9000780E+02  0.7816164E-02  0.1186339E+00
        -11   -1    0    0    0    0  0.00000000000E+00  0.00000000000E+00  0.45593999997E+02  0.45594000000E+02  0.51100000000E-03 0. -1.
         11   -1    0    0    0    0 -0.00000000000E+00 -0.00000000000E+00 -0.45593999997E+02  0.45594000000E+02  0.51100000000E-03 0.  1.
    9900012    2    1    2    0    0  0.90143598187E+00 -0.70828358975E+00 -0.28039719107E+00  0.90007798722E+02  0.90000060865E+02 0.  0.
        -12    1    1    2    0    0 -0.90143598187E+00  0.70828358975E+00  0.28039719107E+00  0.11802012785E+01  0.00000000000E+00 0.  1.
         11    1    3    3    0    0 -0.57883399379E+01 -0.58935162742E+01  0.14565086792E+01  0.83880767226E+01  0.51100000000E-03 0. -1.
        -11    1    3    3    0    0 -0.17173405745E+02 -0.31113635545E+02 -0.11001682249E+02  0.37202435327E+02  0.51100000000E-03 0.  1.
         12    1    3    3    0    0  0.23863181665E+02  0.36298868229E+02  0.92647763792E+01  0.44417286672E+02  0.00000000000E+00 0. -1.
</event>
<event>
 7    1  0.4555057E-015  0.9000760E+02  0.7816164E-02  0.1186339E+00
        -11   -1    0    0    0    0  0.00000000000E+00  0.00000000000E+00  0.45593999997E+02  0.45594000000E+02  0.51100000000E-03 0.  1.
         11   -1    0    0    0    0 -0.00000000000E+00 -0.00000000000E+00 -0.45593999997E+02  0.45594000000E+02  0.51100000000E-03 0. -1.
    9900012    2    1    2    0    0  0.53494051781E+00 -0.10522268429E+01  0.14559001024E-02  0.90007599726E+02  0.89999859243E+02 0.  0.
        -12    1    1    2    0    0 -0.53494051781E+00  0.10522268429E+01 -0.14559001024E-02  0.11804002737E+01  0.00000000000E+00 0.  1.
         11    1    3    3    0    0 -0.15626538348E+01 -0.56947336125E+01  0.12887520327E+02  0.14176038176E+02  0.51100000000E-03 0. -1.
        -11    1    3    3    0    0 -0.26596772836E+01 -0.11678137696E+02  0.28595070978E+02  0.31002110699E+02  0.51100000000E-03 0.  1.
         12    1    3    3    0    0  0.47572716362E+01  0.16320644466E+02 -0.41481135404E+02  0.44829450852E+02  0.00000000000E+00 0. -1.
</event>
<event>
 7    1  0.4555057E-015  0.9000814E+02  0.7816164E-02  0.1186338E+00
        -11   -1    0    0    0    0  0.00000000000E+00  0.00000000000E+00  0.45593999997E+02  0.45594000000E+02  0.51100000000E-03 0.  1.
         11   -1    0    0    0    0 -0.00000000000E+00 -0.00000000000E+00 -0.45593999997E+02  0.45594000000E+02  0.51100000000E-03 0. -1.
    9900012    2    1    2    0    0  0.10737558547E+01  0.46507860229E+00  0.15104862540E+00  0.90008141776E+02  0.90000408446E+02 0.  0.
        -12    1    1    2    0    0 -0.10737558547E+01 -0.46507860229E+00 -0.15104862540E+00  0.11798582242E+01  0.00000000000E+00 0.  1.
         11    1    3    3    0    0 -0.11274113388E+01  0.88013272624E+00 -0.84815541609E+01  0.86013052026E+01  0.51100000000E-03 0. -1.
        -11    1    3    3    0    0  0.34907863286E+02 -0.19317190774E+02 -0.70330993298E+01  0.40511446099E+02  0.51100000000E-03 0.  1.
         12    1    3    3    0    0 -0.32706696093E+02  0.18902136650E+02  0.15665702116E+02  0.40895390474E+02  0.00000000000E+00 0. -1.
</event>
<event>
 7    1  0.4555057E-015  0.9000768E+02  0.7816164E-02  0.1186339E+00
        -11   -1    0    0    0    0  0.00000000000E+00  0.00000000000E+00  0.45593999997E+02  0.45594000000E+02  0.51100000000E-03 0.  1.
         11   -1    0    0    0    0 -0.00000000000E+00 -0.00000000000E+00 -0.45593999997E+02  0.45594000000E+02  0.51100000000E-03 0. -1.
    9900012    2    1    2    0    0 -0.19766556074E+00  0.11592394558E+01  0.10124370593E+00  0.90007678824E+02  0.89999939385E+02 0.  0.
        -12    1    1    2    0    0  0.19766556074E+00 -0.11592394558E+01 -0.10124370593E+00  0.11803211756E+01  0.00000000000E+00 0.  1.
         11    1    3    3    0    0 -0.45266527147E+00  0.10729019015E+02  0.32465385411E+01  0.11218590270E+02  0.51100000000E-03 0. -1.
        -11    1    3    3    0    0  0.35914439612E+02 -0.32669958840E+01 -0.17188160796E+02  0.39949381804E+02  0.51100000000E-03 0.  1.
         12    1    3    3    0    0 -0.35659439901E+02 -0.63027836754E+01  0.14042865961E+02  0.38839706751E+02  0.00000000000E+00 0. -1.
</event>
<event>
 7    1  0.4555057E-015  0.9000770E+02  0.7816164E-02  0.1186339E+00
        -11   -1    0    0    0    0  0.00000000000E+00  0.00000000000E+00  0.45593999997E+02  0.45594000000E+02  0.51100000000E-03 0.  1.
         11   -1    0    0    0    0 -0.00000000000E+00 -0.00000000000E+00 -0.45593999997E+02  0.45594000000E+02  0.51100000000E-03 0. -1.
    9900012    2    1    2    0    0  0.83943384540E+00 -0.31831875278E+00 -0.76624166938E+00  0.90007702451E+02  0.89999963323E+02 0.  0.
        -12    1    1    2    0    0 -0.83943384540E+00  0.31831875278E+00  0.76624166938E+00  0.11802975494E+01  0.00000000000E+00 0.  1.
         11    1    3    3    0    0  0.97674284930E+01 -0.19790722612E+02 -0.30463883011E+02  0.37618127668E+02  0.51100000000E-03 0. -1.
        -11    1    3    3    0    0  0.17876880568E+01 -0.98805672312E+01  0.12252426841E+01  0.10115466242E+02  0.51100000000E-03 0.  1.
        -12    1    3    3    0    0 -0.10715682704E+02  0.29352971090E+02  0.28472398657E+02  0.42274108541E+02  0.00000000000E+00 0.  1.
</event>
<event>
 7    1  0.4555057E-015  0.9000744E+02  0.7816164E-02  0.1186340E+00
        -11   -1    0    0    0    0  0.00000000000E+00  0.00000000000E+00  0.45593999997E+02  0.45594000000E+02  0.51100000000E-03 0. -1.
         11   -1    0    0    0    0 -0.00000000000E+00 -0.00000000000E+00 -0.45593999997E+02  0.45594000000E+02  0.51100000000E-03 0.  1.
    9900012    2    1    2    0    0 -0.29419726629E+00  0.10120643127E+01  0.53188262919E+00  0.90007438551E+02  0.89999695939E+02 0.  0.
        -12    1    1    2    0    0  0.29419726629E+00 -0.10120643127E+01 -0.53188262919E+00  0.11805614494E+01  0.00000000000E+00 0.  1.
         11    1    3    3    0    0 -0.13684228413E+02 -0.61443095583E+01 -0.41842595336E+01  0.15573011119E+02  0.51100000000E-03 0. -1.
        -11    1    3    3    0    0 -0.28890505830E+02 -0.66483420398E+01 -0.51992920375E+00  0.29650161983E+02  0.51100000000E-03 0.  1.
         12    1    3    3    0    0  0.42280536977E+02  0.13804715911E+02  0.52360713665E+01  0.44784265449E+02  0.00000000000E+00 0. -1.
</event>
<event>
 7    1  0.4555057E-015  0.9000759E+02  0.7816164E-02  0.1186339E+00
        -11   -1    0    0    0    0  0.00000000000E+00  0.00000000000E+00  0.45593999997E+02  0.45594000000E+02  0.51100000000E-03 0. -1.
         11   -1    0    0    0    0 -0.00000000000E+00 -0.00000000000E+00 -0.45593999997E+02  0.45594000000E+02  0.51100000000E-03 0.  1.
    9900012    2    1    2    0    0  0.10205958630E+01 -0.55400378707E+00  0.21171167657E+00  0.90007594161E+02  0.89999853603E+02 0.  0.
        -12    1    1    2    0    0 -0.10205958630E+01  0.55400378707E+00 -0.21171167657E+00  0.11804058394E+01  0.00000000000E+00 0.  1.
         11    1    3    3    0    0 -0.29329496350E+02 -0.75483888147E+01  0.24611386570E+02  0.39024580447E+02  0.51100000000E-03 0. -1.
        -11    1    3    3    0    0 -0.19789836494E+00 -0.36522969864E+01  0.57151248544E+01  0.67853584579E+01  0.51100000000E-03 0.  1.
        -12    1    3    3    0    0  0.30547990578E+02  0.10646682014E+02 -0.30114799748E+02  0.44197655256E+02  0.00000000000E+00 0.  1.
</event>
<event>
 7    1  0.4555057E-015  0.9000779E+02  0.7816164E-02  0.1186339E+00
        -11   -1    0    0    0    0  0.00000000000E+00  0.00000000000E+00  0.45593999997E+02  0.45594000000E+02  0.51100000000E-03 0.  1.
         11   -1    0    0    0    0 -0.00000000000E+00 -0.00000000000E+00 -0.45593999997E+02  0.45594000000E+02  0.51100000000E-03 0. -1.
    9900012    2    1    2    0    0 -0.10793687329E+00 -0.66004632524E+00 -0.97241462507E+00  0.90007787425E+02  0.90000049419E+02 0.  0.
        -12    1    1    2    0    0  0.10793687329E+00  0.66004632524E+00  0.97241462507E+00  0.11802125754E+01  0.00000000000E+00 0.  1.
         11    1    3    3    0    0 -0.38050062728E+02  0.27049667150E+01  0.11115286460E+01  0.38162279999E+02  0.51100000000E-03 0. -1.
        -11    1    3    3    0    0 -0.35920066363E+01 -0.70687675769E+01 -0.60282806709E+01  0.99604294505E+01  0.51100000000E-03 0.  1.
        -12    1    3    3    0    0  0.41534132491E+02  0.37037545366E+01  0.39443373998E+01  0.41885077975E+02  0.00000000000E+00 0.  1.
</event>
<event>
 7    1  0.4555057E-015  0.9000778E+02  0.7816164E-02  0.1186339E+00
        -11   -1    0    0    0    0  0.00000000000E+00  0.00000000000E+00  0.45593999997E+02  0.45594000000E+02  0.51100000000E-03 0. -1.
         11   -1    0    0    0    0 -0.00000000000E+00 -0.00000000000E+00 -0.45593999997E+02  0.45594000000E+02  0.51100000000E-03 0.  1.
    9900012    2    1    2    0    0 -0.15600270408E+00  0.61439586587E-01  0.11682510090E+01  0.90007778798E+02  0.90000040678E+02 0.  0.
        -12    1    1    2    0    0  0.15600270408E+00 -0.61439586587E-01 -0.11682510090E+01  0.11802212024E+01  0.00000000000E+00 0.  1.
         11    1    3    3    0    0 -0.67521886349E+00 -0.94515008395E+01 -0.30669455626E+00  0.94805511678E+01  0.51100000000E-03 0. -1.
        -11    1    3    3    0    0 -0.65000009947E+01 -0.27326499882E+02  0.23857666216E+02  0.36853437373E+02  0.51100000000E-03 0.  1.
         12    1    3    3    0    0  0.70192171541E+01  0.36839440308E+02 -0.22382720651E+02  0.43673790256E+02  0.00000000000E+00 0. -1.
</event>
<event>
 7    1  0.6113676E-015  0.9000767E+02  0.7816164E-02  0.1186339E+00
        -11   -1    0    0    0    0  0.00000000000E+00  0.00000000000E+00  0.45593999997E+02  0.45594000000E+02  0.51100000000E-03 0. -1.
         11   -1    0    0    0    0 -0.00000000000E+00 -0.00000000000E+00 -0.45593999997E+02  0.45594000000E+02  0.51100000000E-03 0.  1.
    9900012    2    1    2    0    0 -0.80229942306E+00 -0.16256389308E+00  0.85033252766E+00  0.90007670897E+02  0.89999931353E+02 0.  0.
        -12    1    1    2    0    0  0.80229942306E+00  0.16256389308E+00 -0.85033252766E+00  0.11803291029E+01  0.00000000000E+00 0.  1.
         11    1    3    3    0    0 -0.41548573682E+01 -0.83064515581E+01 -0.14948245081E+01  0.94071503554E+01  0.51100000000E-03 0. -1.
        -11    1    3    3    0    0 -0.73043582661E+00  0.20333480954E+02 -0.35342438008E+02  0.40780778668E+02  0.51100000000E-03 0.  1.
         12    1    3    3    0    0  0.40829937717E+01 -0.12189593289E+02  0.37687595044E+02  0.39819741873E+02  0.00000000000E+00 0. -1.
</event>
<event>
 7    1  0.6521859E-015  0.9000779E+02  0.7816164E-02  0.1186339E+00
        -11   -1    0    0    0    0  0.00000000000E+00  0.00000000000E+00  0.45593999997E+02  0.45594000000E+02  0.51100000000E-03 0. -1.
         11   -1    0    0    0    0 -0.00000000000E+00 -0.00000000000E+00 -0.45593999997E+02  0.45594000000E+02  0.51100000000E-03 0.  1.
    9900012    2    1    2    0    0 -0.78440888670E-01 -0.11218091324E+01  0.35816329784E+00  0.90007792539E+02  0.90000054601E+02 0.  0.
        -12    1    1    2    0    0  0.78440888670E-01  0.11218091324E+01 -0.35816329784E+00  0.11802074608E+01  0.00000000000E+00 0.  1.
         11    1    3    3    0    0 -0.38095730071E+01 -0.80491894530E+01  0.10181374252E+01  0.89631970538E+01  0.51100000000E-03 0. -1.
        -11    1    3    3    0    0 -0.16998475567E+02  0.90061910933E+01 -0.35542350090E+02  0.40414332851E+02  0.51100000000E-03 0.  1.
         12    1    3    3    0    0  0.20729607685E+02 -0.20788107727E+01  0.34882375962E+02  0.40630262635E+02  0.00000000000E+00 0. -1.
</event>
<event>
 7    1  0.4555057E-015  0.9000773E+02  0.7816164E-02  0.1186339E+00
        -11   -1    0    0    0    0  0.00000000000E+00  0.00000000000E+00  0.45593999997E+02  0.45594000000E+02  0.51100000000E-03 0.  1.
         11   -1    0    0    0    0 -0.00000000000E+00 -0.00000000000E+00 -0.45593999997E+02  0.45594000000E+02  0.51100000000E-03 0. -1.
    9900012    2    1    2    0    0 -0.10211066082E+01 -0.57932973727E+00  0.12142848760E+00  0.90007734552E+02  0.89999995848E+02 0.  0.
        -12    1    1    2    0    0  0.10211066082E+01  0.57932973727E+00 -0.12142848760E+00  0.11802654479E+01  0.00000000000E+00 0.  1.
         11    1    3    3    0    0 -0.11580658268E+02  0.53768070345E+00  0.74413531862E+01  0.13775865997E+02  0.51100000000E-03 0. -1.
        -11    1    3    3    0    0  0.28516285102E+02  0.20408788913E+02  0.17137025040E+02  0.39030434386E+02  0.51100000000E-03 0.  1.
         12    1    3    3    0    0 -0.17956733442E+02 -0.21525799354E+02 -0.24456949739E+02  0.37201434169E+02  0.00000000000E+00 0. -1.
</event>
<event>
 7    1  0.4555057E-015  0.9000778E+02  0.7816164E-02  0.1186339E+00
        -11   -1    0    0    0    0  0.00000000000E+00  0.00000000000E+00  0.45593999997E+02  0.45594000000E+02  0.51100000000E-03 0.  1.
         11   -1    0    0    0    0 -0.00000000000E+00 -0.00000000000E+00 -0.45593999997E+02  0.45594000000E+02  0.51100000000E-03 0. -1.
    9900012    2    1    2    0    0  0.55843129508E+00 -0.15082458723E+00 -0.10287541732E+01  0.90007775989E+02  0.90000037832E+02 0.  0.
        -12    1    1    2    0    0 -0.55843129508E+00  0.15082458723E+00  0.10287541732E+01  0.11802240111E+01  0.00000000000E+00 0.  1.
         11    1    3    3    0    0  0.27946140539E+02 -0.31211567085E+02  0.85206458987E+00  0.41903158655E+02  0.51100000000E-03 0. -1.
        -11    1    3    3    0    0  0.23355281533E+01  0.69923060312E+01  0.54429462558E+01  0.91636619096E+01  0.51100000000E-03 0.  1.
        -12    1    3    3    0    0 -0.29723237397E+02  0.24068436466E+02 -0.73237650189E+01  0.38940955424E+02  0.00000000000E+00 0.  1.
</event>
<event>
 7    1  0.4555057E-015  0.9000763E+02  0.7816164E-02  0.1186339E+00
        -11   -1    0    0    0    0  0.00000000000E+00  0.00000000000E+00  0.45593999997E+02  0.45594000000E+02  0.51100000000E-03 0.  1.
         11   -1    0    0    0    0 -0.00000000000E+00 -0.00000000000E+00 -0.45593999997E+02  0.45594000000E+02  0.51100000000E-03 0. -1.
    9900012    2    1    2    0    0  0.83581915578E+00  0.80896522483E+00  0.20065414619E+00  0.90007626973E+02  0.89999886849E+02 0.  0.
        -12    1    1    2    0    0 -0.83581915578E+00 -0.80896522483E+00 -0.20065414619E+00  0.11803730269E+01  0.00000000000E+00 0.  1.
         11    1    3    3    0    0  0.62273458733E+00 -0.68246816147E+01 -0.42505397402E+01  0.80641903408E+01  0.51100000000E-03 0. -1.
        -11    1    3    3    0    0 -0.19922231517E+02  0.13375519034E+02  0.36488053731E+02  0.43671247789E+02  0.51100000000E-03 0.  1.
         12    1    3    3    0    0  0.20135316086E+02 -0.57418721942E+01 -0.32036859845E+02  0.38272188844E+02  0.00000000000E+00 0. -1.
</event>
<event>
 7    1  0.4555057E-015  0.9000774E+02  0.7816164E-02  0.1186339E+00
        -11   -1    0    0    0    0  0.00000000000E+00  0.00000000000E+00  0.45593999997E+02  0.45594000000E+02  0.51100000000E-03 0.  1.
         11   -1    0    0    0    0 -0.00000000000E+00 -0.00000000000E+00 -0.45593999997E+02  0.45594000000E+02  0.51100000000E-03 0. -1.
    9900012    2    1    2    0    0  0.76136569227E+00 -0.63963810942E+00  0.63576930295E+00  0.90007738489E+02  0.89999999837E+02 0.  0.
        -12    1    1    2    0    0 -0.76136569227E+00  0.63963810942E+00 -0.63576930295E+00  0.11802615113E+01  0.00000000000E+00 0.  1.
         11    1    3    3    0    0 -0.56105972930E+01 -0.86730823802E+01 -0.93517471407E+00  0.10371871189E+02  0.51100000000E-03 0. -1.
        -11    1    3    3    0    0 -0.43611464109E+01  0.41671450929E+02  0.10542575889E+02  0.43205038216E+02  0.51100000000E-03 0.  1.
         12    1    3    3    0    0  0.10733109396E+02 -0.33638006659E+02 -0.89716318725E+01  0.36430829084E+02  0.00000000000E+00 0. -1.
</event>
<event>
 7    1  0.4555057E-015  0.9000779E+02  0.7816164E-02  0.1186339E+00
        -11   -1    0    0    0    0  0.00000000000E+00  0.00000000000E+00  0.45593999997E+02  0.45594000000E+02  0.51100000000E-03 0.  1.
         11   -1    0    0    0    0 -0.00000000000E+00 -0.00000000000E+00 -0.45593999997E+02  0.45594000000E+02  0.51100000000E-03 0. -1.
    9900012    2    1    2    0    0 -0.54099433923E-01  0.88110788296E+00 -0.78334019383E+00  0.90007788278E+02  0.90000050283E+02 0.  0.
        -12    1    1    2    0    0  0.54099433923E-01 -0.88110788296E+00  0.78334019383E+00  0.11802117223E+01  0.00000000000E+00 0.  1.
         11    1    3    3    0    0  0.36015244908E+02 -0.42625765809E+01 -0.67131123853E+01  0.36882696526E+02  0.51100000000E-03 0. -1.
        -11    1    3    3    0    0  0.52795607538E+01 -0.53600862115E+01 -0.50641006743E+01  0.90691455963E+01  0.51100000000E-03 0.  1.
        -12    1    3    3    0    0 -0.41348905096E+02  0.10503770675E+02  0.10993872866E+02  0.44055946155E+02  0.00000000000E+00 0.  1.
</event>
<event>
 7    1  0.4555057E-015  0.9000774E+02  0.7816164E-02  0.1186339E+00
        -11   -1    0    0    0    0  0.00000000000E+00  0.00000000000E+00  0.45593999997E+02  0.45594000000E+02  0.51100000000E-03 0.  1.
         11   -1    0    0    0    0 -0.00000000000E+00 -0.00000000000E+00 -0.45593999997E+02  0.45594000000E+02  0.51100000000E-03 0. -1.
    9900012    2    1    2    0    0  0.77356636924E+00 -0.32424516912E+00 -0.83034902696E+00  0.90007737587E+02  0.89999998923E+02 0.  0.
        -12    1    1    2    0    0 -0.77356636924E+00  0.32424516912E+00  0.83034902696E+00  0.11802624132E+01  0.00000000000E+00 0.  1.
         11    1    3    3    0    0 -0.17472709580E+02 -0.17202142893E+01 -0.61541896362E+01  0.18604536210E+02  0.51100000000E-03 0. -1.
        -11    1    3    3    0    0  0.18873001233E+02  0.31901729850E+02  0.14094310907E+02  0.39655518445E+02  0.51100000000E-03 0.  1.
         12    1    3    3    0    0 -0.62672528382E+00 -0.30505760730E+02 -0.87704702975E+01  0.31747682931E+02  0.00000000000E+00 0. -1.
</event>
<event>
 7    1  0.4555057E-015  0.9000725E+02  0.7816164E-02  0.1186340E+00
        -11   -1    0    0    0    0  0.00000000000E+00  0.00000000000E+00  0.45593999997E+02  0.45594000000E+02  0.51100000000E-03 0.  1.
         11   -1    0    0    0    0 -0.00000000000E+00 -0.00000000000E+00 -0.45593999997E+02  0.45594000000E+02  0.51100000000E-03 0. -1.
    9900012    2    1    2    0    0 -0.50974882242E+00  0.10413799333E+01  0.22327722704E+00  0.90007250769E+02  0.89999505677E+02 0.  0.
        -12    1    1    2    0    0  0.50974882242E+00 -0.10413799333E+01 -0.22327722704E+00  0.11807492315E+01  0.00000000000E+00 0.  1.
         11    1    3    3    0    0  0.76638195044E+01 -0.27065925761E+02  0.17430199283E+02  0.33092451012E+02  0.51100000000E-03 0. -1.
        -11    1    3    3    0    0 -0.58601190504E+01  0.11196957926E+02  0.15513993523E+02  0.20009918975E+02  0.51100000000E-03 0.  1.
        -12    1    3    3    0    0 -0.23134492764E+01  0.16910347768E+02 -0.32720915579E+02  0.36904880781E+02  0.00000000000E+00 0.  1.
</event>
<event>
 7    1  0.4555057E-015  0.9000784E+02  0.7816164E-02  0.1186339E+00
        -11   -1    0    0    0    0  0.00000000000E+00  0.00000000000E+00  0.45593999997E+02  0.45594000000E+02  0.51100000000E-03 0. -1.
         11   -1    0    0    0    0 -0.00000000000E+00 -0.00000000000E+00 -0.45593999997E+02  0.45594000000E+02  0.51100000000E-03 0.  1.
    9900012    2    1    2    0    0 -0.81335834412E+00  0.25656195886E+00  0.81572452057E+00  0.90007838008E+02  0.90000100669E+02 0.  0.
        -12    1    1    2    0    0  0.81335834412E+00 -0.25656195886E+00 -0.81572452057E+00  0.11801619923E+01  0.00000000000E+00 0.  1.
         11    1    3    3    0    0 -0.35166065899E+02  0.12798905478E+02 -0.11307887137E+02  0.39093893180E+02  0.51100000000E-03 0. -1.
        -11    1    3    3    0    0 -0.38833267051E+01  0.27388168081E+01  0.82950770045E+01  0.95597932289E+01  0.51100000000E-03 0.  1.
        -12    1    3    3    0    0  0.38236034260E+02 -0.15281160327E+02  0.38285346529E+01  0.41354151599E+02  0.00000000000E+00 0.  1.
</event>
<event>
 7    1  0.4555057E-015  0.9000788E+02  0.7816164E-02  0.1186339E+00
        -11   -1    0    0    0    0  0.00000000000E+00  0.00000000000E+00  0.45593999997E+02  0.45594000000E+02  0.51100000000E-03 0. -1.
         11   -1    0    0    0    0 -0.00000000000E+00 -0.00000000000E+00 -0.45593999997E+02  0.45594000000E+02  0.51100000000E-03 0.  1.
    9900012    2    1    2    0    0  0.10336020307E+01  0.58558349412E-01  0.56650351821E+00  0.90007877771E+02  0.90000140958E+02 0.  0.
        -12    1    1    2    0    0 -0.10336020307E+01 -0.58558349412E-01 -0.56650351821E+00  0.11801222285E+01  0.00000000000E+00 0.  1.
         11    1    3    3    0    0 -0.32396255729E+02 -0.79180522032E+01  0.12998492398E+02  0.35793487408E+02  0.51100000000E-03 0. -1.
        -11    1    3    3    0    0 -0.76559564287E+01 -0.16835566959E+01 -0.89010986018E+01  0.11860758347E+02  0.51100000000E-03 0.  1.
        -12    1    3    3    0    0  0.41085814189E+02  0.96601672485E+01 -0.35308902781E+01  0.42353632016E+02  0.00000000000E+00 0.  1.
</event>
<event>
 7    1  0.4555057E-015  0.9000773E+02  0.7816164E-02  0.1186339E+00
        -11   -1    0    0    0    0  0.00000000000E+00  0.00000000000E+00  0.45593999997E+02  0.45594000000E+02  0.51100000000E-03 0.  1.
         11   -1    0    0    0    0 -0.00000000000E+00 -0.00000000000E+00 -0.45593999997E+02  0.45594000000E+02  0.51100000000E-03 0. -1.
    9900012    2    1    2    0    0  0.92576541061E+00  0.44741914986E+00 -0.57949181490E+00  0.90007730431E+02  0.89999991673E+02 0.  0.
        -12    1    1    2    0    0 -0.92576541061E+00 -0.44741914986E+00  0.57949181490E+00  0.11802695686E+01  0.00000000000E+00 0.  1.
         11    1    3    3    0    0  0.14020834692E+02  0.77094456404E+01  0.60811678556E+00  0.16012156752E+02  0.51100000000E-03 0. -1.
        -11    1    3    3    0    0  0.24254837262E+02 -0.46265914509E+01  0.19276455031E+02  0.31325456068E+02  0.51100000000E-03 0.  1.
         12    1    3    3    0    0 -0.37349906544E+02 -0.26354350396E+01 -0.20464063632E+02  0.42670117612E+02  0.00000000000E+00 0. -1.
</event>
<event>
 7    1  0.4555057E-015  0.9000695E+02  0.7816164E-02  0.1186341E+00
        -11   -1    0    0    0    0  0.00000000000E+00  0.00000000000E+00  0.45593999997E+02  0.45594000000E+02  0.51100000000E-03 0.  1.
         11   -1    0    0    0    0 -0.00000000000E+00 -0.00000000000E+00 -0.45593999997E+02  0.45594000000E+02  0.51100000000E-03 0. -1.
    9900012    2    1    2    0    0 -0.94481371620E+00 -0.59054312468E+00 -0.39173821897E+00  0.90006952595E+02  0.89999203566E+02 0.  0.
        -12    1    1    2    0    0  0.94481371620E+00  0.59054312468E+00  0.39173821897E+00  0.11810474049E+01  0.00000000000E+00 0.  1.
         11    1    3    3    0    0  0.13085650293E+02 -0.24896115878E+02 -0.29220625071E+02  0.40557314497E+02  0.51100000000E-03 0. -1.
        -11    1    3    3    0    0  0.30630313308E+01  0.83095071480E+01 -0.35100908870E+01  0.95263218649E+01  0.51100000000E-03 0.  1.
        -12    1    3    3    0    0 -0.17093495340E+02  0.15996065605E+02  0.32338977739E+02  0.39923316233E+02  0.00000000000E+00 0.  1.
</event>
<event>
 7    1  0.4555057E-015  0.9000772E+02  0.7816164E-02  0.1186339E+00
        -11   -1    0    0    0    0  0.00000000000E+00  0.00000000000E+00  0.45593999997E+02  0.45594000000E+02  0.51100000000E-03 0. -1.
         11   -1    0    0    0    0 -0.00000000000E+00 -0.00000000000E+00 -0.45593999997E+02  0.45594000000E+02  0.51100000000E-03 0.  1.
    9900012    2    1    2    0    0  0.73244776212E+00  0.73323422318E+00  0.56475073279E+00  0.90007722261E+02  0.89999983395E+02 0.  0.
        -12    1    1    2    0    0 -0.73244776212E+00 -0.73323422318E+00 -0.56475073279E+00  0.11802777387E+01  0.00000000000E+00 0.  1.
         11    1    3    3    0    0 -0.29399697949E+02 -0.19226804472E+02  0.76635453162E+01  0.35954723984E+02  0.51100000000E-03 0. -1.
        -11    1    3    3    0    0 -0.55751913796E+01 -0.55143173537E+01  0.40068577224E+01  0.88059845483E+01  0.51100000000E-03 0.  1.
        -12    1    3    3    0    0  0.35707337091E+02  0.25474356049E+02 -0.11105652306E+02  0.45247013729E+02  0.00000000000E+00 0.  1.
</event>
<event>
 7    1  0.4555057E-015  0.9000774E+02  0.7816164E-02  0.1186339E+00
        -11   -1    0    0    0    0  0.00000000000E+00  0.00000000000E+00  0.45593999997E+02  0.45594000000E+02  0.51100000000E-03 0.  1.
         11   -1    0    0    0    0 -0.00000000000E+00 -0.00000000000E+00 -0.45593999997E+02  0.45594000000E+02  0.51100000000E-03 0. -1.
    9900012    2    1    2    0    0  0.47735404381E+00  0.37325792716E+00 -0.10128341923E+01  0.90007736697E+02  0.89999998021E+02 0.  0.
        -12    1    1    2    0    0 -0.47735404381E+00 -0.37325792716E+00  0.10128341923E+01  0.11802633030E+01  0.00000000000E+00 0.  1.
         11    1    3    3    0    0  0.21310459103E+02 -0.60779408486E+01 -0.30929141188E+02  0.38048505976E+02  0.51100000000E-03 0. -1.
        -11    1    3    3    0    0  0.65217064801E+01 -0.77445440132E+01  0.18840614505E+01  0.10298558404E+02  0.51100000000E-03 0.  1.
        -12    1    3    3    0    0 -0.27354811539E+02  0.14195742789E+02  0.28032245545E+02  0.41660672317E+02  0.00000000000E+00 0.  1.
</event>
<event>
 7    1  0.4555057E-015  0.9000778E+02  0.7816164E-02  0.1186339E+00
        -11   -1    0    0    0    0  0.00000000000E+00  0.00000000000E+00  0.45593999997E+02  0.45594000000E+02  0.51100000000E-03 0.  1.
         11   -1    0    0    0    0 -0.00000000000E+00 -0.00000000000E+00 -0.45593999997E+02  0.45594000000E+02  0.51100000000E-03 0. -1.
    9900012    2    1    2    0    0 -0.37600148536E+00 -0.84069544682E+00 -0.73808228278E+00  0.90007783322E+02  0.90000045262E+02 0.  0.
        -12    1    1    2    0    0  0.37600148536E+00  0.84069544682E+00  0.73808228278E+00  0.11802166782E+01  0.00000000000E+00 0.  1.
         11    1    3    3    0    0 -0.32693901010E+02 -0.19013421020E+02 -0.19225053244E+02  0.42426454184E+02  0.51100000000E-03 0. -1.
        -11    1    3    3    0    0  0.82659255420E+01 -0.41416576792E+00 -0.45468815915E+01  0.94430498684E+01  0.51100000000E-03 0.  1.
        -12    1    3    3    0    0  0.24051973983E+02  0.18586891341E+02  0.23033852553E+02  0.38138279269E+02  0.00000000000E+00 0.  1.
</event>
<event>
 7    1  0.4555057E-015  0.9000774E+02  0.7816164E-02  0.1186339E+00
        -11   -1    0    0    0    0  0.00000000000E+00  0.00000000000E+00  0.45593999997E+02  0.45594000000E+02  0.51100000000E-03 0.  1.
         11   -1    0    0    0    0 -0.00000000000E+00 -0.00000000000E+00 -0.45593999997E+02  0.45594000000E+02  0.51100000000E-03 0. -1.
    9900012    2    1    2    0    0 -0.19758964219E+00  0.31855739587E+00 -0.11191477466E+01  0.90007740639E+02  0.90000002015E+02 0.  0.
        -12    1    1    2    0    0  0.19758964219E+00 -0.31855739587E+00  0.11191477466E+01  0.11802593613E+01  0.00000000000E+00 0.  1.
         11    1    3    3    0    0  0.32240541586E+00  0.36502065896E+01  0.78336022437E+01  0.86483106889E+01  0.51100000000E-03 0. -1.
        -11    1    3    3    0    0  0.37884257538E+02  0.11411400317E+02 -0.18096373535E+01  0.39606966736E+02  0.51100000000E-03 0.  1.
         12    1    3    3    0    0 -0.38404252596E+02 -0.14743049510E+02 -0.71431126368E+01  0.41752463214E+02  0.00000000000E+00 0. -1.
</event>
<event>
 7    1  0.4555057E-015  0.9000792E+02  0.7816164E-02  0.1186339E+00
        -11   -1    0    0    0    0  0.00000000000E+00  0.00000000000E+00  0.45593999997E+02  0.45594000000E+02  0.51100000000E-03 0.  1.
         11   -1    0    0    0    0 -0.00000000000E+00 -0.00000000000E+00 -0.45593999997E+02  0.45594000000E+02  0.51100000000E-03 0. -1.
    9900012    2    1    2    0    0  0.11195860307E+01 -0.30422474335E+00 -0.21580633893E+00  0.90007916126E+02  0.90000179818E+02 0.  0.
        -12    1    1    2    0    0 -0.11195860307E+01  0.30422474335E+00  0.21580633893E+00  0.11800838743E+01  0.00000000000E+00 0.  1.
         11    1    3    3    0    0 -0.73706226464E+01 -0.76397916803E+01 -0.14008324488E+01  0.10707699423E+02  0.51100000000E-03 0. -1.
        -11    1    3    3    0    0  0.35257047217E+02  0.29225269934E+01  0.24904568877E+02  0.43264744235E+02  0.51100000000E-03 0.  1.
         12    1    3    3    0    0 -0.26766838540E+02  0.44130399436E+01 -0.23719542767E+02  0.36035472469E+02  0.00000000000E+00 0. -1.
</event>
<event>
 7    1  0.4555057E-015  0.9000767E+02  0.7816164E-02  0.1186339E+00
        -11   -1    0    0    0    0  0.00000000000E+00  0.00000000000E+00  0.45593999997E+02  0.45594000000E+02  0.51100000000E-03 0.  1.
         11   -1    0    0    0    0 -0.00000000000E+00 -0.00000000000E+00 -0.45593999997E+02  0.45594000000E+02  0.51100000000E-03 0. -1.
    9900012    2    1    2    0    0  0.96027118326E+00 -0.50561932917E+00  0.46412879255E+00  0.90007666493E+02  0.89999926891E+02 0.  0.
        -12    1    1    2    0    0 -0.96027118326E+00  0.50561932917E+00 -0.46412879255E+00  0.11803335069E+01  0.00000000000E+00 0.  1.
         11    1    3    3    0    0  0.45983257991E+01 -0.76720289235E+01  0.33639061166E+01  0.95561756252E+01  0.51100000000E-03 0. -1.
        -11    1    3    3    0    0  0.33549113808E+02 -0.27786494804E+01  0.16336671847E+02  0.37418588663E+02  0.51100000000E-03 0.  1.
         12    1    3    3    0    0 -0.37187168424E+02  0.99450590748E+01 -0.19236449171E+02  0.43032902204E+02  0.00000000000E+00 0. -1.
</event>
<event>
 7    1  0.4555057E-015  0.9000774E+02  0.7816164E-02  0.1186339E+00
        -11   -1    0    0    0    0  0.00000000000E+00  0.00000000000E+00  0.45593999997E+02  0.45594000000E+02  0.51100000000E-03 0.  1.
         11   -1    0    0    0    0 -0.00000000000E+00 -0.00000000000E+00 -0.45593999997E+02  0.45594000000E+02  0.51100000000E-03 0. -1.
    9900012    2    1    2    0    0 -0.99664373777E+00  0.62188442736E+00 -0.11387452167E+00  0.90007743084E+02  0.90000004493E+02 0.  0.
        -12    1    1    2    0    0  0.99664373777E+00 -0.62188442736E+00  0.11387452167E+00  0.11802569160E+01  0.00000000000E+00 0.  1.
         11    1    3    3    0    0 -0.52939918215E+01 -0.13670481390E+02 -0.68127302696E+00  0.14675576447E+02  0.51100000000E-03 0. -1.
        -11    1    3    3    0    0  0.36101325269E+02 -0.31982376359E+01 -0.98745246413E+01  0.37563820990E+02  0.51100000000E-03 0.  1.
         12    1    3    3    0    0 -0.31803977186E+02  0.17490603453E+02  0.10441923147E+02  0.37768345648E+02  0.00000000000E+00 0. -1.
</event>
<event>
 7    1  0.4555057E-015  0.9000767E+02  0.7816164E-02  0.1186339E+00
        -11   -1    0    0    0    0  0.00000000000E+00  0.00000000000E+00  0.45593999997E+02  0.45594000000E+02  0.51100000000E-03 0.  1.
         11   -1    0    0    0    0 -0.00000000000E+00 -0.00000000000E+00 -0.45593999997E+02  0.45594000000E+02  0.51100000000E-03 0. -1.
    9900012    2    1    2    0    0 -0.60585911335E+00 -0.92863210135E-01 -0.10087032577E+01  0.90007673307E+02  0.89999933794E+02 0.  0.
        -12    1    1    2    0    0  0.60585911335E+00  0.92863210135E-01  0.10087032577E+01  0.11803266934E+01  0.00000000000E+00 0.  1.
         11    1    3    3    0    0 -0.10540889154E+02  0.75950085632E+00  0.56924930841E-01  0.10568369147E+02  0.51100000000E-03 0. -1.
        -11    1    3    3    0    0 -0.31627738637E+02 -0.88531270926E+01  0.12272698334E+02  0.35061529277E+02  0.51100000000E-03 0.  1.
         12    1    3    3    0    0  0.41562768678E+02  0.80007630261E+01 -0.13338326522E+02  0.44377774883E+02  0.00000000000E+00 0. -1.
</event>
<event>
 7    1  0.7231255E-015  0.9000775E+02  0.7816164E-02  0.1186339E+00
        -11   -1    0    0    0    0  0.00000000000E+00  0.00000000000E+00  0.45593999997E+02  0.45594000000E+02  0.51100000000E-03 0. -1.
         11   -1    0    0    0    0 -0.00000000000E+00 -0.00000000000E+00 -0.45593999997E+02  0.45594000000E+02  0.51100000000E-03 0.  1.
    9900012    2    1    2    0    0  0.27166771366E+00  0.82105860624E+00  0.80314808539E+00  0.90007751116E+02  0.90000012631E+02 0.  0.
        -12    1    1    2    0    0 -0.27166771366E+00 -0.82105860624E+00 -0.80314808539E+00  0.11802488842E+01  0.00000000000E+00 0.  1.
         11    1    3    3    0    0 -0.27312176811E+01  0.33145980820E+02  0.25817433111E+02  0.42102914950E+02  0.51100000000E-03 0. -1.
        -11    1    3    3    0    0 -0.47562190700E+01  0.12937349304E+01 -0.80941987442E+01  0.94768889138E+01  0.51100000000E-03 0.  1.
        -12    1    3    3    0    0  0.77591044648E+01 -0.33618657144E+02 -0.16920086282E+02  0.38427947252E+02  0.00000000000E+00 0.  1.
</event>
<event>
 7    1  0.4555057E-015  0.9000772E+02  0.7816164E-02  0.1186339E+00
        -11   -1    0    0    0    0  0.00000000000E+00  0.00000000000E+00  0.45593999997E+02  0.45594000000E+02  0.51100000000E-03 0.  1.
         11   -1    0    0    0    0 -0.00000000000E+00 -0.00000000000E+00 -0.45593999997E+02  0.45594000000E+02  0.51100000000E-03 0. -1.
    9900012    2    1    2    0    0  0.35642408134E+00 -0.23197679294E+00 -0.11009989549E+01  0.90007724584E+02  0.89999985749E+02 0.  0.
        -12    1    1    2    0    0 -0.35642408134E+00  0.23197679294E+00  0.11009989549E+01  0.11802754157E+01  0.00000000000E+00 0.  1.
         11    1    3    3    0    0  0.79945492926E+01  0.18712120598E+02 -0.29646256329E+02  0.35957708356E+02  0.51100000000E-03 0. -1.
        -11    1    3    3    0    0  0.14397987908E+02 -0.79445572224E+00  0.11207794457E+01  0.14463380052E+02  0.51100000000E-03 0.  1.
        -12    1    3    3    0    0 -0.22036113119E+02 -0.18149641669E+02  0.27424477928E+02  0.39586636176E+02  0.00000000000E+00 0.  1.
</event>
<event>
 7    1  0.4555057E-015  0.9000772E+02  0.7816164E-02  0.1186339E+00
        -11   -1    0    0    0    0  0.00000000000E+00  0.00000000000E+00  0.45593999997E+02  0.45594000000E+02  0.51100000000E-03 0.  1.
         11   -1    0    0    0    0 -0.00000000000E+00 -0.00000000000E+00 -0.45593999997E+02  0.45594000000E+02  0.51100000000E-03 0. -1.
    9900012    2    1    2    0    0  0.52261762490E+00  0.22870610567E+00 -0.10332594625E+01  0.90007720041E+02  0.89999981146E+02 0.  0.
        -12    1    1    2    0    0 -0.52261762490E+00 -0.22870610567E+00  0.10332594625E+01  0.11802799590E+01  0.00000000000E+00 0.  1.
         11    1    3    3    0    0  0.58248481263E+01 -0.24295259388E+02 -0.29190526127E+02  0.38422328147E+02  0.51100000000E-03 0. -1.
        -11    1    3    3    0    0  0.52790010461E+01  0.23603548989E+01 -0.67599301873E+01  0.88958295674E+01  0.51100000000E-03 0.  1.
        -12    1    3    3    0    0 -0.10581231548E+02  0.22163610595E+02  0.34917196851E+02  0.42689562327E+02  0.00000000000E+00 0.  1.
</event>
<event>
 7    1  0.4555057E-015  0.9000773E+02  0.7816164E-02  0.1186339E+00
        -11   -1    0    0    0    0  0.00000000000E+00  0.00000000000E+00  0.45593999997E+02  0.45594000000E+02  0.51100000000E-03 0. -1.
         11   -1    0    0    0    0 -0.00000000000E+00 -0.00000000000E+00 -0.45593999997E+02  0.45594000000E+02  0.51100000000E-03 0.  1.
    9900012    2    1    2    0    0  0.53400120258E+00  0.70169100693E+00  0.78454722364E+00  0.90007728040E+02  0.89999989250E+02 0.  0.
        -12    1    1    2    0    0 -0.53400120258E+00 -0.70169100693E+00 -0.78454722364E+00  0.11802719600E+01  0.00000000000E+00 0.  1.
         11    1    3    3    0    0 -0.50319959908E+01  0.54696470272E+01 -0.23474201654E+01  0.77941262466E+01  0.51100000000E-03 0. -1.
        -11    1    3    3    0    0 -0.92283495891E+01  0.11897033681E+02 -0.34969878801E+02  0.38073537662E+02  0.51100000000E-03 0.  1.
         12    1    3    3    0    0  0.14794346783E+02 -0.16664989701E+02  0.38101846190E+02  0.44140064131E+02  0.00000000000E+00 0. -1.
</event>
<event>
 7    1  0.4555057E-015  0.9000771E+02  0.7816164E-02  0.1186339E+00
        -11   -1    0    0    0    0  0.00000000000E+00  0.00000000000E+00  0.45593999997E+02  0.45594000000E+02  0.51100000000E-03 0.  1.
         11   -1    0    0    0    0 -0.00000000000E+00 -0.00000000000E+00 -0.45593999997E+02  0.45594000000E+02  0.51100000000E-03 0. -1.
    9900012    2    1    2    0    0  0.10369119642E+01 -0.56290789651E+00  0.32134885746E-01  0.90007710047E+02  0.89999971020E+02 0.  0.
        -12    1    1    2    0    0 -0.10369119642E+01  0.56290789651E+00 -0.32134885746E-01  0.11802899526E+01  0.00000000000E+00 0.  1.
         11    1    3    3    0    0  0.93862667015E+01  0.67807839188E+00  0.23465308596E+01  0.96988659251E+01  0.51100000000E-03 0. -1.
        -11    1    3    3    0    0  0.17306811302E+02  0.12154739765E+02  0.30142513545E+02  0.36821658563E+02  0.51100000000E-03 0.  1.
         12    1    3    3    0    0 -0.25656166040E+02 -0.13395726054E+02 -0.32456909519E+02  0.43487185560E+02  0.00000000000E+00 0. -1.
</event>
<event>
 7    1  0.4555057E-015  0.9000797E+02  0.7816164E-02  0.1186339E+00
        -11   -1    0    0    0    0  0.00000000000E+00  0.00000000000E+00  0.45593999997E+02  0.45594000000E+02  0.51100000000E-03 0.  1.
         11   -1    0    0    0    0 -0.00000000000E+00 -0.00000000000E+00 -0.45593999997E+02  0.45594000000E+02  0.51100000000E-03 0. -1.
    9900012    2    1    2    0    0  0.91897883858E+00 -0.54166471422E+00 -0.50452396370E+00  0.90007971526E+02  0.90000235950E+02 0.  0.
        -12    1    1    2    0    0 -0.91897883858E+00  0.54166471422E+00  0.50452396370E+00  0.11800284735E+01  0.00000000000E+00 0.  1.
         11    1    3    3    0    0  0.22552559291E+01 -0.97264666664E+01 -0.27681896020E+01  0.10361139274E+02  0.51100000000E-03 0. -1.
        -11    1    3    3    0    0  0.27776021815E+02  0.13732010405E+02  0.27058841316E+02  0.41137044027E+02  0.51100000000E-03 0.  1.
         12    1    3    3    0    0 -0.29112298906E+02 -0.45472084528E+01 -0.24795175678E+02  0.38509788226E+02  0.00000000000E+00 0. -1.
</event>
<event>
 7    1  0.4555057E-015  0.9000768E+02  0.7816164E-02  0.1186339E+00
        -11   -1    0    0    0    0  0.00000000000E+00  0.00000000000E+00  0.45593999997E+02  0.45594000000E+02  0.51100000000E-03 0. -1.
         11   -1    0    0    0    0 -0.00000000000E+00 -0.00000000000E+00 -0.45593999997E+02  0.45594000000E+02  0.51100000000E-03 0.  1.
    9900012    2    1    2    0    0 -0.11673071955E+01 -0.73049900452E-01 -0.15878057048E+00  0.90007680702E+02  0.89999941287E+02 0.  0.
        -12    1    1    2    0    0  0.11673071955E+01  0.73049900452E-01  0.15878057048E+00  0.11803192984E+01  0.00000000000E+00 0.  1.
         11    1    3    3    0    0 -0.12388155691E+02  0.32690341728E+01  0.97443873553E+01  0.16096772069E+02  0.51100000000E-03 0. -1.
        -11    1    3    3    0    0 -0.30775933939E+01 -0.19702111561E+02 -0.35266224370E+02  0.40513594788E+02  0.51100000000E-03 0.  1.
         12    1    3    3    0    0  0.14298441890E+02  0.16360027488E+02  0.25363056444E+02  0.33397313845E+02  0.00000000000E+00 0. -1.
</event>
<event>
 7    1  0.4555057E-015  0.9000777E+02  0.7816164E-02  0.1186339E+00
        -11   -1    0    0    0    0  0.00000000000E+00  0.00000000000E+00  0.45593999997E+02  0.45594000000E+02  0.51100000000E-03 0.  1.
         11   -1    0    0    0    0 -0.00000000000E+00 -0.00000000000E+00 -0.45593999997E+02  0.45594000000E+02  0.51100000000E-03 0. -1.
    9900012    2    1    2    0    0  0.89517003675E+00 -0.72331221460E+00 -0.26159707753E+00  0.90007769944E+02  0.90000031707E+02 0.  0.
        -12    1    1    2    0    0 -0.89517003675E+00  0.72331221460E+00  0.26159707753E+00  0.11802300562E+01  0.00000000000E+00 0.  1.
         11    1    3    3    0    0 -0.53707076492E+00  0.31545019117E+02 -0.14941383450E+02  0.34908761304E+02  0.51100000000E-03 0. -1.
        -11    1    3    3    0    0  0.87908880250E+01  0.38864814145E+01 -0.73738039897E+01  0.12114348335E+02  0.51100000000E-03 0.  1.
        -12    1    3    3    0    0 -0.73586472233E+01 -0.36154812746E+02  0.22053590362E+02  0.42984660305E+02  0.00000000000E+00 0.  1.
</event>
<event>
 7    1  0.4555057E-015  0.9000819E+02  0.7816164E-02  0.1186338E+00
        -11   -1    0    0    0    0  0.00000000000E+00  0.00000000000E+00  0.45593999997E+02  0.45594000000E+02  0.51100000000E-03 0. -1.
         11   -1    0    0    0    0 -0.00000000000E+00 -0.00000000000E+00 -0.45593999997E+02  0.45594000000E+02  0.51100000000E-03 0.  1.
    9900012    2    1    2    0    0 -0.69859819639E+00  0.92617882243E+00  0.21472737737E+00  0.90008188787E+02  0.90000456078E+02 0.  0.
        -12    1    1    2    0    0  0.69859819639E+00 -0.92617882243E+00 -0.21472737737E+00  0.11798112127E+01  0.00000000000E+00 0.  1.
         11    1    3    3    0    0 -0.23314429783E+02  0.23665854823E+02  0.21312942672E+02  0.39469948648E+02  0.51100000000E-03 0. -1.
        -11    1    3    3    0    0 -0.43996374507E+01 -0.70996833345E+01  0.50992253838E+01  0.97859293337E+01  0.51100000000E-03 0.  1.
        -12    1    3    3    0    0  0.27015469038E+02 -0.15639992666E+02 -0.26197440679E+02  0.40752310806E+02  0.00000000000E+00 0.  1.
</event>
<event>
 7    1  0.4555057E-015  0.9000775E+02  0.7816164E-02  0.1186339E+00
        -11   -1    0    0    0    0  0.00000000000E+00  0.00000000000E+00  0.45593999997E+02  0.45594000000E+02  0.51100000000E-03 0.  1.
         11   -1    0    0    0    0 -0.00000000000E+00 -0.00000000000E+00 -0.45593999997E+02  0.45594000000E+02  0.51100000000E-03 0. -1.
    9900012    2    1    2    0    0 -0.71727933055E+00  0.80150919142E+00 -0.48587565766E+00  0.90007753510E+02  0.90000015057E+02 0.  0.
        -12    1    1    2    0    0  0.71727933055E+00 -0.80150919142E+00  0.48587565766E+00  0.11802464898E+01  0.00000000000E+00 0.  1.
         11    1    3    3    0    0 -0.38728858839E+01  0.57539244745E+01  0.51779733055E+01  0.86555357859E+01  0.51100000000E-03 0. -1.
        -11    1    3    3    0    0  0.24245644571E+02 -0.82360714736E+01  0.30214172471E+02  0.39605307376E+02  0.51100000000E-03 0.  1.
         12    1    3    3    0    0 -0.21090038017E+02  0.32836561905E+01 -0.35878021435E+02  0.41746910348E+02  0.00000000000E+00 0. -1.
</event>
<event>
 7    1  0.4555057E-015  0.9000781E+02  0.7816164E-02  0.1186339E+00
        -11   -1    0    0    0    0  0.00000000000E+00  0.00000000000E+00  0.45593999997E+02  0.45594000000E+02  0.51100000000E-03 0.  1.
         11   -1    0    0    0    0 -0.00000000000E+00 -0.00000000000E+00 -0.45593999997E+02  0.45594000000E+02  0.51100000000E-03 0. -1.
    9900012    2    1    2    0    0 -0.11331152056E+01 -0.32780561308E+00 -0.38024465400E-01  0.90007808300E+02  0.90000070569E+02 0.  0.
        -12    1    1    2    0    0  0.11331152056E+01  0.32780561308E+00  0.38024465400E-01  0.11801917002E+01  0.00000000000E+00 0.  1.
         11    1    3    3    0    0 -0.34617768969E+01 -0.36496034408E+02 -0.21535905113E+02  0.42517521519E+02  0.51100000000E-03 0. -1.
        -11    1    3    3    0    0 -0.71892498869E+01  0.30191392605E+01  0.49635878624E+01  0.92432527034E+01  0.51100000000E-03 0.  1.
        -12    1    3    3    0    0  0.95179115782E+01  0.33149089535E+02  0.16534292786E+02  0.38247034077E+02  0.00000000000E+00 0.  1.
</event>
<event>
 7    1  0.4555057E-015  0.9000759E+02  0.7816164E-02  0.1186339E+00
        -11   -1    0    0    0    0  0.00000000000E+00  0.00000000000E+00  0.45593999997E+02  0.45594000000E+02  0.51100000000E-03 0. -1.
         11   -1    0    0    0    0 -0.00000000000E+00 -0.00000000000E+00 -0.45593999997E+02  0.45594000000E+02  0.51100000000E-03 0.  1.
    9900012    2    1    2    0    0  0.81977855233E+00  0.55397168964E+00  0.64376845122E+00  0.90007593576E+02  0.89999853011E+02 0.  0.
        -12    1    1    2    0    0 -0.81977855233E+00 -0.55397168964E+00 -0.64376845122E+00  0.11804064243E+01  0.00000000000E+00 0.  1.
         11    1    3    3    0    0  0.60542902171E+01  0.79124425292E+01 -0.16991530806E+01  0.10106844130E+02  0.51100000000E-03 0. -1.
        -11    1    3    3    0    0  0.29241987643E+02 -0.25436602358E+02  0.10440462133E+02  0.40138732300E+02  0.51100000000E-03 0.  1.
         12    1    3    3    0    0 -0.34476499308E+02  0.18078131519E+02 -0.80975406016E+01  0.39762017146E+02  0.00000000000E+00 0. -1.
</event>
<event>
 7    1  0.4555057E-015  0.9000685E+02  0.7816164E-02  0.1186341E+00
        -11   -1    0    0    0    0  0.00000000000E+00  0.00000000000E+00  0.45593999997E+02  0.45594000000E+02  0.51100000000E-03 0. -1.
         11   -1    0    0    0    0 -0.00000000000E+00 -0.00000000000E+00 -0.45593999997E+02  0.45594000000E+02  0.51100000000E-03 0.  1.
    9900012    2    1    2    0    0  0.58081570801E+00 -0.10116992294E+01  0.18502934034E+00  0.90006848835E+02  0.89999098435E+02 0.  0.
        -12    1    1    2    0    0 -0.58081570801E+00  0.10116992294E+01 -0.18502934034E+00  0.11811511649E+01  0.00000000000E+00 0.  1.
         11    1    3    3    0    0  0.73219271110E+01 -0.23902534201E+01 -0.43085760079E+01  0.88254039855E+01  0.51100000000E-03 0. -1.
        -11    1    3    3    0    0  0.56238013269E+01 -0.35695645279E+02 -0.12946187503E+02  0.38385023178E+02  0.51100000000E-03 0.  1.
         12    1    3    3    0    0 -0.12364912730E+02  0.37074199470E+02  0.17439792851E+02  0.42796421671E+02  0.00000000000E+00 0. -1.
</event>
<event>
 7    1  0.4555057E-015  0.9000774E+02  0.7816164E-02  0.1186339E+00
        -11   -1    0    0    0    0  0.00000000000E+00  0.00000000000E+00  0.45593999997E+02  0.45594000000E+02  0.51100000000E-03 0. -1.
         11   -1    0    0    0    0 -0.00000000000E+00 -0.00000000000E+00 -0.45593999997E+02  0.45594000000E+02  0.51100000000E-03 0.  1.
    9900012    2    1    2    0    0  0.75061277905E+00 -0.84698068867E+00  0.33498553086E+00  0.90007741072E+02  0.90000002454E+02 0.  0.
        -12    1    1    2    0    0 -0.75061277905E+00  0.84698068867E+00 -0.33498553086E+00  0.11802589279E+01  0.00000000000E+00 0.  1.
         11    1    3    3    0    0 -0.15885222229E+01  0.84910839021E+01  0.44351587690E+01  0.97104347098E+01  0.51100000000E-03 0. -1.
        -11    1    3    3    0    0  0.23313730089E+02 -0.24184159991E+01 -0.35116791095E+02  0.42220466171E+02  0.51100000000E-03 0.  1.
         12    1    3    3    0    0 -0.20974595087E+02 -0.69196485917E+01  0.31016617857E+02  0.38076840192E+02  0.00000000000E+00 0. -1.
</event>
<event>
 7    1  0.4555057E-015  0.9000774E+02  0.7816164E-02  0.1186339E+00
        -11   -1    0    0    0    0  0.00000000000E+00  0.00000000000E+00  0.45593999997E+02  0.45594000000E+02  0.51100000000E-03 0.  1.
         11   -1    0    0    0    0 -0.00000000000E+00 -0.00000000000E+00 -0.45593999997E+02  0.45594000000E+02  0.51100000000E-03 0. -1.
    9900012    2    1    2    0    0  0.76171114505E+00  0.88141372000E+00 -0.18954707285E+00  0.90007736425E+02  0.89999997746E+02 0.  0.
        -12    1    1    2    0    0 -0.76171114505E+00 -0.88141372000E+00  0.18954707285E+00  0.11802635753E+01  0.00000000000E+00 0.  1.
         11    1    3    3    0    0  0.33150183608E+02 -0.62474665412E+01  0.28015857218E+02  0.43850356524E+02  0.51100000000E-03 0. -1.
        -11    1    3    3    0    0 -0.87062725985E+01 -0.84457672112E+00 -0.37555666937E+00  0.87552004814E+01  0.51100000000E-03 0.  1.
        -12    1    3    3    0    0 -0.23682199864E+02  0.79734569823E+01 -0.27829847621E+02  0.37402179419E+02  0.00000000000E+00 0.  1.
</event>
<event>
 7    1  0.4555057E-015  0.9000770E+02  0.7816164E-02  0.1186339E+00
        -11   -1    0    0    0    0  0.00000000000E+00  0.00000000000E+00  0.45593999997E+02  0.45594000000E+02  0.51100000000E-03 0. -1.
         11   -1    0    0    0    0 -0.00000000000E+00 -0.00000000000E+00 -0.45593999997E+02  0.45594000000E+02  0.51100000000E-03 0.  1.
    9900012    2    1    2    0    0  0.82971844907E+00  0.83598359663E+00 -0.76126328522E-01  0.90007704911E+02  0.89999965816E+02 0.  0.
        -12    1    1    2    0    0 -0.82971844907E+00 -0.83598359663E+00  0.76126328522E-01  0.11802950887E+01  0.00000000000E+00 0.  1.
         11    1    3    3    0    0 -0.99578520094E+01 -0.26929612820E+02  0.22112535010E+02  0.36239854692E+02  0.51100000000E-03 0. -1.
        -11    1    3    3    0    0 -0.95248368162E+01 -0.34417012394E+01  0.54272615421E+00  0.10142109038E+02  0.51100000000E-03 0.  1.
        -12    1    3    3    0    0  0.20312407275E+02  0.31207297656E+02 -0.22731387493E+02  0.43625741181E+02  0.00000000000E+00 0.  1.
</event>
<event>
 7    1  0.4555057E-015  0.9000757E+02  0.7816164E-02  0.1186339E+00
        -11   -1    0    0    0    0  0.00000000000E+00  0.00000000000E+00  0.45593999997E+02  0.45594000000E+02  0.51100000000E-03 0. -1.
         11   -1    0    0    0    0 -0.00000000000E+00 -0.00000000000E+00 -0.45593999997E+02  0.45594000000E+02  0.51100000000E-03 0.  1.
    9900012    2    1    2    0    0  0.24319548936E+00  0.89461638086E+00  0.73070304486E+00  0.90007572342E+02  0.89999831497E+02 0.  0.
        -12    1    1    2    0    0 -0.24319548936E+00 -0.89461638086E+00 -0.73070304486E+00  0.11804276576E+01  0.00000000000E+00 0.  1.
         11    1    3    3    0    0 -0.18509126586E+02 -0.14649909640E+02  0.76376209331E+01  0.24810096195E+02  0.51100000000E-03 0. -1.
        -11    1    3    3    0    0 -0.20727745609E+02  0.17610996020E+01  0.56132277321E+01  0.21546443690E+02  0.51100000000E-03 0.  1.
        -12    1    3    3    0    0  0.39480067685E+02  0.13783426419E+02 -0.12520145620E+02  0.43651032457E+02  0.00000000000E+00 0.  1.
</event>
<event>
 7    1  0.4555057E-015  0.9000782E+02  0.7816164E-02  0.1186339E+00
        -11   -1    0    0    0    0  0.00000000000E+00  0.00000000000E+00  0.45593999997E+02  0.45594000000E+02  0.51100000000E-03 0. -1.
         11   -1    0    0    0    0 -0.00000000000E+00 -0.00000000000E+00 -0.45593999997E+02  0.45594000000E+02  0.51100000000E-03 0.  1.
    9900012    2    1    2    0    0  0.55975266515E+00 -0.68753174766E+00 -0.77897795247E+00  0.90007817980E+02  0.90000080377E+02 0.  0.
        -12    1    1    2    0    0 -0.55975266515E+00  0.68753174766E+00  0.77897795247E+00  0.11801820201E+01  0.00000000000E+00 0.  1.
         11    1    3    3    0    0 -0.33052828800E+01 -0.74274806607E+01 -0.28920740728E+01  0.86288154799E+01  0.51100000000E-03 0. -1.
        -11    1    3    3    0    0 -0.15308033248E+02 -0.25827912032E+02 -0.21399367721E+02  0.36869362091E+02  0.51100000000E-03 0.  1.
         12    1    3    3    0    0  0.19173068793E+02  0.32567860945E+02  0.23512463842E+02  0.44509640409E+02  0.00000000000E+00 0. -1.
</event>
<event>
 7    1  0.4555057E-015  0.9000770E+02  0.7816164E-02  0.1186339E+00
        -11   -1    0    0    0    0  0.00000000000E+00  0.00000000000E+00  0.45593999997E+02  0.45594000000E+02  0.51100000000E-03 0.  1.
         11   -1    0    0    0    0 -0.00000000000E+00 -0.00000000000E+00 -0.45593999997E+02  0.45594000000E+02  0.51100000000E-03 0. -1.
    9900012    2    1    2    0    0 -0.35143661952E-01 -0.62229694488E+00 -0.10023036300E+01  0.90007702948E+02  0.89999963827E+02 0.  0.
        -12    1    1    2    0    0  0.35143661952E-01  0.62229694488E+00  0.10023036300E+01  0.11802970521E+01  0.00000000000E+00 0.  1.
         11    1    3    3    0    0  0.15160188122E+00 -0.85387175332E+01  0.75982360904E+00  0.85737980160E+01  0.51100000000E-03 0. -1.
        -11    1    3    3    0    0 -0.23466329803E+01 -0.31862063427E+02  0.18312659407E+02  0.36824601382E+02  0.51100000000E-03 0.  1.
         12    1    3    3    0    0  0.21598874371E+01  0.39778484015E+02 -0.20074786646E+02  0.44609303549E+02  0.00000000000E+00 0. -1.
</event>
<event>
 7    1  0.4555057E-015  0.9000776E+02  0.7816164E-02  0.1186339E+00
        -11   -1    0    0    0    0  0.00000000000E+00  0.00000000000E+00  0.45593999997E+02  0.45594000000E+02  0.51100000000E-03 0. -1.
         11   -1    0    0    0    0 -0.00000000000E+00 -0.00000000000E+00 -0.45593999997E+02  0.45594000000E+02  0.51100000000E-03 0.  1.
    9900012    2    1    2    0    0  0.11413517162E+01  0.97216134873E-01 -0.28432690995E+00  0.90007755742E+02  0.90000017318E+02 0.  0.
        -12    1    1    2    0    0 -0.11413517162E+01 -0.97216134873E-01  0.28432690995E+00  0.11802442580E+01  0.00000000000E+00 0.  1.
         11    1    3    3    0    0  0.75274903843E+01 -0.24552777965E+00  0.46323437114E+01  0.88420588043E+01  0.51100000000E-03 0. -1.
        -11    1    3    3    0    0  0.17319701301E+02 -0.34638034421E+02 -0.11902941645E+01  0.38745093653E+02  0.51100000000E-03 0.  1.
         12    1    3    3    0    0 -0.23705839969E+02  0.34980778335E+02 -0.37263764569E+01  0.42420603285E+02  0.00000000000E+00 0. -1.
</event>
<event>
 7    1  0.4555057E-015  0.9000777E+02  0.7816164E-02  0.1186339E+00
        -11   -1    0    0    0    0  0.00000000000E+00  0.00000000000E+00  0.45593999997E+02  0.45594000000E+02  0.51100000000E-03 0. -1.
         11   -1    0    0    0    0 -0.00000000000E+00 -0.00000000000E+00 -0.45593999997E+02  0.45594000000E+02  0.51100000000E-03 0.  1.
    9900012    2    1    2    0    0  0.67132259974E+00 -0.12473312629E+00  0.96265810283E+00  0.90007769934E+02  0.90000031697E+02 0.  0.
        -12    1    1    2    0    0 -0.67132259974E+00  0.12473312629E+00 -0.96265810283E+00  0.11802300660E+01  0.00000000000E+00 0.  1.
         11    1    3    3    0    0 -0.82018586226E+01  0.43790518124E+01  0.34723203692E+02  0.35946452600E+02  0.51100000000E-03 0. -1.
        -11    1    3    3    0    0 -0.35290772292E+01 -0.55499232694E+00  0.88305571491E+01  0.95258145267E+01  0.51100000000E-03 0.  1.
        -12    1    3    3    0    0  0.12402258452E+02 -0.39487926118E+01 -0.42591102738E+02  0.44535502807E+02  0.00000000000E+00 0.  1.
</event>
<event>
 7    1  0.4555057E-015  0.9000787E+02  0.7816164E-02  0.1186339E+00
        -11   -1    0    0    0    0  0.00000000000E+00  0.00000000000E+00  0.45593999997E+02  0.45594000000E+02  0.51100000000E-03 0. -1.
         11   -1    0    0    0    0 -0.00000000000E+00 -0.00000000000E+00 -0.45593999997E+02  0.45594000000E+02  0.51100000000E-03 0.  1.
    9900012    2    1    2    0    0 -0.82190141089E+00  0.83357040483E+00  0.14945925695E+00  0.90007873050E+02  0.90000136174E+02 0.  0.
        -12    1    1    2    0    0  0.82190141089E+00 -0.83357040483E+00 -0.14945925695E+00  0.11801269502E+01  0.00000000000E+00 0.  1.
         11    1    3    3    0    0  0.98987939105E+01 -0.22254155729E+01 -0.16083728143E+00  0.10147140693E+02  0.51100000000E-03 0. -1.
        -11    1    3    3    0    0 -0.29127399629E+02  0.30901005337E+02 -0.12254098381E+02  0.44197742786E+02  0.51100000000E-03 0.  1.
         12    1    3    3    0    0  0.18406704307E+02 -0.27842019359E+02  0.12564394919E+02  0.35662989571E+02  0.00000000000E+00 0. -1.
</event>
<event>
 7    1  0.4555057E-015  0.9000774E+02  0.7816164E-02  0.1186339E+00
        -11   -1    0    0    0    0  0.00000000000E+00  0.00000000000E+00  0.45593999997E+02  0.45594000000E+02  0.51100000000E-03 0. -1.
         11   -1    0    0    0    0 -0.00000000000E+00 -0.00000000000E+00 -0.45593999997E+02  0.45594000000E+02  0.51100000000E-03 0.  1.
    9900012    2    1    2    0    0 -0.81662182568E+00 -0.78871833439E+00 -0.32260731707E+00  0.90007735920E+02  0.89999997234E+02 0.  0.
        -12    1    1    2    0    0  0.81662182568E+00  0.78871833439E+00  0.32260731707E+00  0.11802640799E+01  0.00000000000E+00 0.  1.
         11    1    3    3    0    0 -0.15535010212E+02  0.56401395948E+01  0.39082215986E+02  0.42433092317E+02  0.51100000000E-03 0. -1.
        -11    1    3    3    0    0  0.58379985013E+01  0.67768795464E+01 -0.66083418977E+01  0.11121083840E+02  0.51100000000E-03 0.  1.
        -12    1    3    3    0    0  0.88803898850E+01 -0.13205737476E+02 -0.32796481406E+02  0.36453559763E+02  0.00000000000E+00 0.  1.
</event>
<event>
 7    1  0.4555057E-015  0.9000774E+02  0.7816164E-02  0.1186339E+00
        -11   -1    0    0    0    0  0.00000000000E+00  0.00000000000E+00  0.45593999997E+02  0.45594000000E+02  0.51100000000E-03 0. -1.
         11   -1    0    0    0    0 -0.00000000000E+00 -0.00000000000E+00 -0.45593999997E+02  0.45594000000E+02  0.51100000000E-03 0.  1.
    9900012    2    1    2    0    0  0.21929292657E+00  0.71192411193E+00  0.91546898884E+00  0.90007742063E+02  0.90000003458E+02 0.  0.
        -12    1    1    2    0    0 -0.21929292657E+00 -0.71192411193E+00 -0.91546898884E+00  0.11802579372E+01  0.00000000000E+00 0.  1.
         11    1    3    3    0    0  0.87545129893E+01  0.45496500988E+01  0.17452663096E+01  0.10019319760E+02  0.51100000000E-03 0. -1.
        -11    1    3    3    0    0  0.22098947277E+02  0.21704889606E+02  0.18059971749E+02  0.35855659015E+02  0.51100000000E-03 0.  1.
         12    1    3    3    0    0 -0.30634167340E+02 -0.25542615593E+02 -0.18889769070E+02  0.44132763288E+02  0.00000000000E+00 0. -1.
</event>
<event>
 7    1  0.4555057E-015  0.9000764E+02  0.7816164E-02  0.1186339E+00
        -11   -1    0    0    0    0  0.00000000000E+00  0.00000000000E+00  0.45593999997E+02  0.45594000000E+02  0.51100000000E-03 0. -1.
         11   -1    0    0    0    0 -0.00000000000E+00 -0.00000000000E+00 -0.45593999997E+02  0.45594000000E+02  0.51100000000E-03 0.  1.
    9900012    2    1    2    0    0 -0.61929143624E+00 -0.95425849608E+00 -0.31483669158E+00  0.90007638486E+02  0.89999898514E+02 0.  0.
        -12    1    1    2    0    0  0.61929143624E+00  0.95425849608E+00  0.31483669158E+00  0.11803615136E+01  0.00000000000E+00 0.  1.
         11    1    3    3    0    0  0.30807814213E+00 -0.94339743705E+01 -0.19869366421E+01  0.96458645048E+01  0.51100000000E-03 0. -1.
        -11    1    3    3    0    0 -0.22837170621E+02 -0.28209333580E+02  0.79909372337E+01  0.37163933338E+02  0.51100000000E-03 0.  1.
         12    1    3    3    0    0  0.21909801043E+02  0.36689049455E+02 -0.63188372831E+01  0.43197840643E+02  0.00000000000E+00 0. -1.
</event>
<event>
 7    1  0.4555057E-015  0.9000822E+02  0.7816164E-02  0.1186338E+00
        -11   -1    0    0    0    0  0.00000000000E+00  0.00000000000E+00  0.45593999997E+02  0.45594000000E+02  0.51100000000E-03 0.  1.
         11   -1    0    0    0    0 -0.00000000000E+00 -0.00000000000E+00 -0.45593999997E+02  0.45594000000E+02  0.51100000000E-03 0. -1.
    9900012    2    1    2    0    0  0.11288042182E+01 -0.34300116543E+00 -0.52574710567E-02  0.90008221884E+02  0.90000489611E+02 0.  0.
        -12    1    1    2    0    0 -0.11288042182E+01  0.34300116543E+00  0.52574710567E-02  0.11797781162E+01  0.00000000000E+00 0.  1.
         11    1    3    3    0    0  0.74461903411E+00 -0.36234424198E+01 -0.80776663082E+01  0.88843956308E+01  0.51100000000E-03 0. -1.
        -11    1    3    3    0    0 -0.26908821619E+02 -0.26148910193E+02  0.14971566933E+02  0.40397995023E+02  0.51100000000E-03 0.  1.
         12    1    3    3    0    0  0.27293006803E+02  0.29429351447E+02 -0.68991580960E+01  0.40725831230E+02  0.00000000000E+00 0. -1.
</event>
<event>
 7    1  0.4555057E-015  0.9000763E+02  0.7816164E-02  0.1186339E+00
        -11   -1    0    0    0    0  0.00000000000E+00  0.00000000000E+00  0.45593999997E+02  0.45594000000E+02  0.51100000000E-03 0.  1.
         11   -1    0    0    0    0 -0.00000000000E+00 -0.00000000000E+00 -0.45593999997E+02  0.45594000000E+02  0.51100000000E-03 0. -1.
    9900012    2    1    2    0    0  0.73877853418E+00  0.72497421386E+00 -0.56735059035E+00  0.90007632250E+02  0.89999892195E+02 0.  0.
        -12    1    1    2    0    0 -0.73877853418E+00 -0.72497421386E+00  0.56735059035E+00  0.11803677502E+01  0.00000000000E+00 0.  1.
         11    1    3    3    0    0  0.30188145392E+02 -0.19460341992E+02  0.11113756820E+02  0.37597135842E+02  0.51100000000E-03 0. -1.
        -11    1    3    3    0    0  0.53298732208E+01 -0.47746224348E+01 -0.57766305999E+01  0.91964139366E+01  0.51100000000E-03 0.  1.
        -12    1    3    3    0    0 -0.34779240079E+02  0.24959938641E+02 -0.59044768101E+01  0.43214082471E+02  0.00000000000E+00 0.  1.
</event>
<event>
 7    1  0.4555057E-015  0.9000786E+02  0.7816164E-02  0.1186339E+00
        -11   -1    0    0    0    0  0.00000000000E+00  0.00000000000E+00  0.45593999997E+02  0.45594000000E+02  0.51100000000E-03 0. -1.
         11   -1    0    0    0    0 -0.00000000000E+00 -0.00000000000E+00 -0.45593999997E+02  0.45594000000E+02  0.51100000000E-03 0.  1.
    9900012    2    1    2    0    0  0.11747547913E+01  0.10548813673E+00 -0.39320466373E-01  0.90007863285E+02  0.90000126280E+02 0.  0.
        -12    1    1    2    0    0 -0.11747547913E+01 -0.10548813673E+00  0.39320466373E-01  0.11801367149E+01  0.00000000000E+00 0.  1.
         11    1    3    3    0    0  0.98207640358E+01  0.21261265012E+01 -0.59219003452E+01  0.11663478216E+02  0.51100000000E-03 0. -1.
        -11    1    3    3    0    0  0.11798198240E+02  0.22374344628E+02 -0.23866960536E+02  0.34777012303E+02  0.51100000000E-03 0.  1.
         12    1    3    3    0    0 -0.20444207485E+02 -0.24394982992E+02  0.29749540414E+02  0.43567372766E+02  0.00000000000E+00 0. -1.
</event>
<event>
 7    1  0.4555057E-015  0.9000779E+02  0.7816164E-02  0.1186339E+00
        -11   -1    0    0    0    0  0.00000000000E+00  0.00000000000E+00  0.45593999997E+02  0.45594000000E+02  0.51100000000E-03 0.  1.
         11   -1    0    0    0    0 -0.00000000000E+00 -0.00000000000E+00 -0.45593999997E+02  0.45594000000E+02  0.51100000000E-03 0. -1.
    9900012    2    1    2    0    0 -0.76005349640E+00  0.37266499806E+00 -0.82239311696E+00  0.90007791986E+02  0.90000054040E+02 0.  0.
        -12    1    1    2    0    0  0.76005349640E+00 -0.37266499806E+00  0.82239311696E+00  0.11802080143E+01  0.00000000000E+00 0.  1.
         11    1    3    3    0    0  0.36714216697E+00  0.14415939955E+02 -0.30783692002E+02  0.33993967284E+02  0.51100000000E-03 0. -1.
        -11    1    3    3    0    0  0.16723629942E+01  0.81651008284E+01 -0.82510717795E+01  0.11727994513E+02  0.51100000000E-03 0.  1.
        -12    1    3    3    0    0 -0.27995586575E+01 -0.22208375785E+02  0.38212370665E+02  0.44285830189E+02  0.00000000000E+00 0.  1.
</event>
<event>
 7    1  0.4555057E-015  0.9000775E+02  0.7816164E-02  0.1186339E+00
        -11   -1    0    0    0    0  0.00000000000E+00  0.00000000000E+00  0.45593999997E+02  0.45594000000E+02  0.51100000000E-03 0.  1.
         11   -1    0    0    0    0 -0.00000000000E+00 -0.00000000000E+00 -0.45593999997E+02  0.45594000000E+02  0.51100000000E-03 0. -1.
    9900012    2    1    2    0    0 -0.60015243863E+00 -0.29654601013E+00 -0.97203849022E+00  0.90007753707E+02  0.90000015256E+02 0.  0.
        -12    1    1    2    0    0  0.60015243863E+00  0.29654601013E+00  0.97203849022E+00  0.11802462930E+01  0.00000000000E+00 0.  1.
         11    1    3    3    0    0 -0.33225454251E+01  0.23851168970E+00 -0.38292468012E+02  0.38437082390E+02  0.51100000000E-03 0. -1.
        -11    1    3    3    0    0  0.76362994198E+01  0.64988378369E+01 -0.29054918784E+01  0.10439820179E+02  0.51100000000E-03 0.  1.
        -12    1    3    3    0    0 -0.49139064333E+01 -0.70338955367E+01  0.40225921400E+02  0.41130851138E+02  0.00000000000E+00 0.  1.
</event>
<event>
 7    1  0.4555057E-015  0.9000747E+02  0.7816164E-02  0.1186340E+00
        -11   -1    0    0    0    0  0.00000000000E+00  0.00000000000E+00  0.45593999997E+02  0.45594000000E+02  0.51100000000E-03 0.  1.
         11   -1    0    0    0    0 -0.00000000000E+00 -0.00000000000E+00 -0.45593999997E+02  0.45594000000E+02  0.51100000000E-03 0. -1.
    9900012    2    1    2    0    0 -0.11355814878E+01  0.25357902857E+00 -0.19949910219E+00  0.90007471504E+02  0.89999729327E+02 0.  0.
        -12    1    1    2    0    0  0.11355814878E+01 -0.25357902857E+00  0.19949910219E+00  0.11805284965E+01  0.00000000000E+00 0.  1.
         11    1    3    3    0    0 -0.31790627562E+02 -0.18993072527E+02  0.22604966510E+01  0.37101086913E+02  0.51100000000E-03 0. -1.
        -11    1    3    3    0    0  0.27318239149E+01  0.96511883209E+00  0.14974080051E+02  0.15251799563E+02  0.51100000000E-03 0.  1.
        -12    1    3    3    0    0  0.27923222159E+02  0.18281532723E+02 -0.17434075804E+02  0.37654585028E+02  0.00000000000E+00 0.  1.
</event>
<event>
 7    1  0.4555057E-015  0.9000766E+02  0.7816164E-02  0.1186339E+00
        -11   -1    0    0    0    0  0.00000000000E+00  0.00000000000E+00  0.45593999997E+02  0.45594000000E+02  0.51100000000E-03 0. -1.
         11   -1    0    0    0    0 -0.00000000000E+00 -0.00000000000E+00 -0.45593999997E+02  0.45594000000E+02  0.51100000000E-03 0.  1.
    9900012    2    1    2    0    0 -0.54972520449E+00  0.89774666424E+00  0.53390332959E+00  0.90007661219E+02  0.89999921547E+02 0.  0.
        -12    1    1    2    0    0  0.54972520449E+00 -0.89774666424E+00 -0.53390332959E+00  0.11803387814E+01  0.00000000000E+00 0.  1.
         11    1    3    3    0    0  0.23617139776E+00  0.13906704862E+02  0.29877539344E+02  0.32956328293E+02  0.51100000000E-03 0. -1.
        -11    1    3    3    0    0 -0.72275248933E+01 -0.68475161381E-01  0.11579556888E+02  0.13650199373E+02  0.51100000000E-03 0.  1.
        -12    1    3    3    0    0  0.64416282911E+01 -0.12940483037E+02 -0.40923192903E+02  0.43401133552E+02  0.00000000000E+00 0.  1.
</event>
<event>
 7    1  0.4555057E-015  0.9000739E+02  0.7816164E-02  0.1186340E+00
        -11   -1    0    0    0    0  0.00000000000E+00  0.00000000000E+00  0.45593999997E+02  0.45594000000E+02  0.51100000000E-03 0. -1.
         11   -1    0    0    0    0 -0.00000000000E+00 -0.00000000000E+00 -0.45593999997E+02  0.45594000000E+02  0.51100000000E-03 0.  1.
    9900012    2    1    2    0    0 -0.47225953283E+00  0.30013365727E+00  0.10395791523E+01  0.90007392490E+02  0.89999649270E+02 0.  0.
        -12    1    1    2    0    0  0.47225953283E+00 -0.30013365727E+00 -0.10395791523E+01  0.11806075099E+01  0.00000000000E+00 0.  1.
         11    1    3    3    0    0 -0.55726190543E+01  0.43214107825E+01 -0.56089544565E+01  0.90104963588E+01  0.51100000000E-03 0. -1.
        -11    1    3    3    0    0  0.35763182455E+02  0.19274178397E+02 -0.45832719726E+01  0.40884050123E+02  0.51100000000E-03 0.  1.
         12    1    3    3    0    0 -0.30662822934E+02 -0.23295455522E+02  0.11231805581E+02  0.40112846008E+02  0.00000000000E+00 0. -1.
</event>
<event>
 7    1  0.4555057E-015  0.9000776E+02  0.7816164E-02  0.1186339E+00
        -11   -1    0    0    0    0  0.00000000000E+00  0.00000000000E+00  0.45593999997E+02  0.45594000000E+02  0.51100000000E-03 0.  1.
         11   -1    0    0    0    0 -0.00000000000E+00 -0.00000000000E+00 -0.45593999997E+02  0.45594000000E+02  0.51100000000E-03 0. -1.
    9900012    2    1    2    0    0 -0.10194851415E+01  0.43016946828E+00  0.41056501839E+00  0.90007763007E+02  0.90000024679E+02 0.  0.
        -12    1    1    2    0    0  0.10194851415E+01 -0.43016946828E+00 -0.41056501839E+00  0.11802369930E+01  0.00000000000E+00 0.  1.
         11    1    3    3    0    0 -0.74078053484E+01  0.67074253586E+01 -0.40071184046E+01  0.10766714132E+02  0.51100000000E-03 0. -1.
        -11    1    3    3    0    0  0.15128853622E+02  0.27663626568E+02 -0.19257206639E+02  0.36945885489E+02  0.51100000000E-03 0.  1.
         12    1    3    3    0    0 -0.87405334154E+01 -0.33940882458E+02  0.23674890062E+02  0.42295163386E+02  0.00000000000E+00 0. -1.
</event>
<event>
 7    1  0.4555057E-015  0.9000784E+02  0.7816164E-02  0.1186339E+00
        -11   -1    0    0    0    0  0.00000000000E+00  0.00000000000E+00  0.45593999997E+02  0.45594000000E+02  0.51100000000E-03 0. -1.
         11   -1    0    0    0    0 -0.00000000000E+00 -0.00000000000E+00 -0.45593999997E+02  0.45594000000E+02  0.51100000000E-03 0.  1.
    9900012    2    1    2    0    0 -0.48993340651E+00  0.83402426210E-02  0.10736264545E+01  0.90007839813E+02  0.90000102499E+02 0.  0.
        -12    1    1    2    0    0  0.48993340651E+00 -0.83402426210E-02 -0.10736264545E+01  0.11801601867E+01  0.00000000000E+00 0.  1.
         11    1    3    3    0    0  0.74230400077E+01  0.38184639532E+01  0.41527987312E+01  0.93235147601E+01  0.51100000000E-03 0. -1.
        -11    1    3    3    0    0  0.20409057013E+02 -0.17992519522E+02  0.26038409738E+02  0.37659781583E+02  0.51100000000E-03 0.  1.
         12    1    3    3    0    0 -0.28322030427E+02  0.14182395811E+02 -0.29117582015E+02  0.43024543471E+02  0.00000000000E+00 0. -1.
</event>
<event>
 7    1  0.4555057E-015  0.9000775E+02  0.7816164E-02  0.1186339E+00
        -11   -1    0    0    0    0  0.00000000000E+00  0.00000000000E+00  0.45593999997E+02  0.45594000000E+02  0.51100000000E-03 0.  1.
         11   -1    0    0    0    0 -0.00000000000E+00 -0.00000000000E+00 -0.45593999997E+02  0.45594000000E+02  0.51100000000E-03 0. -1.
    9900012    2    1    2    0    0 -0.46782820741E+00  0.10217134286E+01 -0.36088271081E+00  0.90007746683E+02  0.90000008139E+02 0.  0.
        -12    1    1    2    0    0  0.46782820741E+00 -0.10217134286E+01  0.36088271081E+00  0.11802533172E+01  0.00000000000E+00 0.  1.
         11    1    3    3    0    0 -0.69406129502E+01 -0.30321789963E+01  0.73862117131E+01  0.10579335580E+02  0.51100000000E-03 0. -1.
        -11    1    3    3    0    0 -0.97482852884E+01 -0.29403754639E+02  0.16441589112E+02  0.35070439201E+02  0.51100000000E-03 0.  1.
         12    1    3    3    0    0  0.16221070031E+02  0.33457647064E+02 -0.24188683536E+02  0.44357971902E+02  0.00000000000E+00 0. -1.
</event>
<event>
 7    1  0.4555057E-015  0.9000782E+02  0.7816164E-02  0.1186339E+00
        -11   -1    0    0    0    0  0.00000000000E+00  0.00000000000E+00  0.45593999997E+02  0.45594000000E+02  0.51100000000E-03 0. -1.
         11   -1    0    0    0    0 -0.00000000000E+00 -0.00000000000E+00 -0.45593999997E+02  0.45594000000E+02  0.51100000000E-03 0.  1.
    9900012    2    1    2    0    0  0.66084930466E+00 -0.41480246685E-02  0.97779498252E+00  0.90007821184E+02  0.90000083624E+02 0.  0.
        -12    1    1    2    0    0 -0.66084930466E+00  0.41480246685E-02 -0.97779498252E+00  0.11801788159E+01  0.00000000000E+00 0.  1.
         11    1    3    3    0    0 -0.43678226436E+01 -0.55646319864E+01  0.72138331634E+01  0.10103583174E+02  0.51100000000E-03 0. -1.
        -11    1    3    3    0    0 -0.36150764590E+02 -0.46332077803E+01 -0.84892413235E+01  0.37422073878E+02  0.51100000000E-03 0.  1.
         12    1    3    3    0    0  0.41179436538E+02  0.10193691742E+02  0.22532031425E+01  0.42482164132E+02  0.00000000000E+00 0. -1.
</event>
<event>
 7    1  0.4555057E-015  0.9000775E+02  0.7816164E-02  0.1186339E+00
        -11   -1    0    0    0    0  0.00000000000E+00  0.00000000000E+00  0.45593999997E+02  0.45594000000E+02  0.51100000000E-03 0. -1.
         11   -1    0    0    0    0 -0.00000000000E+00 -0.00000000000E+00 -0.45593999997E+02  0.45594000000E+02  0.51100000000E-03 0.  1.
    9900012    2    1    2    0    0  0.56575005051E+00 -0.14299457061E+00  0.10258937105E+01  0.90007754910E+02  0.90000016475E+02 0.  0.
        -12    1    1    2    0    0 -0.56575005051E+00  0.14299457061E+00 -0.10258937105E+01  0.11802450898E+01  0.00000000000E+00 0.  1.
         11    1    3    3    0    0  0.10311475395E+02  0.42454283974E+01  0.19150960512E+01  0.11314494255E+02  0.51100000000E-03 0. -1.
        -11    1    3    3    0    0  0.32903661818E+02  0.87679100634E+01  0.40379273688E-02  0.34051831441E+02  0.51100000000E-03 0.  1.
         12    1    3    3    0    0 -0.42649387162E+02 -0.13156333031E+02 -0.89324026807E+00  0.44641429215E+02  0.00000000000E+00 0. -1.
</event>
<event>
 7    1  0.4555057E-015  0.9000776E+02  0.7816164E-02  0.1186339E+00
        -11   -1    0    0    0    0  0.00000000000E+00  0.00000000000E+00  0.45593999997E+02  0.45594000000E+02  0.51100000000E-03 0.  1.
         11   -1    0    0    0    0 -0.00000000000E+00 -0.00000000000E+00 -0.45593999997E+02  0.45594000000E+02  0.51100000000E-03 0. -1.
    9900012    2    1    2    0    0  0.37196759224E+00 -0.86102181021E+00 -0.71640828176E+00  0.90007763043E+02  0.90000024716E+02 0.  0.
        -12    1    1    2    0    0 -0.37196759224E+00  0.86102181021E+00  0.71640828176E+00  0.11802369565E+01  0.00000000000E+00 0.  1.
         11    1    3    3    0    0 -0.11893264081E+02 -0.18609247073E+02 -0.32243134064E+02  0.39081626138E+02  0.51100000000E-03 0. -1.
        -11    1    3    3    0    0  0.83149436895E+01 -0.77394524254E+01  0.16861148046E+01  0.11483919009E+02  0.51100000000E-03 0.  1.
        -12    1    3    3    0    0  0.39502879837E+01  0.25487677688E+02  0.29840610977E+02  0.39442217896E+02  0.00000000000E+00 0.  1.
</event>
<event>
 7    1  0.4555057E-015  0.9000777E+02  0.7816164E-02  0.1186339E+00
        -11   -1    0    0    0    0  0.00000000000E+00  0.00000000000E+00  0.45593999997E+02  0.45594000000E+02  0.51100000000E-03 0. -1.
         11   -1    0    0    0    0 -0.00000000000E+00 -0.00000000000E+00 -0.45593999997E+02  0.45594000000E+02  0.51100000000E-03 0.  1.
    9900012    2    1    2    0    0 -0.69804369673E+00 -0.93895398951E+00 -0.15509144308E+00  0.90007765721E+02  0.90000027429E+02 0.  0.
        -12    1    1    2    0    0  0.69804369673E+00  0.93895398951E+00  0.15509144308E+00  0.11802342787E+01  0.00000000000E+00 0.  1.
         11    1    3    3    0    0  0.11529167629E+02 -0.97876409937E+01  0.35869738713E+01  0.15543037163E+02  0.51100000000E-03 0. -1.
        -11    1    3    3    0    0  0.26242011683E+02  0.71423787728E+01 -0.18860170929E+02  0.33096265642E+02  0.51100000000E-03 0.  1.
         12    1    3    3    0    0 -0.38469223009E+02  0.17063082314E+01  0.15118105615E+02  0.41368462916E+02  0.00000000000E+00 0. -1.
</event>
<event>
 7    1  0.4555057E-015  0.9000777E+02  0.7816164E-02  0.1186339E+00
        -11   -1    0    0    0    0  0.00000000000E+00  0.00000000000E+00  0.45593999997E+02  0.45594000000E+02  0.51100000000E-03 0. -1.
         11   -1    0    0    0    0 -0.00000000000E+00 -0.00000000000E+00 -0.45593999997E+02  0.45594000000E+02  0.51100000000E-03 0.  1.
    9900012    2    1    2    0    0 -0.11250849852E+01 -0.28549046986E+00  0.21361489111E+00  0.90007765975E+02  0.90000027686E+02 0.  0.
        -12    1    1    2    0    0  0.11250849852E+01  0.28549046986E+00 -0.21361489111E+00  0.11802340251E+01  0.00000000000E+00 0.  1.
         11    1    3    3    0    0  0.43926928309E+01  0.40541145335E+01  0.69614483761E+01  0.91756939090E+01  0.51100000000E-03 0. -1.
        -11    1    3    3    0    0 -0.15895750228E+02  0.35273917259E+02  0.27734304212E+01  0.38789380385E+02  0.51100000000E-03 0.  1.
         12    1    3    3    0    0  0.10377972411E+02 -0.39613522262E+02 -0.95212639062E+01  0.42042691681E+02  0.00000000000E+00 0. -1.
</event>
<event>
 7    1  0.4555057E-015  0.9000772E+02  0.7816164E-02  0.1186339E+00
        -11   -1    0    0    0    0  0.00000000000E+00  0.00000000000E+00  0.45593999997E+02  0.45594000000E+02  0.51100000000E-03 0. -1.
         11   -1    0    0    0    0 -0.00000000000E+00 -0.00000000000E+00 -0.45593999997E+02  0.45594000000E+02  0.51100000000E-03 0.  1.
    9900012    2    1    2    0    0  0.62628456387E+00  0.96127268834E+00 -0.27710026675E+00  0.90007719485E+02  0.89999980582E+02 0.  0.
        -12    1    1    2    0    0 -0.62628456387E+00 -0.96127268834E+00  0.27710026675E+00  0.11802805150E+01  0.00000000000E+00 0.  1.
         11    1    3    3    0    0 -0.95539507057E+01 -0.74687375854E+01  0.21408195921E+02  0.24604285563E+02  0.51100000000E-03 0. -1.
        -11    1    3    3    0    0 -0.11524287288E+02 -0.20589674487E+02 -0.16508315234E+02  0.28797020074E+02  0.51100000000E-03 0.  1.
         12    1    3    3    0    0  0.21704522558E+02  0.29019684761E+02 -0.51769809535E+01  0.36606413849E+02  0.00000000000E+00 0. -1.
</event>
<event>
 7    1  0.4555057E-015  0.9000776E+02  0.7816164E-02  0.1186339E+00
        -11   -1    0    0    0    0  0.00000000000E+00  0.00000000000E+00  0.45593999997E+02  0.45594000000E+02  0.51100000000E-03 0.  1.
         11   -1    0    0    0    0 -0.00000000000E+00 -0.00000000000E+00 -0.45593999997E+02  0.45594000000E+02  0.51100000000E-03 0. -1.
    9900012    2    1    2    0    0  0.58564271300E+00  0.13614560484E+00 -0.10156074657E+01  0.90007757848E+02  0.90000019452E+02 0.  0.
        -12    1    1    2    0    0 -0.58564271300E+00 -0.13614560484E+00  0.10156074657E+01  0.11802421520E+01  0.00000000000E+00 0.  1.
         11    1    3    3    0    0  0.76548099403E+01 -0.35223015802E+02 -0.10387976713E+02  0.37512224912E+02  0.51100000000E-03 0. -1.
        -11    1    3    3    0    0  0.45678623040E+01  0.97715407420E-01 -0.97217028264E+01  0.10741807131E+02  0.51100000000E-03 0.  1.
        -12    1    3    3    0    0 -0.11637029531E+02  0.35261445999E+02  0.19094072074E+02  0.41753725805E+02  0.00000000000E+00 0.  1.
</event>
<event>
 7    1  0.4555057E-015  0.9000773E+02  0.7816164E-02  0.1186339E+00
        -11   -1    0    0    0    0  0.00000000000E+00  0.00000000000E+00  0.45593999997E+02  0.45594000000E+02  0.51100000000E-03 0.  1.
         11   -1    0    0    0    0 -0.00000000000E+00 -0.00000000000E+00 -0.45593999997E+02  0.45594000000E+02  0.51100000000E-03 0. -1.
    9900012    2    1    2    0    0  0.20091394222E+00  0.17076567956E+00 -0.11504426389E+01  0.90007726475E+02  0.89999987664E+02 0.  0.
        -12    1    1    2    0    0 -0.20091394222E+00 -0.17076567956E+00  0.11504426389E+01  0.11802735254E+01  0.00000000000E+00 0.  1.
         11    1    3    3    0    0 -0.49345366483E+01  0.14150797833E+02 -0.32031416931E+02  0.35363913841E+02  0.51100000000E-03 0. -1.
        -11    1    3    3    0    0 -0.49883996823E+01  0.53450852810E+01 -0.75137320114E+01  0.10483808328E+02  0.51100000000E-03 0.  1.
        -12    1    3    3    0    0  0.10123850273E+02 -0.19325117434E+02  0.38394706304E+02  0.44160004306E+02  0.00000000000E+00 0.  1.
</event>
<event>
 7    1  0.4555057E-015  0.9000771E+02  0.7816164E-02  0.1186339E+00
        -11   -1    0    0    0    0  0.00000000000E+00  0.00000000000E+00  0.45593999997E+02  0.45594000000E+02  0.51100000000E-03 0.  1.
         11   -1    0    0    0    0 -0.00000000000E+00 -0.00000000000E+00 -0.45593999997E+02  0.45594000000E+02  0.51100000000E-03 0. -1.
    9900012    2    1    2    0    0 -0.29836149703E+00  0.10620277821E+01  0.41972253816E+00  0.90007707832E+02  0.89999968775E+02 0.  0.
        -12    1    1    2    0    0  0.29836149703E+00 -0.10620277821E+01 -0.41972253816E+00  0.11802921680E+01  0.00000000000E+00 0.  1.
         11    1    3    3    0    0  0.40517534177E+00 -0.40103098964E+01 -0.38524930869E+02  0.38735217197E+02  0.51100000000E-03 0. -1.
        -11    1    3    3    0    0 -0.73626113286E+01  0.83044855589E+01 -0.52891574105E+00  0.11110908068E+02  0.51100000000E-03 0.  1.
        -12    1    3    3    0    0  0.66590744898E+01 -0.32321478803E+01  0.39473569149E+02  0.40161582567E+02  0.00000000000E+00 0.  1.
</event>
<event>
 7    1  0.4555057E-015  0.9000774E+02  0.7816164E-02  0.1186339E+00
        -11   -1    0    0    0    0  0.00000000000E+00  0.00000000000E+00  0.45593999997E+02  0.45594000000E+02  0.51100000000E-03 0.  1.
         11   -1    0    0    0    0 -0.00000000000E+00 -0.00000000000E+00 -0.45593999997E+02  0.45594000000E+02  0.51100000000E-03 0. -1.
    9900012    2    1    2    0    0 -0.10181348779E+01 -0.25768860432E+00 -0.53852582099E+00  0.90007740661E+02  0.90000002038E+02 0.  0.
        -12    1    1    2    0    0  0.10181348779E+01  0.25768860432E+00  0.53852582099E+00  0.11802593386E+01  0.00000000000E+00 0.  1.
         11    1    3    3    0    0 -0.64766023977E+01 -0.27319212683E+01  0.61789926346E+01  0.93589381168E+01  0.51100000000E-03 0. -1.
        -11    1    3    3    0    0 -0.19268601282E+02 -0.12642627354E+02  0.27452352007E+02  0.35843362743E+02  0.51100000000E-03 0.  1.
         12    1    3    3    0    0  0.24727068802E+02  0.15116860018E+02 -0.34169870463E+02  0.44805439801E+02  0.00000000000E+00 0. -1.
</event>
<event>
 7    1  0.4555057E-015  0.9000775E+02  0.7816164E-02  0.1186339E+00
        -11   -1    0    0    0    0  0.00000000000E+00  0.00000000000E+00  0.45593999997E+02  0.45594000000E+02  0.51100000000E-03 0.  1.
         11   -1    0    0    0    0 -0.00000000000E+00 -0.00000000000E+00 -0.45593999997E+02  0.45594000000E+02  0.51100000000E-03 0. -1.
    9900012    2    1    2    0    0 -0.79573244769E+00  0.62229636910E+00  0.61036094648E+00  0.90007752829E+02  0.90000014366E+02 0.  0.
        -12    1    1    2    0    0  0.79573244769E+00 -0.62229636910E+00 -0.61036094648E+00  0.11802471708E+01  0.00000000000E+00 0.  1.
         11    1    3    3    0    0 -0.93507545647E+01 -0.35860080150E+01  0.49000879531E+01  0.11149301620E+02  0.51100000000E-03 0. -1.
        -11    1    3    3    0    0 -0.87136370176E+01  0.75349150316E+00  0.34854507904E+02  0.35935107361E+02  0.51100000000E-03 0.  1.
         12    1    3    3    0    0  0.17268659135E+02  0.34548128810E+01 -0.39144234911E+02  0.42923343848E+02  0.00000000000E+00 0. -1.
</event>
<event>
 7    1  0.4555057E-015  0.9000774E+02  0.7816164E-02  0.1186339E+00
        -11   -1    0    0    0    0  0.00000000000E+00  0.00000000000E+00  0.45593999997E+02  0.45594000000E+02  0.51100000000E-03 0. -1.
         11   -1    0    0    0    0 -0.00000000000E+00 -0.00000000000E+00 -0.45593999997E+02  0.45594000000E+02  0.51100000000E-03 0.  1.
    9900012    2    1    2    0    0 -0.12046030510E+00  0.11739750319E+01  0.16665641156E-01  0.90007743331E+02  0.90000004743E+02 0.  0.
        -12    1    1    2    0    0  0.12046030510E+00 -0.11739750319E+01 -0.16665641156E-01  0.11802566688E+01  0.00000000000E+00 0.  1.
         11    1    3    3    0    0 -0.46466101011E+01 -0.47037019587E+01 -0.97745188306E+01  0.11800721003E+02  0.51100000000E-03 0. -1.
        -11    1    3    3    0    0 -0.30901128008E+02 -0.68717814224E+01  0.22085746852E+02  0.38598980639E+02  0.51100000000E-03 0.  1.
         12    1    3    3    0    0  0.35427277804E+02  0.12749458413E+02 -0.12294562380E+02  0.39608041690E+02  0.00000000000E+00 0. -1.
</event>
<event>
 7    1  0.4555057E-015  0.9000788E+02  0.7816164E-02  0.1186339E+00
        -11   -1    0    0    0    0  0.00000000000E+00  0.00000000000E+00  0.45593999997E+02  0.45594000000E+02  0.51100000000E-03 0.  1.
         11   -1    0    0    0    0 -0.00000000000E+00 -0.00000000000E+00 -0.45593999997E+02  0.45594000000E+02  0.51100000000E-03 0. -1.
    9900012    2    1    2    0    0 -0.73335286976E-01  0.39241357327E+00 -0.11105445926E+01  0.90007883154E+02  0.90000146412E+02 0.  0.
        -12    1    1    2    0    0  0.73335286976E-01 -0.39241357327E+00  0.11105445926E+01  0.11801168455E+01  0.00000000000E+00 0.  1.
         11    1    3    3    0    0  0.29358156755E+02 -0.21174771406E+02 -0.63046127467E+01  0.36742624488E+02  0.51100000000E-03 0. -1.
        -11    1    3    3    0    0  0.60127297765E+01 -0.54368160234E+01  0.30287641949E+01  0.86536293339E+01  0.51100000000E-03 0.  1.
        -12    1    3    3    0    0 -0.35444221818E+02  0.27004001003E+02  0.21653039591E+01  0.44611629332E+02  0.00000000000E+00 0.  1.
</event>
<event>
 7    1  0.4555057E-015  0.9000792E+02  0.7816164E-02  0.1186339E+00
        -11   -1    0    0    0    0  0.00000000000E+00  0.00000000000E+00  0.45593999997E+02  0.45594000000E+02  0.51100000000E-03 0.  1.
         11   -1    0    0    0    0 -0.00000000000E+00 -0.00000000000E+00 -0.45593999997E+02  0.45594000000E+02  0.51100000000E-03 0. -1.
    9900012    2    1    2    0    0 -0.48720407223E-01  0.10567355376E+01 -0.52298506583E+00  0.90007924980E+02  0.90000188789E+02 0.  0.
        -12    1    1    2    0    0  0.48720407223E-01 -0.10567355376E+01  0.52298506583E+00  0.11800750204E+01  0.00000000000E+00 0.  1.
         11    1    3    3    0    0 -0.12583062316E+01 -0.16298380547E+01  0.99438858401E+01  0.10154830009E+02  0.51100000000E-03 0. -1.
        -11    1    3    3    0    0 -0.10870379573E+02  0.27160926815E+02  0.22606616146E+02  0.36972154269E+02  0.51100000000E-03 0.  1.
         12    1    3    3    0    0  0.12079965397E+02 -0.24474353222E+02 -0.33073487052E+02  0.42880940701E+02  0.00000000000E+00 0. -1.
</event>
<event>
 7    1  0.4555057E-015  0.9000765E+02  0.7816164E-02  0.1186339E+00
        -11   -1    0    0    0    0  0.00000000000E+00  0.00000000000E+00  0.45593999997E+02  0.45594000000E+02  0.51100000000E-03 0.  1.
         11   -1    0    0    0    0 -0.00000000000E+00 -0.00000000000E+00 -0.45593999997E+02  0.45594000000E+02  0.51100000000E-03 0. -1.
    9900012    2    1    2    0    0 -0.71392564528E+00  0.57198278871E+00 -0.74589782513E+00  0.90007653566E+02  0.89999913794E+02 0.  0.
        -12    1    1    2    0    0  0.71392564528E+00 -0.57198278871E+00  0.74589782513E+00  0.11803464335E+01  0.00000000000E+00 0.  1.
         11    1    3    3    0    0 -0.12225383625E+02  0.54037205281E+01  0.17124048420E+00  0.13367480087E+02  0.51100000000E-03 0. -1.
        -11    1    3    3    0    0 -0.23739824383E+02  0.19392777130E+02 -0.11222881062E+02  0.32643714956E+02  0.51100000000E-03 0.  1.
         12    1    3    3    0    0  0.35251282363E+02 -0.24224514869E+02  0.10305742753E+02  0.43996458523E+02  0.00000000000E+00 0. -1.
</event>
<event>
 7    1  0.4555057E-015  0.9000775E+02  0.7816164E-02  0.1186339E+00
        -11   -1    0    0    0    0  0.00000000000E+00  0.00000000000E+00  0.45593999997E+02  0.45594000000E+02  0.51100000000E-03 0. -1.
         11   -1    0    0    0    0 -0.00000000000E+00 -0.00000000000E+00 -0.45593999997E+02  0.45594000000E+02  0.51100000000E-03 0.  1.
    9900012    2    1    2    0    0  0.64720738841E+00  0.76422843426E+00  0.62454631849E+00  0.90007754006E+02  0.90000015558E+02 0.  0.
        -12    1    1    2    0    0 -0.64720738841E+00 -0.76422843426E+00 -0.62454631849E+00  0.11802459944E+01  0.00000000000E+00 0.  1.
         11    1    3    3    0    0 -0.89109469904E+00 -0.51994188503E+01  0.90634775033E+01  0.10486878986E+02  0.51100000000E-03 0. -1.
        -11    1    3    3    0    0 -0.35219790120E+02  0.13222292649E+02 -0.16688655564E+02  0.41155484007E+02  0.51100000000E-03 0.  1.
         12    1    3    3    0    0  0.36758092208E+02 -0.72586453647E+01  0.82497243796E+01  0.38365391013E+02  0.00000000000E+00 0. -1.
</event>
<event>
 7    1  0.4555057E-015  0.9000781E+02  0.7816164E-02  0.1186339E+00
        -11   -1    0    0    0    0  0.00000000000E+00  0.00000000000E+00  0.45593999997E+02  0.45594000000E+02  0.51100000000E-03 0.  1.
         11   -1    0    0    0    0 -0.00000000000E+00 -0.00000000000E+00 -0.45593999997E+02  0.45594000000E+02  0.51100000000E-03 0. -1.
    9900012    2    1    2    0    0  0.32915699747E+00 -0.10573361224E+01  0.40810257579E+00  0.90007808610E+02  0.90000070884E+02 0.  0.
        -12    1    1    2    0    0 -0.32915699747E+00  0.10573361224E+01 -0.40810257579E+00  0.11801913900E+01  0.00000000000E+00 0.  1.
         11    1    3    3    0    0  0.21858637787E+02  0.28404513763E+02 -0.47477403930E+01  0.36154632996E+02  0.51100000000E-03 0. -1.
        -11    1    3    3    0    0 -0.33677127291E+00  0.93479185387E+01  0.18781508681E+00  0.93558682475E+01  0.51100000000E-03 0.  1.
        -12    1    3    3    0    0 -0.21192709516E+02 -0.38809768424E+02  0.49680278820E+01  0.44497307366E+02  0.00000000000E+00 0.  1.
</event>
<event>
 7    1  0.4555057E-015  0.9000753E+02  0.7816164E-02  0.1186339E+00
        -11   -1    0    0    0    0  0.00000000000E+00  0.00000000000E+00  0.45593999997E+02  0.45594000000E+02  0.51100000000E-03 0. -1.
         11   -1    0    0    0    0 -0.00000000000E+00 -0.00000000000E+00 -0.45593999997E+02  0.45594000000E+02  0.51100000000E-03 0.  1.
    9900012    2    1    2    0    0 -0.73037732470E+00  0.30035007879E+00  0.87741455476E+00  0.90007526575E+02  0.89999785126E+02 0.  0.
        -12    1    1    2    0    0  0.73037732470E+00 -0.30035007879E+00 -0.87741455476E+00  0.11804734250E+01  0.00000000000E+00 0.  1.
         11    1    3    3    0    0 -0.33730358232E+01  0.36341337997E+02  0.23082949883E+01  0.36570458626E+02  0.51100000000E-03 0. -1.
        -11    1    3    3    0    0  0.38961030684E+01  0.54495017517E+01  0.84347742044E+01  0.10771355746E+02  0.51100000000E-03 0.  1.
        -12    1    3    3    0    0 -0.12534445698E+01 -0.41490489670E+02 -0.98656546379E+01  0.42665712203E+02  0.00000000000E+00 0.  1.
</event>
<event>
 7    1  0.4555057E-015  0.9000774E+02  0.7816164E-02  0.1186339E+00
        -11   -1    0    0    0    0  0.00000000000E+00  0.00000000000E+00  0.45593999997E+02  0.45594000000E+02  0.51100000000E-03 0.  1.
         11   -1    0    0    0    0 -0.00000000000E+00 -0.00000000000E+00 -0.45593999997E+02  0.45594000000E+02  0.51100000000E-03 0. -1.
    9900012    2    1    2    0    0  0.20542842394E+00 -0.99525503575E+00 -0.60022538618E+00  0.90007744122E+02  0.90000005544E+02 0.  0.
        -12    1    1    2    0    0 -0.20542842394E+00  0.99525503575E+00  0.60022538618E+00  0.11802558781E+01  0.00000000000E+00 0.  1.
         11    1    3    3    0    0 -0.16994320813E+02  0.28631193303E+02 -0.20670611335E+02  0.39189620349E+02  0.51100000000E-03 0. -1.
        -11    1    3    3    0    0 -0.17919868353E+01  0.38189351017E+01  0.10306981255E+02  0.11136846276E+02  0.51100000000E-03 0.  1.
        -12    1    3    3    0    0  0.18991736072E+02 -0.33445383441E+02  0.97634046939E+01  0.39681277497E+02  0.00000000000E+00 0.  1.
</event>
<event>
 7    1  0.4555057E-015  0.9000774E+02  0.7816164E-02  0.1186339E+00
        -11   -1    0    0    0    0  0.00000000000E+00  0.00000000000E+00  0.45593999997E+02  0.45594000000E+02  0.51100000000E-03 0.  1.
         11   -1    0    0    0    0 -0.00000000000E+00 -0.00000000000E+00 -0.45593999997E+02  0.45594000000E+02  0.51100000000E-03 0. -1.
    9900012    2    1    2    0    0  0.11241108134E+01  0.34054860973E+00  0.11587034380E+00  0.90007735448E+02  0.89999996756E+02 0.  0.
        -12    1    1    2    0    0 -0.11241108134E+01 -0.34054860973E+00 -0.11587034380E+00  0.11802645521E+01  0.00000000000E+00 0.  1.
         11    1    3    3    0    0 -0.35606595228E+02  0.12587183932E+02  0.12883740141E+02  0.39903102428E+02  0.51100000000E-03 0. -1.
        -11    1    3    3    0    0 -0.24826104572E+01 -0.17074579071E+01 -0.88056215961E+01  0.93068651619E+01  0.51100000000E-03 0.  1.
        -12    1    3    3    0    0  0.39213316499E+02 -0.10539177416E+02 -0.39622482011E+01  0.40797767858E+02  0.00000000000E+00 0.  1.
</event>
<event>
 7    1  0.4555057E-015  0.9000868E+02  0.7816164E-02  0.1186337E+00
        -11   -1    0    0    0    0  0.00000000000E+00  0.00000000000E+00  0.45593999997E+02  0.45594000000E+02  0.51100000000E-03 0. -1.
         11   -1    0    0    0    0 -0.00000000000E+00 -0.00000000000E+00 -0.45593999997E+02  0.45594000000E+02  0.51100000000E-03 0.  1.
    9900012    2    1    2    0    0  0.92603503011E+00  0.68195540619E+00 -0.26113247156E+00  0.90008680611E+02  0.90000954390E+02 0.  0.
        -12    1    1    2    0    0 -0.92603503011E+00 -0.68195540619E+00  0.26113247156E+00  0.11793193888E+01  0.00000000000E+00 0.  1.
         11    1    3    3    0    0  0.11857165316E+01 -0.18975439419E+01 -0.60034948304E+01  0.64069140110E+01  0.51100000000E-03 0. -1.
        -11    1    3    3    0    0  0.21857926905E+02 -0.12299844255E+02 -0.29942942555E+02  0.39059377189E+02  0.51100000000E-03 0.  1.
         12    1    3    3    0    0 -0.22117608406E+02  0.14879343603E+02  0.35685304914E+02  0.44542389411E+02  0.00000000000E+00 0. -1.
</event>
<event>
 7    1  0.4555057E-015  0.9000783E+02  0.7816164E-02  0.1186339E+00
        -11   -1    0    0    0    0  0.00000000000E+00  0.00000000000E+00  0.45593999997E+02  0.45594000000E+02  0.51100000000E-03 0.  1.
         11   -1    0    0    0    0 -0.00000000000E+00 -0.00000000000E+00 -0.45593999997E+02  0.45594000000E+02  0.51100000000E-03 0. -1.
    9900012    2    1    2    0    0  0.92226886003E+00  0.33757531005E+00 -0.65442110646E+00  0.90007828858E+02  0.90000091399E+02 0.  0.
        -12    1    1    2    0    0 -0.92226886003E+00 -0.33757531005E+00  0.65442110646E+00  0.11801711421E+01  0.00000000000E+00 0.  1.
         11    1    3    3    0    0 -0.41956783861E+01 -0.12400879828E+01 -0.90124356506E+01  0.10018259926E+02  0.51100000000E-03 0. -1.
        -11    1    3    3    0    0  0.30486936551E+02 -0.16097416222E+02 -0.18418667116E+02  0.39087432864E+02  0.51100000000E-03 0.  1.
         12    1    3    3    0    0 -0.25368989305E+02  0.17675079515E+02  0.26776681660E+02  0.40902136068E+02  0.00000000000E+00 0. -1.
</event>
<event>
 7    1  0.4555057E-015  0.9000815E+02  0.7816164E-02  0.1186338E+00
        -11   -1    0    0    0    0  0.00000000000E+00  0.00000000000E+00  0.45593999997E+02  0.45594000000E+02  0.51100000000E-03 0. -1.
         11   -1    0    0    0    0 -0.00000000000E+00 -0.00000000000E+00 -0.45593999997E+02  0.45594000000E+02  0.51100000000E-03 0.  1.
    9900012    2    1    2    0    0 -0.37027662386E+00  0.92499481279E+00  0.63191712435E+00  0.90008152792E+02  0.90000419608E+02 0.  0.
        -12    1    1    2    0    0  0.37027662386E+00 -0.92499481279E+00 -0.63191712435E+00  0.11798472079E+01  0.00000000000E+00 0.  1.
         11    1    3    3    0    0  0.36900748222E+02  0.19406322209E+01 -0.12866064753E+02  0.39127572060E+02  0.51100000000E-03 0. -1.
        -11    1    3    3    0    0  0.29010314513E+01  0.70221643292E+01  0.48368685552E+01  0.90067792817E+01  0.51100000000E-03 0.  1.
        -12    1    3    3    0    0 -0.40172056298E+02 -0.80378017374E+01  0.86611133224E+01  0.41873801451E+02  0.00000000000E+00 0.  1.
</event>
<event>
 7    1  0.4555057E-015  0.9000776E+02  0.7816164E-02  0.1186339E+00
        -11   -1    0    0    0    0  0.00000000000E+00  0.00000000000E+00  0.45593999997E+02  0.45594000000E+02  0.51100000000E-03 0.  1.
         11   -1    0    0    0    0 -0.00000000000E+00 -0.00000000000E+00 -0.45593999997E+02  0.45594000000E+02  0.51100000000E-03 0. -1.
    9900012    2    1    2    0    0 -0.24206367723E+00 -0.11509449966E+01  0.98509237216E-01  0.90007757110E+02  0.90000018704E+02 0.  0.
        -12    1    1    2    0    0  0.24206367723E+00  0.11509449966E+01 -0.98509237216E-01  0.11802428898E+01  0.00000000000E+00 0.  1.
         11    1    3    3    0    0 -0.33394649068E+01 -0.21722216898E+02 -0.29480306668E+02  0.36770847343E+02  0.51100000000E-03 0. -1.
        -11    1    3    3    0    0  0.40080262085E+01 -0.45107940501E+01 -0.67674023959E+01  0.90669329158E+01  0.51100000000E-03 0.  1.
        -12    1    3    3    0    0 -0.91062497888E+00  0.25082065952E+02  0.36346218301E+02  0.44169976851E+02  0.00000000000E+00 0.  1.
</event>
<event>
 7    1  0.4555057E-015  0.9000777E+02  0.7816164E-02  0.1186339E+00
        -11   -1    0    0    0    0  0.00000000000E+00  0.00000000000E+00  0.45593999997E+02  0.45594000000E+02  0.51100000000E-03 0. -1.
         11   -1    0    0    0    0 -0.00000000000E+00 -0.00000000000E+00 -0.45593999997E+02  0.45594000000E+02  0.51100000000E-03 0.  1.
    9900012    2    1    2    0    0  0.55258814601E+00 -0.36120400474E+00  0.97832264060E+00  0.90007772403E+02  0.90000034198E+02 0.  0.
        -12    1    1    2    0    0 -0.55258814601E+00  0.36120400474E+00 -0.97832264060E+00  0.11802275972E+01  0.00000000000E+00 0.  1.
         11    1    3    3    0    0 -0.45558808071E+01  0.19920572038E+01 -0.99818488288E+01  0.11151755383E+02  0.51100000000E-03 0. -1.
        -11    1    3    3    0    0 -0.31173400667E+02  0.17666209008E+02  0.10777806675E+02  0.37417067855E+02  0.51100000000E-03 0.  1.
         12    1    3    3    0    0  0.36281869620E+02 -0.20019470217E+02  0.18236479403E+00  0.41438949164E+02  0.00000000000E+00 0. -1.
</event>
<event>
 7    1  0.4555057E-015  0.9000767E+02  0.7816164E-02  0.1186339E+00
        -11   -1    0    0    0    0  0.00000000000E+00  0.00000000000E+00  0.45593999997E+02  0.45594000000E+02  0.51100000000E-03 0.  1.
         11   -1    0    0    0    0 -0.00000000000E+00 -0.00000000000E+00 -0.45593999997E+02  0.45594000000E+02  0.51100000000E-03 0. -1.
    9900012    2    1    2    0    0  0.50254350693E+00 -0.68782732931E+00  0.81702273667E+00  0.90007668452E+02  0.89999928875E+02 0.  0.
        -12    1    1    2    0    0 -0.50254350693E+00  0.68782732931E+00 -0.81702273667E+00  0.11803315481E+01  0.00000000000E+00 0.  1.
         11    1    3    3    0    0 -0.25202680275E+01  0.53225938631E+01  0.74613082411E+00  0.59361997801E+01  0.51100000000E-03 0. -1.
        -11    1    3    3    0    0 -0.17994923710E+02  0.21624491660E+02  0.27865542057E+02  0.39597024551E+02  0.51100000000E-03 0.  1.
         12    1    3    3    0    0  0.21017735244E+02 -0.27634912853E+02 -0.27794650145E+02  0.44474444121E+02  0.00000000000E+00 0. -1.
</event>
<event>
 7    1  0.4555057E-015  0.9000772E+02  0.7816164E-02  0.1186339E+00
        -11   -1    0    0    0    0  0.00000000000E+00  0.00000000000E+00  0.45593999997E+02  0.45594000000E+02  0.51100000000E-03 0.  1.
         11   -1    0    0    0    0 -0.00000000000E+00 -0.00000000000E+00 -0.45593999997E+02  0.45594000000E+02  0.51100000000E-03 0. -1.
    9900012    2    1    2    0    0  0.71654045112E+00 -0.91092388242E+00 -0.22329140476E+00  0.90007715463E+02  0.89999976507E+02 0.  0.
        -12    1    1    2    0    0 -0.71654045112E+00  0.91092388242E+00  0.22329140476E+00  0.11802845373E+01  0.00000000000E+00 0.  1.
         11    1    3    3    0    0 -0.66466325777E-01  0.32086248375E+01  0.88838299400E+01  0.94457464387E+01  0.51100000000E-03 0. -1.
        -11    1    3    3    0    0  0.15576541801E+02  0.16315981741E+02  0.27834798459E+02  0.35827586022E+02  0.51100000000E-03 0.  1.
         12    1    3    3    0    0 -0.14793535024E+02 -0.20435530461E+02 -0.36941919804E+02  0.44734383002E+02  0.00000000000E+00 0. -1.
</event>
<event>
 7    1  0.4555057E-015  0.9000766E+02  0.7816164E-02  0.1186339E+00
        -11   -1    0    0    0    0  0.00000000000E+00  0.00000000000E+00  0.45593999997E+02  0.45594000000E+02  0.51100000000E-03 0.  1.
         11   -1    0    0    0    0 -0.00000000000E+00 -0.00000000000E+00 -0.45593999997E+02  0.45594000000E+02  0.51100000000E-03 0. -1.
    9900012    2    1    2    0    0 -0.15214746087E+00  0.10382830373E+00 -0.11658827930E+01  0.90007656044E+02  0.89999916304E+02 0.  0.
        -12    1    1    2    0    0  0.15214746087E+00 -0.10382830373E+00  0.11658827930E+01  0.11803439556E+01  0.00000000000E+00 0.  1.
         11    1    3    3    0    0 -0.73432959490E+01 -0.47458520724E+01 -0.46218689222E+00  0.87556110165E+01  0.51100000000E-03 0. -1.
        -11    1    3    3    0    0 -0.12055555644E+02  0.21702160113E+02  0.31510820246E+02  0.40115482899E+02  0.51100000000E-03 0.  1.
         12    1    3    3    0    0  0.19246704132E+02 -0.16852479737E+02 -0.32214516146E+02  0.41136562129E+02  0.00000000000E+00 0. -1.
</event>
<event>
 7    1  0.4555057E-015  0.9000779E+02  0.7816164E-02  0.1186339E+00
        -11   -1    0    0    0    0  0.00000000000E+00  0.00000000000E+00  0.45593999997E+02  0.45594000000E+02  0.51100000000E-03 0. -1.
         11   -1    0    0    0    0 -0.00000000000E+00 -0.00000000000E+00 -0.45593999997E+02  0.45594000000E+02  0.51100000000E-03 0.  1.
    9900012    2    1    2    0    0  0.10086175194E+01 -0.61275322690E+00 -0.11263664205E-01  0.90007787016E+02  0.90000049005E+02 0.  0.
        -12    1    1    2    0    0 -0.10086175194E+01  0.61275322690E+00  0.11263664205E-01  0.11802129840E+01  0.00000000000E+00 0.  1.
         11    1    3    3    0    0 -0.12368063070E+02  0.39845876552E+02 -0.52125672946E+01  0.42045614758E+02  0.51100000000E-03 0. -1.
        -11    1    3    3    0    0 -0.38500476273E+01 -0.80115461455E+01  0.67991532924E+01  0.11190899165E+02  0.51100000000E-03 0.  1.
        -12    1    3    3    0    0  0.17226728216E+02 -0.32447083633E+02 -0.15978496620E+01  0.36771273093E+02  0.00000000000E+00 0.  1.
</event>
<event>
 7    1  0.4555057E-015  0.9000777E+02  0.7816164E-02  0.1186339E+00
        -11   -1    0    0    0    0  0.00000000000E+00  0.00000000000E+00  0.45593999997E+02  0.45594000000E+02  0.51100000000E-03 0.  1.
         11   -1    0    0    0    0 -0.00000000000E+00 -0.00000000000E+00 -0.45593999997E+02  0.45594000000E+02  0.51100000000E-03 0. -1.
    9900012    2    1    2    0    0  0.49667995383E+00  0.10697898129E+01  0.42560836679E-01  0.90007765852E+02  0.90000027561E+02 0.  0.
        -12    1    1    2    0    0 -0.49667995383E+00 -0.10697898129E+01 -0.42560836679E-01  0.11802341484E+01  0.00000000000E+00 0.  1.
         11    1    3    3    0    0 -0.20558196848E+00  0.32572013596E+01 -0.93296660854E+01  0.98840424002E+01  0.51100000000E-03 0. -1.
        -11    1    3    3    0    0  0.11551237189E+02  0.36902949462E+02  0.82578434199E+01  0.39540494911E+02  0.51100000000E-03 0.  1.
         12    1    3    3    0    0 -0.10848975267E+02 -0.39090361009E+02  0.11143835022E+01  0.40583228540E+02  0.00000000000E+00 0. -1.
</event>
<event>
 7    1  0.4555057E-015  0.9000754E+02  0.7816164E-02  0.1186339E+00
        -11   -1    0    0    0    0  0.00000000000E+00  0.00000000000E+00  0.45593999997E+02  0.45594000000E+02  0.51100000000E-03 0. -1.
         11   -1    0    0    0    0 -0.00000000000E+00 -0.00000000000E+00 -0.45593999997E+02  0.45594000000E+02  0.51100000000E-03 0.  1.
    9900012    2    1    2    0    0 -0.11682268978E+01 -0.16847493446E+00 -0.18895429514E-01  0.90007536140E+02  0.89999794817E+02 0.  0.
        -12    1    1    2    0    0  0.11682268978E+01  0.16847493446E+00  0.18895429514E-01  0.11804638603E+01  0.00000000000E+00 0.  1.
         11    1    3    3    0    0  0.49868663156E+01  0.85251437830E+01 -0.16146397361E+02  0.18927574070E+02  0.51100000000E-03 0. -1.
        -11    1    3    3    0    0 -0.30531812614E+01  0.30079439214E+02  0.89050986727E+01  0.31518175104E+02  0.51100000000E-03 0.  1.
         12    1    3    3    0    0 -0.31019119520E+01 -0.38773057931E+02  0.72224032591E+01  0.39561786966E+02  0.00000000000E+00 0. -1.
</event>
<event>
 7    1  0.4555057E-015  0.9000778E+02  0.7816164E-02  0.1186339E+00
        -11   -1    0    0    0    0  0.00000000000E+00  0.00000000000E+00  0.45593999997E+02  0.45594000000E+02  0.51100000000E-03 0.  1.
         11   -1    0    0    0    0 -0.00000000000E+00 -0.00000000000E+00 -0.45593999997E+02  0.45594000000E+02  0.51100000000E-03 0. -1.
    9900012    2    1    2    0    0 -0.40614985289E+00 -0.20711523255E+00 -0.10886096031E+01  0.90007777440E+02  0.90000039302E+02 0.  0.
        -12    1    1    2    0    0  0.40614985289E+00  0.20711523255E+00  0.10886096031E+01  0.11802225597E+01  0.00000000000E+00 0.  1.
         11    1    3    3    0    0 -0.22133642889E+02 -0.34706214425E+02 -0.57051198354E+00  0.41167280107E+02  0.51100000000E-03 0. -1.
        -11    1    3    3    0    0  0.40740853690E+01  0.20159753992E+00  0.83206417605E+01  0.92667088402E+01  0.51100000000E-03 0.  1.
        -12    1    3    3    0    0  0.17653407667E+02  0.34297501652E+02 -0.88387393800E+01  0.39573788493E+02  0.00000000000E+00 0.  1.
</event>
<event>
 7    1  0.4555057E-015  0.9000792E+02  0.7816164E-02  0.1186339E+00
        -11   -1    0    0    0    0  0.00000000000E+00  0.00000000000E+00  0.45593999997E+02  0.45594000000E+02  0.51100000000E-03 0.  1.
         11   -1    0    0    0    0 -0.00000000000E+00 -0.00000000000E+00 -0.45593999997E+02  0.45594000000E+02  0.51100000000E-03 0. -1.
    9900012    2    1    2    0    0 -0.10444057405E+01 -0.27163007918E-01 -0.54868953629E+00  0.90007923144E+02  0.90000186929E+02 0.  0.
        -12    1    1    2    0    0  0.10444057405E+01  0.27163007918E-01  0.54868953629E+00  0.11800768564E+01  0.00000000000E+00 0.  1.
         11    1    3    3    0    0  0.46997460533E+01 -0.58000389027E+01  0.19908125477E+01  0.77260209099E+01  0.51100000000E-03 0. -1.
        -11    1    3    3    0    0  0.18040182608E+02  0.32574796809E+02  0.17589350688E+02  0.41181923626E+02  0.51100000000E-03 0.  1.
         12    1    3    3    0    0 -0.23784334402E+02 -0.26801920914E+02 -0.20128852772E+02  0.41099978607E+02  0.00000000000E+00 0. -1.
</event>
<event>
 7    1  0.4555057E-015  0.9000771E+02  0.7816164E-02  0.1186339E+00
        -11   -1    0    0    0    0  0.00000000000E+00  0.00000000000E+00  0.45593999997E+02  0.45594000000E+02  0.51100000000E-03 0.  1.
         11   -1    0    0    0    0 -0.00000000000E+00 -0.00000000000E+00 -0.45593999997E+02  0.45594000000E+02  0.51100000000E-03 0. -1.
    9900012    2    1    2    0    0  0.10349778775E+01 -0.45473800704E+00 -0.33928440087E+00  0.90007711998E+02  0.89999972997E+02 0.  0.
        -12    1    1    2    0    0 -0.10349778775E+01  0.45473800704E+00  0.33928440087E+00  0.11802880015E+01  0.00000000000E+00 0.  1.
         11    1    3    3    0    0 -0.27563688688E+02 -0.27234115198E+02  0.46401495380E+01  0.39025439814E+02  0.51100000000E-03 0. -1.
        -11    1    3    3    0    0  0.53243311793E+01 -0.75437425535E+01 -0.17848706480E+00  0.92351725546E+01  0.51100000000E-03 0.  1.
        -12    1    3    3    0    0  0.23274335386E+02  0.34323119744E+02 -0.48009468740E+01  0.41747099630E+02  0.00000000000E+00 0.  1.
</event>
<event>
 8    1  0.4555057E-015  0.9000776E+02  0.7816164E-02  0.1186339E+00
        -11   -1    0    0    0    0  0.00000000000E+00  0.00000000000E+00  0.45593999997E+02  0.45594000000E+02  0.51100000000E-03 0. -1.
         11   -1    0    0    0    0 -0.00000000000E+00 -0.00000000000E+00 -0.45593999997E+02  0.45594000000E+02  0.51100000000E-03 0.  1.
    9900012    2    1    2    0    0  0.11587934799E+01 -0.20298985379E+00  0.94689812245E-01  0.90007757072E+02  0.90000018665E+02 0.  0.
         23    2    3    3    0    0 -0.20936229282E+02  0.16952557624E+02 -0.34673434460E+01  0.61808627280E+02  0.55520888223E+02 0.  0.
        -12    1    1    2    0    0 -0.11587934799E+01  0.20298985379E+00 -0.94689812245E-01  0.11802429285E+01  0.00000000000E+00 0.  1.
         11    1    4    4    0    0 -0.33335474205E+01 -0.12489030170E+02  0.17386069894E+02  0.21664806476E+02  0.51100000000E-03 0. -1.
        -11    1    4    4    0    0 -0.17602681861E+02  0.29441587794E+02 -0.20853413340E+02  0.40143820804E+02  0.51100000000E-03 0.  1.
         12    1    3    3    0    0  0.22095022762E+02 -0.17155547477E+02  0.35620332582E+01  0.28199129792E+02  0.00000000000E+00 0. -1.
</event>
<event>
 7    1  0.4555057E-015  0.9000775E+02  0.7816164E-02  0.1186339E+00
        -11   -1    0    0    0    0  0.00000000000E+00  0.00000000000E+00  0.45593999997E+02  0.45594000000E+02  0.51100000000E-03 0.  1.
         11   -1    0    0    0    0 -0.00000000000E+00 -0.00000000000E+00 -0.45593999997E+02  0.45594000000E+02  0.51100000000E-03 0. -1.
    9900012    2    1    2    0    0 -0.23319014347E+00  0.35570695802E+00 -0.11009482071E+01  0.90007749163E+02  0.90000010652E+02 0.  0.
        -12    1    1    2    0    0  0.23319014347E+00 -0.35570695802E+00  0.11009482071E+01  0.11802508368E+01  0.00000000000E+00 0.  1.
         11    1    3    3    0    0  0.18207416677E+02  0.35198253423E+02 -0.12532562860E+02  0.41563111026E+02  0.51100000000E-03 0. -1.
        -11    1    3    3    0    0 -0.32643620527E+01  0.21871634584E+01  0.72001847766E+01  0.82025852439E+01  0.51100000000E-03 0.  1.
        -12    1    3    3    0    0 -0.15176244768E+02 -0.37029709923E+02  0.42314298760E+01  0.40242052893E+02  0.00000000000E+00 0.  1.
</event>
<event>
 7    1  0.4555057E-015  0.9000791E+02  0.7816164E-02  0.1186339E+00
        -11   -1    0    0    0    0  0.00000000000E+00  0.00000000000E+00  0.45593999997E+02  0.45594000000E+02  0.51100000000E-03 0. -1.
         11   -1    0    0    0    0 -0.00000000000E+00 -0.00000000000E+00 -0.45593999997E+02  0.45594000000E+02  0.51100000000E-03 0.  1.
    9900012    2    1    2    0    0 -0.53794353983E+00 -0.71903633478E+00  0.76564207376E+00  0.90007913441E+02  0.90000177098E+02 0.  0.
        -12    1    1    2    0    0  0.53794353983E+00  0.71903633478E+00 -0.76564207376E+00  0.11800865595E+01  0.00000000000E+00 0.  1.
         11    1    3    3    0    0 -0.10393114538E+02  0.43707465176E+00 -0.24798524201E+00  0.10405256412E+02  0.51100000000E-03 0. -1.
        -11    1    3    3    0    0 -0.31690504838E+02  0.91301526665E+01 -0.11636502047E+02  0.34972217041E+02  0.51100000000E-03 0.  1.
         12    1    3    3    0    0  0.41545675836E+02 -0.10286263653E+02  0.12650129363E+02  0.44630439988E+02  0.00000000000E+00 0. -1.
</event>
<event>
 7    1  0.4555057E-015  0.9000772E+02  0.7816164E-02  0.1186339E+00
        -11   -1    0    0    0    0  0.00000000000E+00  0.00000000000E+00  0.45593999997E+02  0.45594000000E+02  0.51100000000E-03 0. -1.
         11   -1    0    0    0    0 -0.00000000000E+00 -0.00000000000E+00 -0.45593999997E+02  0.45594000000E+02  0.51100000000E-03 0.  1.
    9900012    2    1    2    0    0 -0.26309061086E+00 -0.94896438829E+00  0.65062128034E+00  0.90007721164E+02  0.89999982284E+02 0.  0.
        -12    1    1    2    0    0  0.26309061086E+00  0.94896438829E+00 -0.65062128034E+00  0.11802788358E+01  0.00000000000E+00 0.  1.
         11    1    3    3    0    0 -0.16158668661E+02 -0.33717071964E+02 -0.23486018252E+01  0.37462774130E+02  0.51100000000E-03 0. -1.
        -11    1    3    3    0    0 -0.24179908470E+01 -0.76610986590E+01 -0.29667032928E+00  0.80390998218E+01  0.51100000000E-03 0.  1.
        -12    1    3    3    0    0  0.18313568897E+02  0.40429206235E+02  0.32958934348E+01  0.44505847212E+02  0.00000000000E+00 0.  1.
</event>
<event>
 7    1  0.6549751E-015  0.9000794E+02  0.7816164E-02  0.1186339E+00
        -11   -1    0    0    0    0  0.00000000000E+00  0.00000000000E+00  0.45593999997E+02  0.45594000000E+02  0.51100000000E-03 0. -1.
         11   -1    0    0    0    0 -0.00000000000E+00 -0.00000000000E+00 -0.45593999997E+02  0.45594000000E+02  0.51100000000E-03 0.  1.
    9900012    2    1    2    0    0 -0.65118874792E+00 -0.30921174107E-01  0.98363260964E+00  0.90007942368E+02  0.90000206407E+02 0.  0.
        -12    1    1    2    0    0  0.65118874792E+00  0.30921174107E-01 -0.98363260964E+00  0.11800576321E+01  0.00000000000E+00 0.  1.
         11    1    3    3    0    0 -0.11692846996E+00 -0.33943709983E+02  0.12640398239E+02  0.36221109696E+02  0.51100000000E-03 0. -1.
        -11    1    3    3    0    0 -0.59259718349E+00 -0.91580588683E+01 -0.41754258516E-01  0.91773066494E+01  0.51100000000E-03 0.  1.
        -12    1    3    3    0    0  0.58336905528E-01  0.43070847677E+02 -0.11615011371E+02  0.44609526023E+02  0.00000000000E+00 0.  1.
</event>
<event>
 8    1  0.4555057E-015  0.9000769E+02  0.7816164E-02  0.1186339E+00
        -11   -1    0    0    0    0  0.00000000000E+00  0.00000000000E+00  0.45593999997E+02  0.45594000000E+02  0.51100000000E-03 0.  1.
         11   -1    0    0    0    0 -0.00000000000E+00 -0.00000000000E+00 -0.45593999997E+02  0.45594000000E+02  0.51100000000E-03 0. -1.
    9900012    2    1    2    0    0  0.78965655944E-01 -0.11141023631E+01 -0.38167670966E+00  0.90007687854E+02  0.89999948534E+02 0.  0.
         23    2    3    3    0    0 -0.20108107036E+02 -0.18724842086E+02 -0.91292565885E+01  0.61826555670E+02  0.54628051224E+02 0.  0.
        -12    1    1    2    0    0 -0.78965655944E-01  0.11141023631E+01  0.38167670966E+00  0.11803121456E+01  0.00000000000E+00 0.  1.
         11    1    4    4    0    0  0.18416305336E+02 -0.33959959146E+01 -0.79590651157E+01  0.20347968160E+02  0.51100000000E-03 0. -1.
        -11    1    4    4    0    0 -0.38524412371E+02 -0.15328846171E+02 -0.11701914728E+01  0.41478587510E+02  0.51100000000E-03 0.  1.
         12    1    3    3    0    0  0.20187072692E+02  0.17610739723E+02  0.87475798788E+01  0.28181132184E+02  0.00000000000E+00 0. -1.
</event>
<event>
 7    1  0.4555057E-015  0.9000830E+02  0.7816164E-02  0.1186338E+00
        -11   -1    0    0    0    0  0.00000000000E+00  0.00000000000E+00  0.45593999997E+02  0.45594000000E+02  0.51100000000E-03 0. -1.
         11   -1    0    0    0    0 -0.00000000000E+00 -0.00000000000E+00 -0.45593999997E+02  0.45594000000E+02  0.51100000000E-03 0.  1.
    9900012    2    1    2    0    0 -0.69648794243E+00 -0.73777368070E+00 -0.60190515683E+00  0.90008298650E+02  0.90000567390E+02 0.  0.
        -12    1    1    2    0    0  0.69648794243E+00  0.73777368070E+00  0.60190515683E+00  0.11797013502E+01  0.00000000000E+00 0.  1.
         11    1    3    3    0    0 -0.19966716107E+02  0.12373980274E+02  0.75109115215E+01  0.24661689562E+02  0.51100000000E-03 0. -1.
        -11    1    3    3    0    0  0.14995743845E+02  0.18772504425E+02  0.12555855907E+02  0.27109569780E+02  0.51100000000E-03 0.  1.
         12    1    3    3    0    0  0.42744843194E+01 -0.31884258379E+02 -0.20668672585E+02  0.38237039308E+02  0.00000000000E+00 0. -1.
</event>
<event>
 7    1  0.4555057E-015  0.9000771E+02  0.7816164E-02  0.1186339E+00
        -11   -1    0    0    0    0  0.00000000000E+00  0.00000000000E+00  0.45593999997E+02  0.45594000000E+02  0.51100000000E-03 0.  1.
         11   -1    0    0    0    0 -0.00000000000E+00 -0.00000000000E+00 -0.45593999997E+02  0.45594000000E+02  0.51100000000E-03 0. -1.
    9900012    2    1    2    0    0 -0.39986465893E+00 -0.10008874132E+01  0.48106832640E+00  0.90007705929E+02  0.89999966847E+02 0.  0.
        -12    1    1    2    0    0  0.39986465893E+00  0.10008874132E+01 -0.48106832640E+00  0.11802940710E+01  0.00000000000E+00 0.  1.
         11    1    3    3    0    0 -0.73705905847E+01 -0.60501765020E+01 -0.10432653900E+01  0.95926348939E+01  0.51100000000E-03 0. -1.
        -11    1    3    3    0    0 -0.28108689769E+02 -0.22320734744E+02 -0.62690105443E-01  0.35893140993E+02  0.51100000000E-03 0.  1.
         12    1    3    3    0    0  0.35079415694E+02  0.27370023833E+02  0.15870238218E+01  0.44521930042E+02  0.00000000000E+00 0. -1.
</event>
<event>
 7    1  0.4555057E-015  0.9000758E+02  0.7816164E-02  0.1186339E+00
        -11   -1    0    0    0    0  0.00000000000E+00  0.00000000000E+00  0.45593999997E+02  0.45594000000E+02  0.51100000000E-03 0. -1.
         11   -1    0    0    0    0 -0.00000000000E+00 -0.00000000000E+00 -0.45593999997E+02  0.45594000000E+02  0.51100000000E-03 0.  1.
    9900012    2    1    2    0    0  0.24897672213E+00  0.44830260136E+00  0.10632152199E+01  0.90007580060E+02  0.89999839317E+02 0.  0.
        -12    1    1    2    0    0 -0.24897672213E+00 -0.44830260136E+00 -0.10632152199E+01  0.11804199398E+01  0.00000000000E+00 0.  1.
         11    1    3    3    0    0  0.15250516484E+02  0.22579631591E+02  0.19583343860E+02  0.33554811470E+02  0.51100000000E-03 0. -1.
        -11    1    3    3    0    0  0.12796581165E+02 -0.47826257594E+01  0.65927754058E+01  0.15168740438E+02  0.51100000000E-03 0.  1.
        -12    1    3    3    0    0 -0.27798120927E+02 -0.17348703230E+02 -0.25112904046E+02  0.41284028152E+02  0.00000000000E+00 0.  1.
</event>
<event>
 7    1  0.4555057E-015  0.9000780E+02  0.7816164E-02  0.1186339E+00
        -11   -1    0    0    0    0  0.00000000000E+00  0.00000000000E+00  0.45593999997E+02  0.45594000000E+02  0.51100000000E-03 0.  1.
         11   -1    0    0    0    0 -0.00000000000E+00 -0.00000000000E+00 -0.45593999997E+02  0.45594000000E+02  0.51100000000E-03 0. -1.
    9900012    2    1    2    0    0  0.10625152858E+01 -0.43195679745E+00 -0.27813128277E+00  0.90007795603E+02  0.90000057705E+02 0.  0.
        -12    1    1    2    0    0 -0.10625152858E+01  0.43195679745E+00  0.27813128277E+00  0.11802043966E+01  0.00000000000E+00 0.  1.
         11    1    3    3    0    0 -0.83908949692E+01  0.11417475178E+01  0.49623840661E-01  0.84683628031E+01  0.51100000000E-03 0. -1.
        -11    1    3    3    0    0 -0.19058844691E+02  0.30356375253E+02 -0.10865404167E+02  0.37454053017E+02  0.51100000000E-03 0.  1.
         12    1    3    3    0    0  0.28512254946E+02 -0.31930079568E+02  0.10537649043E+02  0.44085379783E+02  0.00000000000E+00 0. -1.
</event>
<event>
 7    1  0.4555057E-015  0.9000777E+02  0.7816164E-02  0.1186339E+00
        -11   -1    0    0    0    0  0.00000000000E+00  0.00000000000E+00  0.45593999997E+02  0.45594000000E+02  0.51100000000E-03 0.  1.
         11   -1    0    0    0    0 -0.00000000000E+00 -0.00000000000E+00 -0.45593999997E+02  0.45594000000E+02  0.51100000000E-03 0. -1.
    9900012    2    1    2    0    0  0.37603750256E+00 -0.11663704030E+00 -0.11126272600E+01  0.90007767895E+02  0.90000029631E+02 0.  0.
        -12    1    1    2    0    0 -0.37603750256E+00  0.11663704030E+00  0.11126272600E+01  0.11802321053E+01  0.00000000000E+00 0.  1.
         11    1    3    3    0    0  0.29446044346E+02  0.13140012559E+02 -0.15805860987E+02  0.35910370361E+02  0.51100000000E-03 0. -1.
        -11    1    3    3    0    0  0.61379289832E+01  0.27786826515E+01 -0.70224036859E+01  0.97318756295E+01  0.51100000000E-03 0.  1.
        -12    1    3    3    0    0 -0.35207935827E+02 -0.16035332251E+02  0.21715637413E+02  0.44365521904E+02  0.00000000000E+00 0.  1.
</event>
<event>
 7    1  0.4555057E-015  0.9000771E+02  0.7816164E-02  0.1186339E+00
        -11   -1    0    0    0    0  0.00000000000E+00  0.00000000000E+00  0.45593999997E+02  0.45594000000E+02  0.51100000000E-03 0.  1.
         11   -1    0    0    0    0 -0.00000000000E+00 -0.00000000000E+00 -0.45593999997E+02  0.45594000000E+02  0.51100000000E-03 0. -1.
    9900012    2    1    2    0    0  0.97408229372E+00 -0.64263964514E+00 -0.17678491619E+00  0.90007714045E+02  0.89999975071E+02 0.  0.
        -12    1    1    2    0    0 -0.97408229372E+00  0.64263964514E+00  0.17678491619E+00  0.11802859548E+01  0.00000000000E+00 0.  1.
         11    1    3    3    0    0  0.53624228106E+00 -0.62037211983E+01  0.70546164136E+01  0.94096400300E+01  0.51100000000E-03 0. -1.
        -11    1    3    3    0    0 -0.18463346961E+02 -0.30399884738E+02  0.92593282721E+01  0.36753004413E+02  0.51100000000E-03 0.  1.
         12    1    3    3    0    0  0.18901186974E+02  0.35960966291E+02 -0.16490729602E+02  0.43845069602E+02  0.00000000000E+00 0. -1.
</event>
<event>
 7    1  0.4555057E-015  0.9000760E+02  0.7816164E-02  0.1186339E+00
        -11   -1    0    0    0    0  0.00000000000E+00  0.00000000000E+00  0.45593999997E+02  0.45594000000E+02  0.51100000000E-03 0. -1.
         11   -1    0    0    0    0 -0.00000000000E+00 -0.00000000000E+00 -0.45593999997E+02  0.45594000000E+02  0.51100000000E-03 0.  1.
    9900012    2    1    2    0    0 -0.20374669812E+00  0.10577185604E+01 -0.48277175626E+00  0.90007597595E+02  0.89999857083E+02 0.  0.
        -12    1    1    2    0    0  0.20374669812E+00 -0.10577185604E+01  0.48277175626E+00  0.11804024054E+01  0.00000000000E+00 0.  1.
         11    1    3    3    0    0 -0.19314276313E+00 -0.37803444630E+01 -0.10383530214E+02  0.11051968529E+02  0.51100000000E-03 0. -1.
        -11    1    3    3    0    0 -0.14840216908E+02 -0.93794351827E+01 -0.29609877396E+02  0.34423112612E+02  0.51100000000E-03 0.  1.
         12    1    3    3    0    0  0.14829612973E+02  0.14217498206E+02  0.39510635854E+02  0.44532516454E+02  0.00000000000E+00 0. -1.
</event>
<event>
 7    1  0.4555057E-015  0.9000764E+02  0.7816164E-02  0.1186339E+00
        -11   -1    0    0    0    0  0.00000000000E+00  0.00000000000E+00  0.45593999997E+02  0.45594000000E+02  0.51100000000E-03 0. -1.
         11   -1    0    0    0    0 -0.00000000000E+00 -0.00000000000E+00 -0.45593999997E+02  0.45594000000E+02  0.51100000000E-03 0.  1.
    9900012    2    1    2    0    0  0.51808790370E+00 -0.99564267279E+00 -0.36542171642E+00  0.90007638852E+02  0.89999898885E+02 0.  0.
        -12    1    1    2    0    0 -0.51808790370E+00  0.99564267279E+00  0.36542171642E+00  0.11803611476E+01  0.00000000000E+00 0.  1.
         11    1    3    3    0    0 -0.21070831434E+02  0.98144983110E+01  0.29190081825E+02  0.37314409973E+02  0.51100000000E-03 0. -1.
        -11    1    3    3    0    0 -0.44020684793E+01 -0.15342900630E+02 -0.52019731680E+01  0.16788190246E+02  0.51100000000E-03 0.  1.
        -12    1    3    3    0    0  0.25990987816E+02  0.45327596458E+01 -0.24353530373E+02  0.35905038634E+02  0.00000000000E+00 0.  1.
</event>
<event>
 7    1  0.4555057E-015  0.9000736E+02  0.7816164E-02  0.1186340E+00
        -11   -1    0    0    0    0  0.00000000000E+00  0.00000000000E+00  0.45593999997E+02  0.45594000000E+02  0.51100000000E-03 0.  1.
         11   -1    0    0    0    0 -0.00000000000E+00 -0.00000000000E+00 -0.45593999997E+02  0.45594000000E+02  0.51100000000E-03 0. -1.
    9900012    2    1    2    0    0 -0.94906079811E+00 -0.67910683263E+00 -0.17888299265E+00  0.90007363894E+02  0.89999620297E+02 0.  0.
        -12    1    1    2    0    0  0.94906079811E+00  0.67910683263E+00  0.17888299265E+00  0.11806361055E+01  0.00000000000E+00 0.  1.
         11    1    3    3    0    0  0.21667921131E+02  0.19790772717E+02  0.18833788122E+02  0.34869543533E+02  0.51100000000E-03 0. -1.
        -11    1    3    3    0    0  0.10858571587E+02 -0.52344323962E+00  0.17066847941E+01  0.11004332918E+02  0.51100000000E-03 0.  1.
        -12    1    3    3    0    0 -0.33475553516E+02 -0.19946436310E+02 -0.20719355909E+02  0.44133487444E+02  0.00000000000E+00 0.  1.
</event>
<event>
 7    1  0.4555057E-015  0.9000707E+02  0.7816164E-02  0.1186340E+00
        -11   -1    0    0    0    0  0.00000000000E+00  0.00000000000E+00  0.45593999997E+02  0.45594000000E+02  0.51100000000E-03 0.  1.
         11   -1    0    0    0    0 -0.00000000000E+00 -0.00000000000E+00 -0.45593999997E+02  0.45594000000E+02  0.51100000000E-03 0. -1.
    9900012    2    1    2    0    0  0.51762783452E+00 -0.18698010473E+00 -0.10448405160E+01  0.90007071620E+02  0.89999324163E+02 0.  0.
        -12    1    1    2    0    0 -0.51762783452E+00  0.18698010473E+00  0.10448405160E+01  0.11809283799E+01  0.00000000000E+00 0.  1.
         11    1    3    3    0    0  0.33483812418E+02 -0.56507664425E+01  0.24540283396E+02  0.41896567459E+02  0.51100000000E-03 0. -1.
        -11    1    3    3    0    0  0.14881603329E+01  0.60801354493E+01 -0.45381274594E+01  0.77315761237E+01  0.51100000000E-03 0.  1.
        -12    1    3    3    0    0 -0.34454344916E+02 -0.61634911151E+00 -0.21046996452E+02  0.40378928038E+02  0.00000000000E+00 0.  1.
</event>
<event>
 7    1  0.4555057E-015  0.9000772E+02  0.7816164E-02  0.1186339E+00
        -11   -1    0    0    0    0  0.00000000000E+00  0.00000000000E+00  0.45593999997E+02  0.45594000000E+02  0.51100000000E-03 0.  1.
         11   -1    0    0    0    0 -0.00000000000E+00 -0.00000000000E+00 -0.45593999997E+02  0.45594000000E+02  0.51100000000E-03 0. -1.
    9900012    2    1    2    0    0 -0.10387546120E+01  0.56019811927E+00  0.14797046313E-01  0.90007723749E+02  0.89999984902E+02 0.  0.
        -12    1    1    2    0    0  0.10387546120E+01 -0.56019811927E+00 -0.14797046313E-01  0.11802762513E+01  0.00000000000E+00 0.  1.
         11    1    3    3    0    0  0.25903960942E+02 -0.17260098650E+02 -0.19183245525E+02  0.36563959127E+02  0.51100000000E-03 0. -1.
        -11    1    3    3    0    0 -0.77302745135E+00 -0.10760901059E+02  0.68162819686E+01  0.12761514925E+02  0.51100000000E-03 0.  1.
        -12    1    3    3    0    0 -0.26169688103E+02  0.28581197829E+02  0.12381760603E+02  0.40682249696E+02  0.00000000000E+00 0.  1.
</event>
<event>
 7    1  0.4555057E-015  0.9000806E+02  0.7816164E-02  0.1186338E+00
        -11   -1    0    0    0    0  0.00000000000E+00  0.00000000000E+00  0.45593999997E+02  0.45594000000E+02  0.51100000000E-03 0.  1.
         11   -1    0    0    0    0 -0.00000000000E+00 -0.00000000000E+00 -0.45593999997E+02  0.45594000000E+02  0.51100000000E-03 0. -1.
    9900012    2    1    2    0    0 -0.10461050367E+01  0.53955988856E+00  0.82512456538E-01  0.90008055541E+02  0.90000321073E+02 0.  0.
        -12    1    1    2    0    0  0.10461050367E+01 -0.53955988856E+00 -0.82512456538E-01  0.11799444591E+01  0.00000000000E+00 0.  1.
         11    1    3    3    0    0  0.32687501110E+02  0.19630078560E+02  0.49401636392E+01  0.38447599797E+02  0.51100000000E-03 0. -1.
        -11    1    3    3    0    0  0.11047989780E+01  0.67356396616E+01 -0.45300623602E+01  0.81921235147E+01  0.51100000000E-03 0.  1.
        -12    1    3    3    0    0 -0.34838405125E+02 -0.25826158333E+02 -0.32758882240E+00  0.43368332229E+02  0.00000000000E+00 0.  1.
</event>
<event>
 7    1  0.4555057E-015  0.9000772E+02  0.7816164E-02  0.1186339E+00
        -11   -1    0    0    0    0  0.00000000000E+00  0.00000000000E+00  0.45593999997E+02  0.45594000000E+02  0.51100000000E-03 0.  1.
         11   -1    0    0    0    0 -0.00000000000E+00 -0.00000000000E+00 -0.45593999997E+02  0.45594000000E+02  0.51100000000E-03 0. -1.
    9900012    2    1    2    0    0  0.14085104207E+00  0.11506961260E+01  0.22163381904E+00  0.90007719465E+02  0.89999980562E+02 0.  0.
        -12    1    1    2    0    0 -0.14085104207E+00 -0.11506961260E+01 -0.22163381904E+00  0.11802805346E+01  0.00000000000E+00 0.  1.
         11    1    3    3    0    0 -0.17405623105E+02 -0.25182466906E+02 -0.21919367236E+02  0.37650644290E+02  0.51100000000E-03 0. -1.
        -11    1    3    3    0    0 -0.59415944010E+01 -0.51359230807E+01  0.60764584089E+01  0.99299343891E+01  0.51100000000E-03 0.  1.
        -12    1    3    3    0    0  0.23488068548E+02  0.31469086113E+02  0.16064542646E+02  0.42427140787E+02  0.00000000000E+00 0.  1.
</event>
<event>
 7    1  0.4555057E-015  0.9000774E+02  0.7816164E-02  0.1186339E+00
        -11   -1    0    0    0    0  0.00000000000E+00  0.00000000000E+00  0.45593999997E+02  0.45594000000E+02  0.51100000000E-03 0. -1.
         11   -1    0    0    0    0 -0.00000000000E+00 -0.00000000000E+00 -0.45593999997E+02  0.45594000000E+02  0.51100000000E-03 0.  1.
    9900012    2    1    2    0    0 -0.10490135653E+01 -0.53529455473E+00  0.77772780751E-01  0.90007738027E+02  0.89999999369E+02 0.  0.
        -12    1    1    2    0    0  0.10490135653E+01  0.53529455473E+00 -0.77772780751E-01  0.11802619734E+01  0.00000000000E+00 0.  1.
         11    1    3    3    0    0 -0.30385273064E+02 -0.23876460598E+02 -0.43077872947E+01  0.38883251169E+02  0.51100000000E-03 0. -1.
        -11    1    3    3    0    0 -0.27105303255E+01 -0.10094490665E+01  0.10069365439E+02  0.10476549177E+02  0.51100000000E-03 0.  1.
        -12    1    3    3    0    0  0.32046789824E+02  0.24350615110E+02 -0.56838053631E+01  0.40647937680E+02  0.00000000000E+00 0.  1.
</event>
<event>
 7    1  0.4555057E-015  0.9000766E+02  0.7816164E-02  0.1186339E+00
        -11   -1    0    0    0    0  0.00000000000E+00  0.00000000000E+00  0.45593999997E+02  0.45594000000E+02  0.51100000000E-03 0.  1.
         11   -1    0    0    0    0 -0.00000000000E+00 -0.00000000000E+00 -0.45593999997E+02  0.45594000000E+02  0.51100000000E-03 0. -1.
    9900012    2    1    2    0    0 -0.92004485800E-01 -0.11507510556E+01 -0.24599177661E+00  0.90007659044E+02  0.89999919344E+02 0.  0.
        -12    1    1    2    0    0  0.92004485800E-01  0.11507510556E+01  0.24599177661E+00  0.11803409557E+01  0.00000000000E+00 0.  1.
         11    1    3    3    0    0 -0.11951502278E+02 -0.25791081426E+00  0.10341610256E+00  0.11954732111E+02  0.51100000000E-03 0. -1.
        -11    1    3    3    0    0  0.10919662947E+02 -0.38420067569E+02 -0.48915848016E+01  0.40240132120E+02  0.51100000000E-03 0.  1.
         12    1    3    3    0    0  0.93983484550E+00  0.37527227328E+02  0.45421769225E+01  0.37812794814E+02  0.00000000000E+00 0. -1.
</event>
<event>
 7    1  0.4555057E-015  0.9000655E+02  0.7816164E-02  0.1186341E+00
        -11   -1    0    0    0    0  0.00000000000E+00  0.00000000000E+00  0.45593999997E+02  0.45594000000E+02  0.51100000000E-03 0.  1.
         11   -1    0    0    0    0 -0.00000000000E+00 -0.00000000000E+00 -0.45593999997E+02  0.45594000000E+02  0.51100000000E-03 0. -1.
    9900012    2    1    2    0    0 -0.61822641567E+00  0.52964882428E+00 -0.85621373500E+00  0.90006545922E+02  0.89998791520E+02 0.  0.
        -12    1    1    2    0    0  0.61822641567E+00 -0.52964882428E+00  0.85621373500E+00  0.11814540779E+01  0.00000000000E+00 0.  1.
         11    1    3    3    0    0  0.40926648709E+01  0.68181736660E+01  0.12421948421E+02  0.14749311873E+02  0.51100000000E-03 0. -1.
        -11    1    3    3    0    0  0.80011513117E+01 -0.23142801440E+02  0.22798970954E+02  0.33457446968E+02  0.51100000000E-03 0.  1.
         12    1    3    3    0    0 -0.12712042598E+02  0.16854276598E+02 -0.36077133110E+02  0.41799787082E+02  0.00000000000E+00 0. -1.
</event>
<event>
 7    1  0.4555057E-015  0.9000767E+02  0.7816164E-02  0.1186339E+00
        -11   -1    0    0    0    0  0.00000000000E+00  0.00000000000E+00  0.45593999997E+02  0.45594000000E+02  0.51100000000E-03 0. -1.
         11   -1    0    0    0    0 -0.00000000000E+00 -0.00000000000E+00 -0.45593999997E+02  0.45594000000E+02  0.51100000000E-03 0.  1.
    9900012    2    1    2    0    0 -0.83874850240E+00  0.81723893484E+00  0.14765777611E+00  0.90007668968E+02  0.89999929398E+02 0.  0.
        -12    1    1    2    0    0  0.83874850240E+00 -0.81723893484E+00 -0.14765777611E+00  0.11803310323E+01  0.00000000000E+00 0.  1.
         11    1    3    3    0    0 -0.42904203768E+01 -0.35073081131E+01  0.27815321954E+02  0.28361964898E+02  0.51100000000E-03 0. -1.
        -11    1    3    3    0    0  0.21907386856E+02 -0.94246618213E+01  0.21886225435E+01  0.23948860478E+02  0.51100000000E-03 0.  1.
        -12    1    3    3    0    0 -0.18455714981E+02  0.13749208869E+02 -0.29856286721E+02  0.37696843592E+02  0.00000000000E+00 0.  1.
</event>
<event>
 7    1  0.4555057E-015  0.9000773E+02  0.7816164E-02  0.1186339E+00
        -11   -1    0    0    0    0  0.00000000000E+00  0.00000000000E+00  0.45593999997E+02  0.45594000000E+02  0.51100000000E-03 0. -1.
         11   -1    0    0    0    0 -0.00000000000E+00 -0.00000000000E+00 -0.45593999997E+02  0.45594000000E+02  0.51100000000E-03 0.  1.
    9900012    2    1    2    0    0 -0.64716357910E+00 -0.58829839275E+00  0.79254553775E+00  0.90007727097E+02  0.89999988294E+02 0.  0.
        -12    1    1    2    0    0  0.64716357910E+00  0.58829839275E+00 -0.79254553775E+00  0.11802729034E+01  0.00000000000E+00 0.  1.
         11    1    3    3    0    0  0.78805185249E+01 -0.49922511717E+01 -0.16931676580E+01  0.94811371133E+01  0.51100000000E-03 0. -1.
        -11    1    3    3    0    0  0.33246048702E+02 -0.89929540006E+01  0.10340250439E+02  0.35959612836E+02  0.51100000000E-03 0.  1.
         12    1    3    3    0    0 -0.41773730806E+02  0.13396906780E+02 -0.78545372437E+01  0.44566977147E+02  0.00000000000E+00 0. -1.
</event>
<event>
 7    1  0.4555057E-015  0.9000774E+02  0.7816164E-02  0.1186339E+00
        -11   -1    0    0    0    0  0.00000000000E+00  0.00000000000E+00  0.45593999997E+02  0.45594000000E+02  0.51100000000E-03 0.  1.
         11   -1    0    0    0    0 -0.00000000000E+00 -0.00000000000E+00 -0.45593999997E+02  0.45594000000E+02  0.51100000000E-03 0. -1.
    9900012    2    1    2    0    0 -0.59408439357E+00  0.10110038282E+01 -0.13400754495E+00  0.90007736034E+02  0.89999997350E+02 0.  0.
        -12    1    1    2    0    0  0.59408439357E+00 -0.10110038282E+01  0.13400754495E+00  0.11802639660E+01  0.00000000000E+00 0.  1.
         11    1    3    3    0    0  0.35989611785E+02 -0.15352848629E+02 -0.13342609485E+02  0.41339900165E+02  0.51100000000E-03 0. -1.
        -11    1    3    3    0    0 -0.15001467712E+01 -0.37477382608E+01  0.65355054456E+01  0.76817194753E+01  0.51100000000E-03 0.  1.
        -12    1    3    3    0    0 -0.35083549408E+02  0.20111590718E+02  0.66730964943E+01  0.40986116394E+02  0.00000000000E+00 0.  1.
</event>
<event>
 7    1  0.4555057E-015  0.9000768E+02  0.7816164E-02  0.1186339E+00
        -11   -1    0    0    0    0  0.00000000000E+00  0.00000000000E+00  0.45593999997E+02  0.45594000000E+02  0.51100000000E-03 0.  1.
         11   -1    0    0    0    0 -0.00000000000E+00 -0.00000000000E+00 -0.45593999997E+02  0.45594000000E+02  0.51100000000E-03 0. -1.
    9900012    2    1    2    0    0  0.24379894383E+00 -0.52286614289E+00 -0.10297236185E+01  0.90007679002E+02  0.89999939565E+02 0.  0.
        -12    1    1    2    0    0 -0.24379894383E+00  0.52286614289E+00  0.10297236185E+01  0.11803209982E+01  0.00000000000E+00 0.  1.
         11    1    3    3    0    0  0.31167539248E+01 -0.19010101210E+00  0.93015291456E+01  0.98116633722E+01  0.51100000000E-03 0. -1.
        -11    1    3    3    0    0  0.27476581406E+02  0.16868725689E+02 -0.26510789644E+02  0.41741327242E+02  0.51100000000E-03 0.  1.
         12    1    3    3    0    0 -0.30349536387E+02 -0.17201490820E+02  0.16179536880E+02  0.38454688387E+02  0.00000000000E+00 0. -1.
</event>
<event>
 7    1  0.4555057E-015  0.9000769E+02  0.7816164E-02  0.1186339E+00
        -11   -1    0    0    0    0  0.00000000000E+00  0.00000000000E+00  0.45593999997E+02  0.45594000000E+02  0.51100000000E-03 0.  1.
         11   -1    0    0    0    0 -0.00000000000E+00 -0.00000000000E+00 -0.45593999997E+02  0.45594000000E+02  0.51100000000E-03 0. -1.
    9900012    2    1    2    0    0 -0.10785870981E+01 -0.15383209746E+00 -0.45398938967E+00  0.90007694612E+02  0.89999955381E+02 0.  0.
        -12    1    1    2    0    0  0.10785870981E+01  0.15383209746E+00  0.45398938967E+00  0.11803053877E+01  0.00000000000E+00 0.  1.
         11    1    3    3    0    0 -0.32508385043E+01  0.35851677703E+02  0.96222275299E+01  0.37262555039E+02  0.51100000000E-03 0. -1.
        -11    1    3    3    0    0 -0.75885448320E+01  0.45942222970E+01 -0.61712960454E+01  0.10806377114E+02  0.51100000000E-03 0.  1.
        -12    1    3    3    0    0  0.97607962382E+01 -0.40599732098E+02 -0.39049208742E+01  0.41938762460E+02  0.00000000000E+00 0.  1.
</event>
<event>
 7    1  0.4555057E-015  0.9000774E+02  0.7816164E-02  0.1186339E+00
        -11   -1    0    0    0    0  0.00000000000E+00  0.00000000000E+00  0.45593999997E+02  0.45594000000E+02  0.51100000000E-03 0.  1.
         11   -1    0    0    0    0 -0.00000000000E+00 -0.00000000000E+00 -0.45593999997E+02  0.45594000000E+02  0.51100000000E-03 0. -1.
    9900012    2    1    2    0    0 -0.45224127367E+00  0.94782972573E+00  0.53860834361E+00  0.90007744813E+02  0.90000006245E+02 0.  0.
        -12    1    1    2    0    0  0.45224127367E+00 -0.94782972573E+00 -0.53860834361E+00  0.11802551870E+01  0.00000000000E+00 0.  1.
         11    1    3    3    0    0 -0.12590604519E+02  0.10300876731E+02 -0.39776071056E+02  0.42974029512E+02  0.51100000000E-03 0. -1.
        -11    1    3    3    0    0  0.53896653917E+01  0.46411751877E+01  0.57794548634E+01  0.91646657842E+01  0.51100000000E-03 0.  1.
        -12    1    3    3    0    0  0.67486978541E+01 -0.13994222193E+02  0.34535224536E+02  0.37869049517E+02  0.00000000000E+00 0.  1.
</event>
<event>
 7    1  0.4555057E-015  0.9000766E+02  0.7816164E-02  0.1186339E+00
        -11   -1    0    0    0    0  0.00000000000E+00  0.00000000000E+00  0.45593999997E+02  0.45594000000E+02  0.51100000000E-03 0. -1.
         11   -1    0    0    0    0 -0.00000000000E+00 -0.00000000000E+00 -0.45593999997E+02  0.45594000000E+02  0.51100000000E-03 0.  1.
    9900012    2    1    2    0    0  0.11531749029E+01 -0.10362116563E+00 -0.22944199268E+00  0.90007663891E+02  0.89999924254E+02 0.  0.
        -12    1    1    2    0    0 -0.11531749029E+01  0.10362116563E+00  0.22944199268E+00  0.11803361092E+01  0.00000000000E+00 0.  1.
         11    1    3    3    0    0 -0.56672003863E+01 -0.39710311243E+01  0.70946642511E+01  0.99106260905E+01  0.51100000000E-03 0. -1.
        -11    1    3    3    0    0  0.85070762421E+01  0.41317221761E+02 -0.19810898522E+01  0.42230414129E+02  0.51100000000E-03 0.  1.
         12    1    3    3    0    0 -0.16867009528E+01 -0.37449811802E+02 -0.53430163916E+01  0.37866623672E+02  0.00000000000E+00 0. -1.
</event>
<event>
 7    1  0.4555057E-015  0.9000772E+02  0.7816164E-02  0.1186339E+00
        -11   -1    0    0    0    0  0.00000000000E+00  0.00000000000E+00  0.45593999997E+02  0.45594000000E+02  0.51100000000E-03 0.  1.
         11   -1    0    0    0    0 -0.00000000000E+00 -0.00000000000E+00 -0.45593999997E+02  0.45594000000E+02  0.51100000000E-03 0. -1.
    9900012    2    1    2    0    0  0.51562138566E+00 -0.88922142781E+00  0.58006491381E+00  0.90007722293E+02  0.89999983427E+02 0.  0.
        -12    1    1    2    0    0 -0.51562138566E+00  0.88922142781E+00 -0.58006491381E+00  0.11802777068E+01  0.00000000000E+00 0.  1.
         11    1    3    3    0    0  0.39949615320E+01  0.61554030162E+01  0.10643774695E+02  0.12928211166E+02  0.51100000000E-03 0. -1.
        -11    1    3    3    0    0 -0.31310214742E+01  0.11853370506E+02  0.30203500290E+02  0.32596888162E+02  0.51100000000E-03 0.  1.
         12    1    3    3    0    0 -0.34831867222E+00 -0.18897994950E+02 -0.40267210070E+02  0.44482622966E+02  0.00000000000E+00 0. -1.
</event>
<event>
 7    1  0.4555057E-015  0.9000775E+02  0.7816164E-02  0.1186339E+00
        -11   -1    0    0    0    0  0.00000000000E+00  0.00000000000E+00  0.45593999997E+02  0.45594000000E+02  0.51100000000E-03 0.  1.
         11   -1    0    0    0    0 -0.00000000000E+00 -0.00000000000E+00 -0.45593999997E+02  0.45594000000E+02  0.51100000000E-03 0. -1.
    9900012    2    1    2    0    0 -0.37888099742E+00 -0.40802276278E+00 -0.10406527246E+01  0.90007749400E+02  0.90000010892E+02 0.  0.
        -12    1    1    2    0    0  0.37888099742E+00  0.40802276278E+00  0.10406527246E+01  0.11802505998E+01  0.00000000000E+00 0.  1.
         11    1    3    3    0    0  0.21752857355E+02  0.10330463230E+02 -0.58871120655E+01  0.24790388509E+02  0.51100000000E-03 0. -1.
        -11    1    3    3    0    0  0.81337043311E+01 -0.19617659329E+02  0.20925644526E+02  0.29814296953E+02  0.51100000000E-03 0.  1.
         12    1    3    3    0    0 -0.30265442684E+02  0.88791733366E+01 -0.16079185186E+02  0.35403063938E+02  0.00000000000E+00 0. -1.
</event>
<event>
 7    1  0.4555057E-015  0.9000776E+02  0.7816164E-02  0.1186339E+00
        -11   -1    0    0    0    0  0.00000000000E+00  0.00000000000E+00  0.45593999997E+02  0.45594000000E+02  0.51100000000E-03 0. -1.
         11   -1    0    0    0    0 -0.00000000000E+00 -0.00000000000E+00 -0.45593999997E+02  0.45594000000E+02  0.51100000000E-03 0.  1.
    9900012    2    1    2    0    0 -0.26526676528E-01 -0.45136203940E+00  0.10901949003E+01  0.90007764313E+02  0.90000026002E+02 0.  0.
        -12    1    1    2    0    0  0.26526676528E-01  0.45136203940E+00 -0.10901949003E+01  0.11802356865E+01  0.00000000000E+00 0.  1.
         11    1    3    3    0    0  0.42804394443E+01 -0.27319292470E+01 -0.69260603980E+01  0.85881262302E+01  0.51100000000E-03 0. -1.
        -11    1    3    3    0    0  0.34903584720E+02 -0.14207707619E+02  0.94787437351E+01  0.38858277949E+02  0.51100000000E-03 0.  1.
         12    1    3    3    0    0 -0.39210550841E+02  0.16488274827E+02 -0.14624884368E+01  0.42561360134E+02  0.00000000000E+00 0. -1.
</event>
<event>
 7    1  0.4830034E-015  0.9000787E+02  0.7816164E-02  0.1186339E+00
        -11   -1    0    0    0    0  0.00000000000E+00  0.00000000000E+00  0.45593999997E+02  0.45594000000E+02  0.51100000000E-03 0. -1.
         11   -1    0    0    0    0 -0.00000000000E+00 -0.00000000000E+00 -0.45593999997E+02  0.45594000000E+02  0.51100000000E-03 0.  1.
    9900012    2    1    2    0    0  0.53224616096E+00 -0.12580340316E+00  0.10457451891E+01  0.90007874806E+02  0.90000137954E+02 0.  0.
        -12    1    1    2    0    0 -0.53224616096E+00  0.12580340316E+00 -0.10457451891E+01  0.11801251936E+01  0.00000000000E+00 0.  1.
         11    1    3    3    0    0  0.19537851748E+02  0.29177394282E+02  0.11832927239E+02  0.37054907304E+02  0.51100000000E-03 0. -1.
        -11    1    3    3    0    0  0.61511261896E+01 -0.86506464017E-01  0.79777009018E+01  0.10074102874E+02  0.51100000000E-03 0.  1.
        -12    1    3    3    0    0 -0.25156731777E+02 -0.29216691221E+02 -0.18764882952E+02  0.42878864628E+02  0.00000000000E+00 0.  1.
</event>
<event>
 7    1  0.4555057E-015  0.9000777E+02  0.7816164E-02  0.1186339E+00
        -11   -1    0    0    0    0  0.00000000000E+00  0.00000000000E+00  0.45593999997E+02  0.45594000000E+02  0.51100000000E-03 0.  1.
         11   -1    0    0    0    0 -0.00000000000E+00 -0.00000000000E+00 -0.45593999997E+02  0.45594000000E+02  0.51100000000E-03 0. -1.
    9900012    2    1    2    0    0 -0.11607483517E+01 -0.13269453017E-01 -0.21313063327E+00  0.90007772276E+02  0.90000034070E+02 0.  0.
        -12    1    1    2    0    0  0.11607483517E+01  0.13269453017E-01  0.21313063327E+00  0.11802277243E+01  0.00000000000E+00 0.  1.
         11    1    3    3    0    0 -0.10704593048E+02  0.79020340602E+01 -0.71307328568E+01  0.15095622079E+02  0.51100000000E-03 0. -1.
        -11    1    3    3    0    0 -0.18593625105E+02 -0.15464814763E+02  0.29431918303E+02  0.38093584833E+02  0.51100000000E-03 0.  1.
         12    1    3    3    0    0  0.28137469801E+02  0.75495112498E+01 -0.22514316079E+02  0.36818565364E+02  0.00000000000E+00 0. -1.
</event>
<event>
 7    1  0.4555057E-015  0.9000771E+02  0.7816164E-02  0.1186339E+00
        -11   -1    0    0    0    0  0.00000000000E+00  0.00000000000E+00  0.45593999997E+02  0.45594000000E+02  0.51100000000E-03 0. -1.
         11   -1    0    0    0    0 -0.00000000000E+00 -0.00000000000E+00 -0.45593999997E+02  0.45594000000E+02  0.51100000000E-03 0.  1.
    9900012    2    1    2    0    0  0.47450309829E+00  0.55957576856E+00  0.92455287567E+00  0.90007713488E+02  0.89999974506E+02 0.  0.
        -12    1    1    2    0    0 -0.47450309829E+00 -0.55957576856E+00 -0.92455287567E+00  0.11802865122E+01  0.00000000000E+00 0.  1.
         11    1    3    3    0    0 -0.29772747844E+02 -0.23642918625E+01  0.19256210294E+02  0.35536010262E+02  0.51100000000E-03 0. -1.
        -11    1    3    3    0    0  0.18932856930E+01 -0.16039542035E+02 -0.92807192143E+00  0.16177538662E+02  0.51100000000E-03 0.  1.
        -12    1    3    3    0    0  0.28353965249E+02  0.18963409666E+02 -0.17403585497E+02  0.38294164564E+02  0.00000000000E+00 0.  1.
</event>
<event>
 7    1  0.4555057E-015  0.9000769E+02  0.7816164E-02  0.1186339E+00
        -11   -1    0    0    0    0  0.00000000000E+00  0.00000000000E+00  0.45593999997E+02  0.45594000000E+02  0.51100000000E-03 0.  1.
         11   -1    0    0    0    0 -0.00000000000E+00 -0.00000000000E+00 -0.45593999997E+02  0.45594000000E+02  0.51100000000E-03 0. -1.
    9900012    2    1    2    0    0 -0.47153366681E+00  0.52401684972E+00 -0.94667739807E+00  0.90007688281E+02  0.89999948966E+02 0.  0.
        -12    1    1    2    0    0  0.47153366681E+00 -0.52401684972E+00  0.94667739807E+00  0.11803117189E+01  0.00000000000E+00 0.  1.
         11    1    3    3    0    0 -0.86440712869E+01  0.72206086179E+01 -0.34708607134E+02  0.36490335250E+02  0.51100000000E-03 0. -1.
        -11    1    3    3    0    0  0.13364004440E+01  0.13458778453E+02 -0.96478974821E-01  0.13525309314E+02  0.51100000000E-03 0.  1.
        -12    1    3    3    0    0  0.68361371761E+01 -0.20155370221E+02  0.33858408710E+02  0.39992043717E+02  0.00000000000E+00 0.  1.
</event>
<event>
 7    1  0.4555057E-015  0.9000777E+02  0.7816164E-02  0.1186339E+00
        -11   -1    0    0    0    0  0.00000000000E+00  0.00000000000E+00  0.45593999997E+02  0.45594000000E+02  0.51100000000E-03 0.  1.
         11   -1    0    0    0    0 -0.00000000000E+00 -0.00000000000E+00 -0.45593999997E+02  0.45594000000E+02  0.51100000000E-03 0. -1.
    9900012    2    1    2    0    0 -0.37821642781E-01 -0.67606979229E+00 -0.96666978279E+00  0.90007766417E+02  0.90000028134E+02 0.  0.
        -12    1    1    2    0    0  0.37821642781E-01  0.67606979229E+00  0.96666978279E+00  0.11802335827E+01  0.00000000000E+00 0.  1.
         11    1    3    3    0    0  0.19959089970E+02  0.28568216388E+02 -0.14086480745E+02  0.37589056919E+02  0.51100000000E-03 0. -1.
        -11    1    3    3    0    0  0.69732674717E+01  0.67384573076E+00  0.97389555632E+01  0.11996990582E+02  0.51100000000E-03 0.  1.
        -12    1    3    3    0    0 -0.26970179084E+02 -0.29918131911E+02  0.33808553991E+01  0.40421718916E+02  0.00000000000E+00 0.  1.
</event>
<event>
 7    1  0.4555057E-015  0.9000777E+02  0.7816164E-02  0.1186339E+00
        -11   -1    0    0    0    0  0.00000000000E+00  0.00000000000E+00  0.45593999997E+02  0.45594000000E+02  0.51100000000E-03 0.  1.
         11   -1    0    0    0    0 -0.00000000000E+00 -0.00000000000E+00 -0.45593999997E+02  0.45594000000E+02  0.51100000000E-03 0. -1.
    9900012    2    1    2    0    0 -0.86342153032E+00  0.18764769977E+00  0.78245091732E+00  0.90007772125E+02  0.90000033917E+02 0.  0.
        -12    1    1    2    0    0  0.86342153032E+00 -0.18764769977E+00 -0.78245091732E+00  0.11802278747E+01  0.00000000000E+00 0.  1.
         11    1    3    3    0    0  0.22522215141E+02 -0.29350829997E+02 -0.17628650774E+02  0.40981590071E+02  0.51100000000E-03 0. -1.
        -11    1    3    3    0    0 -0.16529485380E+01 -0.42851299930E+01  0.46413663774E+01  0.65296906540E+01  0.51100000000E-03 0.  1.
        -12    1    3    3    0    0 -0.21732688134E+02  0.33823607690E+02  0.13769735314E+02  0.42496491400E+02  0.00000000000E+00 0.  1.
</event>
<event>
 7    1  0.4555057E-015  0.9000775E+02  0.7816164E-02  0.1186339E+00
        -11   -1    0    0    0    0  0.00000000000E+00  0.00000000000E+00  0.45593999997E+02  0.45594000000E+02  0.51100000000E-03 0. -1.
         11   -1    0    0    0    0 -0.00000000000E+00 -0.00000000000E+00 -0.45593999997E+02  0.45594000000E+02  0.51100000000E-03 0.  1.
    9900012    2    1    2    0    0 -0.90557260491E+00 -0.10329883888E+00  0.74983980595E+00  0.90007749125E+02  0.90000010614E+02 0.  0.
        -12    1    1    2    0    0  0.90557260491E+00  0.10329883888E+00 -0.74983980595E+00  0.11802508748E+01  0.00000000000E+00 0.  1.
         11    1    3    3    0    0  0.26434393504E+02  0.25205027846E+02 -0.11191085514E+02  0.38200929097E+02  0.51100000000E-03 0. -1.
        -11    1    3    3    0    0  0.66308425983E+01  0.76217258166E+00 -0.16588127958E+01  0.68775461292E+01  0.51100000000E-03 0.  1.
        -12    1    3    3    0    0 -0.33970808708E+02 -0.26070499266E+02  0.13599738116E+02  0.44929273899E+02  0.00000000000E+00 0.  1.
</event>
<event>
 7    1  0.4555057E-015  0.9000770E+02  0.7816164E-02  0.1186339E+00
        -11   -1    0    0    0    0  0.00000000000E+00  0.00000000000E+00  0.45593999997E+02  0.45594000000E+02  0.51100000000E-03 0. -1.
         11   -1    0    0    0    0 -0.00000000000E+00 -0.00000000000E+00 -0.45593999997E+02  0.45594000000E+02  0.51100000000E-03 0.  1.
    9900012    2    1    2    0    0 -0.82996360722E+00 -0.43885843303E+00  0.71531599168E+00  0.90007697801E+02  0.89999958612E+02 0.  0.
        -12    1    1    2    0    0  0.82996360722E+00  0.43885843303E+00 -0.71531599168E+00  0.11803021992E+01  0.00000000000E+00 0.  1.
         11    1    3    3    0    0  0.57700264919E+01 -0.91333317424E+01  0.37226087427E+02  0.38761998656E+02  0.51100000000E-03 0. -1.
        -11    1    3    3    0    0  0.14310003099E+01 -0.85407562235E+01  0.14581632585E+01  0.87817150435E+01  0.51100000000E-03 0.  1.
        -12    1    3    3    0    0 -0.80309904090E+01  0.17235229533E+02 -0.37968934694E+02  0.42463984101E+02  0.00000000000E+00 0.  1.
</event>
<event>
 7    1  0.4555057E-015  0.9000782E+02  0.7816164E-02  0.1186339E+00
        -11   -1    0    0    0    0  0.00000000000E+00  0.00000000000E+00  0.45593999997E+02  0.45594000000E+02  0.51100000000E-03 0.  1.
         11   -1    0    0    0    0 -0.00000000000E+00 -0.00000000000E+00 -0.45593999997E+02  0.45594000000E+02  0.51100000000E-03 0. -1.
    9900012    2    1    2    0    0  0.41516540989E+00  0.43248848237E+00 -0.10165722228E+01  0.90007818790E+02  0.90000081198E+02 0.  0.
        -12    1    1    2    0    0 -0.41516540989E+00 -0.43248848237E+00  0.10165722228E+01  0.11801812103E+01  0.00000000000E+00 0.  1.
         11    1    3    3    0    0  0.91070166236E+01 -0.56398993763E+00 -0.34933814852E+02  0.36105778717E+02  0.51100000000E-03 0. -1.
        -11    1    3    3    0    0  0.62875672837E-01 -0.19416692977E+01 -0.94065113809E+01  0.96050241869E+01  0.51100000000E-03 0.  1.
        -12    1    3    3    0    0 -0.87547268865E+01  0.29381477176E+01  0.43323754010E+02  0.44297015885E+02  0.00000000000E+00 0.  1.
</event>
<event>
 7    1  0.4555057E-015  0.9000776E+02  0.7816164E-02  0.1186339E+00
        -11   -1    0    0    0    0  0.00000000000E+00  0.00000000000E+00  0.45593999997E+02  0.45594000000E+02  0.51100000000E-03 0.  1.
         11   -1    0    0    0    0 -0.00000000000E+00 -0.00000000000E+00 -0.45593999997E+02  0.45594000000E+02  0.51100000000E-03 0. -1.
    9900012    2    1    2    0    0  0.70491080123E+00 -0.14298691674E+00 -0.93574437379E+00  0.90007761876E+02  0.90000023533E+02 0.  0.
        -12    1    1    2    0    0 -0.70491080123E+00  0.14298691674E+00  0.93574437379E+00  0.11802381239E+01  0.00000000000E+00 0.  1.
         11    1    3    3    0    0  0.26769105486E+01  0.77481320036E+01 -0.71999586641E+01  0.10910490578E+02  0.51100000000E-03 0. -1.
        -11    1    3    3    0    0  0.32570785896E+02 -0.15154042970E+02  0.20123422813E+02  0.41175881996E+02  0.51100000000E-03 0.  1.
         12    1    3    3    0    0 -0.34542785643E+02  0.72629240494E+01 -0.13859208522E+02  0.37921389302E+02  0.00000000000E+00 0. -1.
</event>
<event>
 7    1  0.4555057E-015  0.9000782E+02  0.7816164E-02  0.1186339E+00
        -11   -1    0    0    0    0  0.00000000000E+00  0.00000000000E+00  0.45593999997E+02  0.45594000000E+02  0.51100000000E-03 0. -1.
         11   -1    0    0    0    0 -0.00000000000E+00 -0.00000000000E+00 -0.45593999997E+02  0.45594000000E+02  0.51100000000E-03 0.  1.
    9900012    2    1    2    0    0  0.71616152297E+00  0.93798295552E+00  0.11276050915E-01  0.90007819293E+02  0.90000081708E+02 0.  0.
        -12    1    1    2    0    0 -0.71616152297E+00 -0.93798295552E+00 -0.11276050915E-01  0.11801807070E+01  0.00000000000E+00 0.  1.
         11    1    3    3    0    0  0.54604621438E+01  0.37550132093E+02 -0.21908560048E+02  0.43815682931E+02  0.51100000000E-03 0. -1.
        -11    1    3    3    0    0  0.64715559577E+00 -0.54657685020E+01  0.11769434865E+02  0.12992806971E+02  0.51100000000E-03 0.  1.
        -12    1    3    3    0    0 -0.53914562166E+01 -0.31146380636E+02  0.10150401234E+02  0.33199329392E+02  0.00000000000E+00 0.  1.
</event>
<event>
 7    1  0.4555057E-015  0.9000804E+02  0.7816164E-02  0.1186338E+00
        -11   -1    0    0    0    0  0.00000000000E+00  0.00000000000E+00  0.45593999997E+02  0.45594000000E+02  0.51100000000E-03 0.  1.
         11   -1    0    0    0    0 -0.00000000000E+00 -0.00000000000E+00 -0.45593999997E+02  0.45594000000E+02  0.51100000000E-03 0. -1.
    9900012    2    1    2    0    0  0.92457443786E+00 -0.70626448365E+00 -0.19664395101E+00  0.90008035486E+02  0.90000300753E+02 0.  0.
        -12    1    1    2    0    0 -0.92457443786E+00  0.70626448365E+00  0.19664395101E+00  0.11799645145E+01  0.00000000000E+00 0.  1.
         11    1    3    3    0    0 -0.22386480007E+01  0.47668439336E+01 -0.72925862307E+01  0.89953410247E+01  0.51100000000E-03 0. -1.
        -11    1    3    3    0    0  0.33640111953E+02  0.18697755749E+02 -0.79611261416E+01  0.39301943107E+02  0.51100000000E-03 0.  1.
         12    1    3    3    0    0 -0.30476889515E+02 -0.24170864167E+02  0.15057068421E+02  0.41710751354E+02  0.00000000000E+00 0. -1.
</event>
<event>
 7    1  0.4555057E-015  0.9000783E+02  0.7816164E-02  0.1186339E+00
        -11   -1    0    0    0    0  0.00000000000E+00  0.00000000000E+00  0.45593999997E+02  0.45594000000E+02  0.51100000000E-03 0.  1.
         11   -1    0    0    0    0 -0.00000000000E+00 -0.00000000000E+00 -0.45593999997E+02  0.45594000000E+02  0.51100000000E-03 0. -1.
    9900012    2    1    2    0    0  0.14106173941E-01 -0.88246500832E+00  0.78349624689E+00  0.90007826350E+02  0.90000088858E+02 0.  0.
        -12    1    1    2    0    0 -0.14106173941E-01  0.88246500832E+00 -0.78349624689E+00  0.11801736499E+01  0.00000000000E+00 0.  1.
         11    1    3    3    0    0 -0.71707543678E+01 -0.35049298915E+01 -0.83660852593E+01  0.11562682845E+02  0.51100000000E-03 0. -1.
        -11    1    3    3    0    0  0.32633498822E+02  0.37941890129E+01 -0.20986208039E+02  0.38984125535E+02  0.51100000000E-03 0.  1.
         12    1    3    3    0    0 -0.25448638280E+02 -0.11717241297E+01  0.30135789545E+02  0.39461017970E+02  0.00000000000E+00 0. -1.
</event>
<event>
 7    1  0.4555057E-015  0.9000755E+02  0.7816164E-02  0.1186339E+00
        -11   -1    0    0    0    0  0.00000000000E+00  0.00000000000E+00  0.45593999997E+02  0.45594000000E+02  0.51100000000E-03 0. -1.
         11   -1    0    0    0    0 -0.00000000000E+00 -0.00000000000E+00 -0.45593999997E+02  0.45594000000E+02  0.51100000000E-03 0.  1.
    9900012    2    1    2    0    0  0.72575503624E-01  0.96884854086E+00  0.67046464376E+00  0.90007551976E+02  0.89999810862E+02 0.  0.
        -12    1    1    2    0    0 -0.72575503624E-01 -0.96884854086E+00 -0.67046464376E+00  0.11804480240E+01  0.00000000000E+00 0.  1.
         11    1    3    3    0    0  0.24572349691E+02 -0.57370160013E+01  0.28214684947E+02  0.37852109173E+02  0.51100000000E-03 0. -1.
        -11    1    3    3    0    0  0.61055610839E+01  0.82584551515E+01  0.94494352381E+00  0.10313722711E+02  0.51100000000E-03 0.  1.
        -12    1    3    3    0    0 -0.30605335271E+02 -0.15525906093E+01 -0.28489163827E+02  0.41841720092E+02  0.00000000000E+00 0.  1.
</event>
<event>
 7    1  0.4555057E-015  0.9000773E+02  0.7816164E-02  0.1186339E+00
        -11   -1    0    0    0    0  0.00000000000E+00  0.00000000000E+00  0.45593999997E+02  0.45594000000E+02  0.51100000000E-03 0. -1.
         11   -1    0    0    0    0 -0.00000000000E+00 -0.00000000000E+00 -0.45593999997E+02  0.45594000000E+02  0.51100000000E-03 0.  1.
    9900012    2    1    2    0    0  0.72160152023E+00  0.87460593578E+00 -0.32769861742E+00  0.90007732793E+02  0.89999994066E+02 0.  0.
        -12    1    1    2    0    0 -0.72160152023E+00 -0.87460593578E+00  0.32769861742E+00  0.11802672074E+01  0.00000000000E+00 0.  1.
         11    1    3    3    0    0 -0.31872934864E+02  0.15455550199E+02 -0.15563229008E+02  0.38690723775E+02  0.51100000000E-03 0. -1.
        -11    1    3    3    0    0 -0.21785445284E+00 -0.31216074047E+01 -0.86143333175E+01  0.91650767655E+01  0.51100000000E-03 0.  1.
        -12    1    3    3    0    0  0.32812390837E+02 -0.11459336858E+02  0.23849863708E+02  0.42151932252E+02  0.00000000000E+00 0.  1.
</event>
<event>
 7    1  0.4555057E-015  0.9000772E+02  0.7816164E-02  0.1186339E+00
        -11   -1    0    0    0    0  0.00000000000E+00  0.00000000000E+00  0.45593999997E+02  0.45594000000E+02  0.51100000000E-03 0.  1.
         11   -1    0    0    0    0 -0.00000000000E+00 -0.00000000000E+00 -0.45593999997E+02  0.45594000000E+02  0.51100000000E-03 0. -1.
    9900012    2    1    2    0    0 -0.10733092302E+01  0.49095543970E+00  0.44474564900E-02  0.90007724724E+02  0.89999985890E+02 0.  0.
        -12    1    1    2    0    0  0.10733092302E+01 -0.49095543970E+00 -0.44474564900E-02  0.11802752761E+01  0.00000000000E+00 0.  1.
         11    1    3    3    0    0 -0.10902312353E+02  0.29830177277E+02 -0.20841906316E+02  0.37987957963E+02  0.51100000000E-03 0. -1.
        -11    1    3    3    0    0 -0.73113811946E+01 -0.24071225538E+01 -0.64303060500E+01  0.10029923734E+02  0.51100000000E-03 0.  1.
        -12    1    3    3    0    0  0.17140384317E+02 -0.26932099283E+02  0.27276659823E+02  0.41989843027E+02  0.00000000000E+00 0.  1.
</event>
<event>
 7    1  0.4555057E-015  0.9000770E+02  0.7816164E-02  0.1186339E+00
        -11   -1    0    0    0    0  0.00000000000E+00  0.00000000000E+00  0.45593999997E+02  0.45594000000E+02  0.51100000000E-03 0.  1.
         11   -1    0    0    0    0 -0.00000000000E+00 -0.00000000000E+00 -0.45593999997E+02  0.45594000000E+02  0.51100000000E-03 0. -1.
    9900012    2    1    2    0    0 -0.31887500844E+00  0.44831045549E-01 -0.11355270157E+01  0.90007698048E+02  0.89999958863E+02 0.  0.
        -12    1    1    2    0    0  0.31887500844E+00 -0.44831045549E-01  0.11355270157E+01  0.11803019516E+01  0.00000000000E+00 0.  1.
         11    1    3    3    0    0  0.23738267922E+02  0.12923031302E+01 -0.36203258979E+02  0.43311099873E+02  0.51100000000E-03 0. -1.
        -11    1    3    3    0    0 -0.61774342500E+01 -0.57099692914E+01  0.17057614802E+01  0.85833598148E+01  0.51100000000E-03 0.  1.
        -12    1    3    3    0    0 -0.17879708680E+02  0.44624972068E+01  0.33361970483E+02  0.38113238360E+02  0.00000000000E+00 0.  1.
</event>
<event>
 7    1  0.4555057E-015  0.9000773E+02  0.7816164E-02  0.1186339E+00
        -11   -1    0    0    0    0  0.00000000000E+00  0.00000000000E+00  0.45593999997E+02  0.45594000000E+02  0.51100000000E-03 0.  1.
         11   -1    0    0    0    0 -0.00000000000E+00 -0.00000000000E+00 -0.45593999997E+02  0.45594000000E+02  0.51100000000E-03 0. -1.
    9900012    2    1    2    0    0  0.10022266088E+01  0.46330287742E+00 -0.41703806762E+00  0.90007733724E+02  0.89999995010E+02 0.  0.
        -12    1    1    2    0    0 -0.10022266088E+01 -0.46330287742E+00  0.41703806762E+00  0.11802662756E+01  0.00000000000E+00 0.  1.
         11    1    3    3    0    0 -0.24649409092E+01 -0.22289272295E+01  0.13294747175E+02  0.13703807974E+02  0.51100000000E-03 0. -1.
        -11    1    3    3    0    0 -0.29661118646E+02 -0.19198822277E+02 -0.73729538566E+01  0.36093450722E+02  0.51100000000E-03 0.  1.
         12    1    3    3    0    0  0.33128286164E+02  0.21891052384E+02 -0.63388313861E+01  0.40210475028E+02  0.00000000000E+00 0. -1.
</event>
<event>
 7    1  0.9325512E-015  0.9000767E+02  0.7816164E-02  0.1186339E+00
        -11   -1    0    0    0    0  0.00000000000E+00  0.00000000000E+00  0.45593999997E+02  0.45594000000E+02  0.51100000000E-03 0. -1.
         11   -1    0    0    0    0 -0.00000000000E+00 -0.00000000000E+00 -0.45593999997E+02  0.45594000000E+02  0.51100000000E-03 0.  1.
    9900012    2    1    2    0    0 -0.55512231737E+00  0.11067096486E+00  0.10357482460E+01  0.90007668149E+02  0.89999928568E+02 0.  0.
        -12    1    1    2    0    0  0.55512231737E+00 -0.11067096486E+00 -0.10357482460E+01  0.11803318512E+01  0.00000000000E+00 0.  1.
         11    1    3    3    0    0  0.13276409883E+02  0.73520014190E+00  0.36372883235E+02  0.38727125038E+02  0.51100000000E-03 0. -1.
        -11    1    3    3    0    0 -0.41360222327E+01 -0.53302646818E+01  0.57121648592E+01  0.88400921447E+01  0.51100000000E-03 0.  1.
        -12    1    3    3    0    0 -0.96955099680E+01  0.47057355048E+01 -0.41049299848E+02  0.42440450966E+02  0.00000000000E+00 0.  1.
</event>
<event>
 7    1  0.4555057E-015  0.9000787E+02  0.7816164E-02  0.1186339E+00
        -11   -1    0    0    0    0  0.00000000000E+00  0.00000000000E+00  0.45593999997E+02  0.45594000000E+02  0.51100000000E-03 0.  1.
         11   -1    0    0    0    0 -0.00000000000E+00 -0.00000000000E+00 -0.45593999997E+02  0.45594000000E+02  0.51100000000E-03 0. -1.
    9900012    2    1    2    0    0 -0.81171748347E+00  0.84895229340E-01 -0.85241638225E+00  0.90007870278E+02  0.90000133365E+02 0.  0.
        -12    1    1    2    0    0  0.81171748347E+00 -0.84895229340E-01  0.85241638225E+00  0.11801297224E+01  0.00000000000E+00 0.  1.
         11    1    3    3    0    0 -0.68989626547E+01  0.49561904862E+01  0.54098617988E+00  0.85118844068E+01  0.51100000000E-03 0. -1.
        -11    1    3    3    0    0 -0.21072645468E+02 -0.33955282206E+02  0.76483191821E+01  0.40688012526E+02  0.51100000000E-03 0.  1.
         12    1    3    3    0    0  0.27159890639E+02  0.29083986949E+02 -0.90417217442E+01  0.40807973345E+02  0.00000000000E+00 0. -1.
</event>
<event>
 7    1  0.4555057E-015  0.9000782E+02  0.7816164E-02  0.1186339E+00
        -11   -1    0    0    0    0  0.00000000000E+00  0.00000000000E+00  0.45593999997E+02  0.45594000000E+02  0.51100000000E-03 0. -1.
         11   -1    0    0    0    0 -0.00000000000E+00 -0.00000000000E+00 -0.45593999997E+02  0.45594000000E+02  0.51100000000E-03 0.  1.
    9900012    2    1    2    0    0 -0.11737367103E+01  0.12148559959E+00  0.20483746570E-01  0.90007815184E+02  0.90000077544E+02 0.  0.
        -12    1    1    2    0    0  0.11737367103E+01 -0.12148559959E+00 -0.20483746570E-01  0.11801848160E+01  0.00000000000E+00 0.  1.
         11    1    3    3    0    0 -0.85928846152E+01 -0.50819300479E+01  0.12181137351E+02  0.15749405908E+02  0.51100000000E-03 0. -1.
        -11    1    3    3    0    0 -0.70491266517E+01 -0.21911496043E+02 -0.30696683682E+02  0.38367828121E+02  0.51100000000E-03 0.  1.
         12    1    3    3    0    0  0.14468274557E+02  0.27114911690E+02  0.18536030078E+02  0.35890581155E+02  0.00000000000E+00 0. -1.
</event>
<event>
 7    1  0.4555057E-015  0.9000744E+02  0.7816164E-02  0.1186340E+00
        -11   -1    0    0    0    0  0.00000000000E+00  0.00000000000E+00  0.45593999997E+02  0.45594000000E+02  0.51100000000E-03 0.  1.
         11   -1    0    0    0    0 -0.00000000000E+00 -0.00000000000E+00 -0.45593999997E+02  0.45594000000E+02  0.51100000000E-03 0. -1.
    9900012    2    1    2    0    0 -0.98555543557E+00  0.89903161252E-01  0.64367580121E+00  0.90007440543E+02  0.89999697957E+02 0.  0.
        -12    1    1    2    0    0  0.98555543557E+00 -0.89903161252E-01 -0.64367580121E+00  0.11805594572E+01  0.00000000000E+00 0.  1.
         11    1    3    3    0    0  0.27313281654E+02  0.21555590698E+02 -0.12283842765E+02  0.36899209184E+02  0.51100000000E-03 0. -1.
        -11    1    3    3    0    0  0.70122761318E+01 -0.97833489544E+01 -0.33716674422E+01  0.12500162996E+02  0.51100000000E-03 0.  1.
        -12    1    3    3    0    0 -0.35311113222E+02 -0.11682338582E+02  0.16299186008E+02  0.40608068364E+02  0.00000000000E+00 0.  1.
</event>
<event>
 7    1  0.4555057E-015  0.9000780E+02  0.7816164E-02  0.1186339E+00
        -11   -1    0    0    0    0  0.00000000000E+00  0.00000000000E+00  0.45593999997E+02  0.45594000000E+02  0.51100000000E-03 0.  1.
         11   -1    0    0    0    0 -0.00000000000E+00 -0.00000000000E+00 -0.45593999997E+02  0.45594000000E+02  0.51100000000E-03 0. -1.
    9900012    2    1    2    0    0 -0.57225534633E-01  0.29171199444E-01 -0.11784538290E+01  0.90007796989E+02  0.90000059109E+02 0.  0.
        -12    1    1    2    0    0  0.57225534633E-01 -0.29171199444E-01  0.11784538290E+01  0.11802030112E+01  0.00000000000E+00 0.  1.
         11    1    3    3    0    0  0.48736797694E+01 -0.20533345444E+02  0.30397819670E+02  0.37005384346E+02  0.51100000000E-03 0. -1.
        -11    1    3    3    0    0 -0.77468140277E+01  0.97764343715E+00  0.64556796405E+01  0.10131372767E+02  0.51100000000E-03 0.  1.
        -12    1    3    3    0    0  0.28159087236E+01  0.19584873207E+02 -0.38031953139E+02  0.42871039876E+02  0.00000000000E+00 0.  1.
</event>
<event>
 7    1  0.4555057E-015  0.9000772E+02  0.7816164E-02  0.1186339E+00
        -11   -1    0    0    0    0  0.00000000000E+00  0.00000000000E+00  0.45593999997E+02  0.45594000000E+02  0.51100000000E-03 0.  1.
         11   -1    0    0    0    0 -0.00000000000E+00 -0.00000000000E+00 -0.45593999997E+02  0.45594000000E+02  0.51100000000E-03 0. -1.
    9900012    2    1    2    0    0  0.50967742288E+00 -0.34160319231E+00 -0.10082605790E+01  0.90007723248E+02  0.89999984395E+02 0.  0.
        -12    1    1    2    0    0 -0.50967742288E+00  0.34160319231E+00  0.10082605790E+01  0.11802767521E+01  0.00000000000E+00 0.  1.
         11    1    3    3    0    0 -0.35913196156E+01 -0.30203599487E+02 -0.19917320927E+02  0.36357319369E+02  0.51100000000E-03 0. -1.
        -11    1    3    3    0    0  0.18834313187E+01 -0.67663054499E+01 -0.60510793663E+01  0.92706938647E+01  0.51100000000E-03 0.  1.
        -12    1    3    3    0    0  0.22175657198E+01  0.36628301744E+02  0.24960139714E+02  0.44379710014E+02  0.00000000000E+00 0.  1.
</event>
<event>
 7    1  0.4555057E-015  0.9000785E+02  0.7816164E-02  0.1186339E+00
        -11   -1    0    0    0    0  0.00000000000E+00  0.00000000000E+00  0.45593999997E+02  0.45594000000E+02  0.51100000000E-03 0. -1.
         11   -1    0    0    0    0 -0.00000000000E+00 -0.00000000000E+00 -0.45593999997E+02  0.45594000000E+02  0.51100000000E-03 0.  1.
    9900012    2    1    2    0    0  0.11383640431E+01  0.11609925172E+00  0.28878342091E+00  0.90007852723E+02  0.90000115579E+02 0.  0.
        -12    1    1    2    0    0 -0.11383640431E+01 -0.11609925172E+00 -0.28878342091E+00  0.11801472768E+01  0.00000000000E+00 0.  1.
         11    1    3    3    0    0  0.42475685791E+01  0.55897309471E+01  0.19395721130E+01  0.72834655994E+01  0.51100000000E-03 0. -1.
        -11    1    3    3    0    0  0.10897147119E+02  0.58221750751E+00 -0.39994127083E+02  0.41456205735E+02  0.51100000000E-03 0.  1.
         12    1    3    3    0    0 -0.14006351655E+02 -0.60558492029E+01  0.38343338390E+02  0.41268181389E+02  0.00000000000E+00 0. -1.
</event>
<event>
 7    1  0.4555057E-015  0.9000744E+02  0.7816164E-02  0.1186340E+00
        -11   -1    0    0    0    0  0.00000000000E+00  0.00000000000E+00  0.45593999997E+02  0.45594000000E+02  0.51100000000E-03 0.  1.
         11   -1    0    0    0    0 -0.00000000000E+00 -0.00000000000E+00 -0.45593999997E+02  0.45594000000E+02  0.51100000000E-03 0. -1.
    9900012    2    1    2    0    0 -0.37630051464E+00 -0.99946366309E+00  0.50318808070E+00  0.90007437449E+02  0.89999694823E+02 0.  0.
        -12    1    1    2    0    0  0.37630051464E+00  0.99946366309E+00 -0.50318808070E+00  0.11805625505E+01  0.00000000000E+00 0.  1.
         11    1    3    3    0    0 -0.23866383612E+02 -0.26329634599E+02 -0.90534164732E+01  0.36671764001E+02  0.51100000000E-03 0. -1.
        -11    1    3    3    0    0 -0.84253743280E+01 -0.23583920382E+01 -0.30128294629E+01  0.92534365079E+01  0.51100000000E-03 0.  1.
        -12    1    3    3    0    0  0.31915457425E+02  0.27688562974E+02  0.12569434017E+02  0.44082236941E+02  0.00000000000E+00 0.  1.
</event>
<event>
 7    1  0.4555057E-015  0.9000775E+02  0.7816164E-02  0.1186339E+00
        -11   -1    0    0    0    0  0.00000000000E+00  0.00000000000E+00  0.45593999997E+02  0.45594000000E+02  0.51100000000E-03 0. -1.
         11   -1    0    0    0    0 -0.00000000000E+00 -0.00000000000E+00 -0.45593999997E+02  0.45594000000E+02  0.51100000000E-03 0.  1.
    9900012    2    1    2    0    0  0.33941289819E-01  0.11753165609E+01 -0.10236620756E+00  0.90007745845E+02  0.90000007290E+02 0.  0.
        -12    1    1    2    0    0 -0.33941289819E-01 -0.11753165609E+01  0.10236620756E+00  0.11802541548E+01  0.00000000000E+00 0.  1.
         11    1    3    3    0    0  0.30617603589E+02  0.29477483378E+02 -0.22431017161E+01  0.42560441509E+02  0.51100000000E-03 0. -1.
        -11    1    3    3    0    0 -0.86442010161E+01  0.23695315502E+01  0.37181316931E+01  0.97036794321E+01  0.51100000000E-03 0.  1.
        -12    1    3    3    0    0 -0.21939461283E+02 -0.30671698368E+02 -0.15773961845E+01  0.37743624904E+02  0.00000000000E+00 0.  1.
</event>
<event>
 7    1  0.4555057E-015  0.9000827E+02  0.7816164E-02  0.1186338E+00
        -11   -1    0    0    0    0  0.00000000000E+00  0.00000000000E+00  0.45593999997E+02  0.45594000000E+02  0.51100000000E-03 0. -1.
         11   -1    0    0    0    0 -0.00000000000E+00 -0.00000000000E+00 -0.45593999997E+02  0.45594000000E+02  0.51100000000E-03 0.  1.
    9900012    2    1    2    0    0 -0.78519075050E+00 -0.86712780758E+00  0.15270345070E+00  0.90008273975E+02  0.90000542390E+02 0.  0.
        -12    1    1    2    0    0  0.78519075050E+00  0.86712780758E+00 -0.15270345070E+00  0.11797260246E+01  0.00000000000E+00 0.  1.
         11    1    3    3    0    0 -0.45543609946E+01 -0.61033669870E+01  0.28506856378E+01  0.81314021862E+01  0.51100000000E-03 0. -1.
        -11    1    3    3    0    0  0.77226933679E+01 -0.68782780127E+00 -0.41606063088E+02  0.42322306009E+02  0.51100000000E-03 0.  1.
         12    1    3    3    0    0 -0.39535231239E+01  0.59240669807E+01  0.38908080901E+02  0.39554565780E+02  0.00000000000E+00 0. -1.
</event>
<event>
 7    1  0.4555057E-015  0.9000773E+02  0.7816164E-02  0.1186339E+00
        -11   -1    0    0    0    0  0.00000000000E+00  0.00000000000E+00  0.45593999997E+02  0.45594000000E+02  0.51100000000E-03 0.  1.
         11   -1    0    0    0    0 -0.00000000000E+00 -0.00000000000E+00 -0.45593999997E+02  0.45594000000E+02  0.51100000000E-03 0. -1.
    9900012    2    1    2    0    0  0.47099019170E+00  0.10305746074E+01  0.33031760853E+00  0.90007734985E+02  0.89999996287E+02 0.  0.
        -12    1    1    2    0    0 -0.47099019170E+00 -0.10305746074E+01 -0.33031760853E+00  0.11802650146E+01  0.00000000000E+00 0.  1.
         11    1    3    3    0    0 -0.19417263560E+02 -0.28769622351E+02 -0.89361195265E+01  0.35840975528E+02  0.51100000000E-03 0. -1.
        -11    1    3    3    0    0 -0.20940830775E-01 -0.87639353391E+01 -0.26582630701E+01  0.91582402217E+01  0.51100000000E-03 0.  1.
        -12    1    3    3    0    0  0.19909194583E+02  0.38564132297E+02  0.11924700205E+02  0.45008519235E+02  0.00000000000E+00 0.  1.
</event>
<event>
 7    1  0.4555057E-015  0.9000778E+02  0.7816164E-02  0.1186339E+00
        -11   -1    0    0    0    0  0.00000000000E+00  0.00000000000E+00  0.45593999997E+02  0.45594000000E+02  0.51100000000E-03 0.  1.
         11   -1    0    0    0    0 -0.00000000000E+00 -0.00000000000E+00 -0.45593999997E+02  0.45594000000E+02  0.51100000000E-03 0. -1.
    9900012    2    1    2    0    0  0.12028215877E+00  0.10632414115E+01  0.49796348372E+00  0.90007780644E+02  0.90000042549E+02 0.  0.
        -12    1    1    2    0    0 -0.12028215877E+00 -0.10632414115E+01 -0.49796348372E+00  0.11802193558E+01  0.00000000000E+00 0.  1.
         11    1    3    3    0    0 -0.22940810527E+02  0.29462742512E+02 -0.14132054480E+02  0.39925542552E+02  0.51100000000E-03 0. -1.
        -11    1    3    3    0    0 -0.70761778582E+01 -0.17995572673E+01 -0.11897232883E-01  0.73014273430E+01  0.51100000000E-03 0.  1.
        -12    1    3    3    0    0  0.30137270544E+02 -0.26599943833E+02  0.14641915196E+02  0.42780810750E+02  0.00000000000E+00 0.  1.
</event>
<event>
 7    1  0.4555057E-015  0.9000771E+02  0.7816164E-02  0.1186339E+00
        -11   -1    0    0    0    0  0.00000000000E+00  0.00000000000E+00  0.45593999997E+02  0.45594000000E+02  0.51100000000E-03 0.  1.
         11   -1    0    0    0    0 -0.00000000000E+00 -0.00000000000E+00 -0.45593999997E+02  0.45594000000E+02  0.51100000000E-03 0. -1.
    9900012    2    1    2    0    0  0.83919989898E+00 -0.37629248833E-02 -0.82994180213E+00  0.90007714431E+02  0.89999975461E+02 0.  0.
        -12    1    1    2    0    0 -0.83919989898E+00  0.37629248833E-02  0.82994180213E+00  0.11802855692E+01  0.00000000000E+00 0.  1.
         11    1    3    3    0    0 -0.12147442959E+00 -0.14391971065E+01  0.59318529447E+01  0.61051555235E+01  0.51100000000E-03 0. -1.
        -11    1    3    3    0    0 -0.16343811836E+01  0.37014793619E+02  0.17281272254E+02  0.40882863396E+02  0.51100000000E-03 0.  1.
         12    1    3    3    0    0  0.25950555121E+01 -0.35579359437E+02 -0.24043067001E+02  0.43019695511E+02  0.00000000000E+00 0. -1.
</event>
<event>
 7    1  0.4555057E-015  0.9000758E+02  0.7816164E-02  0.1186339E+00
        -11   -1    0    0    0    0  0.00000000000E+00  0.00000000000E+00  0.45593999997E+02  0.45594000000E+02  0.51100000000E-03 0.  1.
         11   -1    0    0    0    0 -0.00000000000E+00 -0.00000000000E+00 -0.45593999997E+02  0.45594000000E+02  0.51100000000E-03 0. -1.
    9900012    2    1    2    0    0 -0.52306430351E+00  0.98840535032E+00 -0.37796038653E+00  0.90007578272E+02  0.89999837505E+02 0.  0.
        -12    1    1    2    0    0  0.52306430351E+00 -0.98840535032E+00  0.37796038653E+00  0.11804217280E+01  0.00000000000E+00 0.  1.
         11    1    3    3    0    0 -0.33043611380E+01  0.26372192868E+02 -0.24401506922E+02  0.36081087837E+02  0.51100000000E-03 0. -1.
        -11    1    3    3    0    0 -0.76805389120E+00  0.95097475819E+01 -0.26047408350E+01  0.98898878118E+01  0.51100000000E-03 0.  1.
        -12    1    3    3    0    0  0.35493507257E+01 -0.34893535099E+02  0.26628287371E+02  0.44036602623E+02  0.00000000000E+00 0.  1.
</event>
<event>
 7    1  0.4555057E-015  0.9000765E+02  0.7816164E-02  0.1186339E+00
        -11   -1    0    0    0    0  0.00000000000E+00  0.00000000000E+00  0.45593999997E+02  0.45594000000E+02  0.51100000000E-03 0. -1.
         11   -1    0    0    0    0 -0.00000000000E+00 -0.00000000000E+00 -0.45593999997E+02  0.45594000000E+02  0.51100000000E-03 0.  1.
    9900012    2    1    2    0    0  0.11012053404E+01  0.41100412162E+00 -0.10793876945E+00  0.90007649049E+02  0.89999909216E+02 0.  0.
        -12    1    1    2    0    0 -0.11012053404E+01 -0.41100412162E+00  0.10793876945E+00  0.11803509511E+01  0.00000000000E+00 0.  1.
         11    1    3    3    0    0  0.15151078835E+01  0.46223720534E+00  0.37974319675E+02  0.38007343635E+02  0.51100000000E-03 0. -1.
        -11    1    3    3    0    0  0.10706864532E+02 -0.17132937500E+01  0.14137810508E+01  0.10934857142E+02  0.51100000000E-03 0.  1.
        -12    1    3    3    0    0 -0.11120767076E+02  0.16620606663E+01 -0.39496039495E+02  0.41065448272E+02  0.00000000000E+00 0.  1.
</event>
<event>
 7    1  0.6277104E-015  0.9000786E+02  0.7816164E-02  0.1186339E+00
        -11   -1    0    0    0    0  0.00000000000E+00  0.00000000000E+00  0.45593999997E+02  0.45594000000E+02  0.51100000000E-03 0. -1.
         11   -1    0    0    0    0 -0.00000000000E+00 -0.00000000000E+00 -0.45593999997E+02  0.45594000000E+02  0.51100000000E-03 0.  1.
    9900012    2    1    2    0    0 -0.38533838334E+00  0.42832813714E+00  0.10299436955E+01  0.90007858196E+02  0.90000121124E+02 0.  0.
        -12    1    1    2    0    0  0.38533838334E+00 -0.42832813714E+00 -0.10299436955E+01  0.11801418045E+01  0.00000000000E+00 0.  1.
         11    1    3    3    0    0  0.40842525032E+01  0.58810422524E+01 -0.54711416109E+01  0.90111690292E+01  0.51100000000E-03 0. -1.
        -11    1    3    3    0    0 -0.37093125403E+02  0.42995439861E+01 -0.15528682983E+02  0.40441637283E+02  0.51100000000E-03 0.  1.
         12    1    3    3    0    0  0.32623534516E+02 -0.97522581014E+01  0.22029768289E+02  0.40555051884E+02  0.00000000000E+00 0. -1.
</event>
<event>
 7    1  0.4555057E-015  0.9000775E+02  0.7816164E-02  0.1186339E+00
        -11   -1    0    0    0    0  0.00000000000E+00  0.00000000000E+00  0.45593999997E+02  0.45594000000E+02  0.51100000000E-03 0.  1.
         11   -1    0    0    0    0 -0.00000000000E+00 -0.00000000000E+00 -0.45593999997E+02  0.45594000000E+02  0.51100000000E-03 0. -1.
    9900012    2    1    2    0    0 -0.20862039307E+00  0.11442153244E+01  0.20058015570E+00  0.90007752748E+02  0.90000014284E+02 0.  0.
        -12    1    1    2    0    0  0.20862039307E+00 -0.11442153244E+01 -0.20058015570E+00  0.11802472520E+01  0.00000000000E+00 0.  1.
         11    1    3    3    0    0  0.19281989071E+02 -0.32871715590E+02  0.11788035280E+02  0.39891133907E+02  0.51100000000E-03 0. -1.
        -11    1    3    3    0    0 -0.63248769255E+01  0.56481419136E+00  0.71623578674E+01  0.95719618509E+01  0.51100000000E-03 0.  1.
        -12    1    3    3    0    0 -0.13165732538E+02  0.33451116723E+02 -0.18749812991E+02  0.40544656991E+02  0.00000000000E+00 0.  1.
</event>
<event>
 7    1  0.4555057E-015  0.9000771E+02  0.7816164E-02  0.1186339E+00
        -11   -1    0    0    0    0  0.00000000000E+00  0.00000000000E+00  0.45593999997E+02  0.45594000000E+02  0.51100000000E-03 0. -1.
         11   -1    0    0    0    0 -0.00000000000E+00 -0.00000000000E+00 -0.45593999997E+02  0.45594000000E+02  0.51100000000E-03 0.  1.
    9900012    2    1    2    0    0  0.64986256432E+00 -0.80678800769E+00  0.56555062602E+00  0.90007713699E+02  0.89999974720E+02 0.  0.
        -12    1    1    2    0    0 -0.64986256432E+00  0.80678800769E+00 -0.56555062602E+00  0.11802863010E+01  0.00000000000E+00 0.  1.
         11    1    3    3    0    0  0.28967514021E+01  0.16426664413E+01 -0.12154434789E+02  0.12602373071E+02  0.51100000000E-03 0. -1.
        -11    1    3    3    0    0 -0.23271035409E+02  0.27003277417E+02 -0.67994503066E+01  0.36289814067E+02  0.51100000000E-03 0.  1.
         12    1    3    3    0    0  0.21024146572E+02 -0.29452731866E+02  0.19519435722E+02  0.41115526560E+02  0.00000000000E+00 0. -1.
</event>
<event>
 7    1  0.4555057E-015  0.9000778E+02  0.7816164E-02  0.1186339E+00
        -11   -1    0    0    0    0  0.00000000000E+00  0.00000000000E+00  0.45593999997E+02  0.45594000000E+02  0.51100000000E-03 0.  1.
         11   -1    0    0    0    0 -0.00000000000E+00 -0.00000000000E+00 -0.45593999997E+02  0.45594000000E+02  0.51100000000E-03 0. -1.
    9900012    2    1    2    0    0 -0.10831996055E+01  0.17984346611E-01 -0.46826489420E+00  0.90007781023E+02  0.90000042933E+02 0.  0.
        -12    1    1    2    0    0  0.10831996055E+01 -0.17984346611E-01  0.46826489420E+00  0.11802189769E+01  0.00000000000E+00 0.  1.
         11    1    3    3    0    0 -0.26416939704E+02 -0.10561643538E+02 -0.31843686657E+02  0.42701562006E+02  0.51100000000E-03 0. -1.
        -11    1    3    3    0    0  0.85352583325E+01  0.43853717641E+01 -0.16528869717E+01  0.97372560773E+01  0.51100000000E-03 0.  1.
        -12    1    3    3    0    0  0.16798481766E+02  0.61942561204E+01  0.33028308735E+02  0.37568962940E+02  0.00000000000E+00 0.  1.
</event>
<event>
 7    1  0.4555057E-015  0.9000777E+02  0.7816164E-02  0.1186339E+00
        -11   -1    0    0    0    0  0.00000000000E+00  0.00000000000E+00  0.45593999997E+02  0.45594000000E+02  0.51100000000E-03 0. -1.
         11   -1    0    0    0    0 -0.00000000000E+00 -0.00000000000E+00 -0.45593999997E+02  0.45594000000E+02  0.51100000000E-03 0.  1.
    9900012    2    1    2    0    0  0.94267957572E+00 -0.13475337926E-01  0.71001077771E+00  0.90007770500E+02  0.90000032271E+02 0.  0.
        -12    1    1    2    0    0 -0.94267957572E+00  0.13475337926E-01 -0.71001077771E+00  0.11802294996E+01  0.00000000000E+00 0.  1.
         11    1    3    3    0    0 -0.88459625242E+01 -0.10286376487E+01  0.96238925796E+00  0.89574182517E+01  0.51100000000E-03 0. -1.
        -11    1    3    3    0    0 -0.53958871656E+01 -0.35101547685E+02 -0.15837734252E+02  0.38885319527E+02  0.51100000000E-03 0.  1.
         12    1    3    3    0    0  0.15184529266E+02  0.36116709996E+02  0.15585355772E+02  0.42165032722E+02  0.00000000000E+00 0. -1.
</event>
<event>
 7    1  0.4555057E-015  0.9000776E+02  0.7816164E-02  0.1186339E+00
        -11   -1    0    0    0    0  0.00000000000E+00  0.00000000000E+00  0.45593999997E+02  0.45594000000E+02  0.51100000000E-03 0.  1.
         11   -1    0    0    0    0 -0.00000000000E+00 -0.00000000000E+00 -0.45593999997E+02  0.45594000000E+02  0.51100000000E-03 0. -1.
    9900012    2    1    2    0    0 -0.77474423573E+00  0.88974679083E+00 -0.32976569400E-01  0.90007760432E+02  0.90000022070E+02 0.  0.
        -12    1    1    2    0    0  0.77474423573E+00 -0.88974679083E+00  0.32976569400E-01  0.11802395675E+01  0.00000000000E+00 0.  1.
         11    1    3    3    0    0 -0.49202611535E+01  0.24397282968E+01 -0.77840027247E+01  0.95263814043E+01  0.51100000000E-03 0. -1.
        -11    1    3    3    0    0 -0.33948548828E+02 -0.92871397491E+00  0.21249932250E+02  0.40061528903E+02  0.51100000000E-03 0.  1.
         12    1    3    3    0    0  0.38094065746E+02 -0.62126753107E+00 -0.13498906094E+02  0.40419850125E+02  0.00000000000E+00 0. -1.
</event>
<event>
 7    1  0.4555057E-015  0.9000809E+02  0.7816164E-02  0.1186338E+00
        -11   -1    0    0    0    0  0.00000000000E+00  0.00000000000E+00  0.45593999997E+02  0.45594000000E+02  0.51100000000E-03 0.  1.
         11   -1    0    0    0    0 -0.00000000000E+00 -0.00000000000E+00 -0.45593999997E+02  0.45594000000E+02  0.51100000000E-03 0. -1.
    9900012    2    1    2    0    0  0.63615572504E+00  0.91812140760E-02 -0.99367994973E+00  0.90008093968E+02  0.90000360008E+02 0.  0.
        -12    1    1    2    0    0 -0.63615572504E+00 -0.91812140760E-02  0.99367994973E+00  0.11799060317E+01  0.00000000000E+00 0.  1.
         11    1    3    3    0    0 -0.75960117666E+01 -0.47578726533E+01 -0.68131260969E+01  0.11258571598E+02  0.51100000000E-03 0. -1.
        -11    1    3    3    0    0  0.26652026263E+02 -0.16351196091E+02  0.28798928635E+02  0.42509650767E+02  0.51100000000E-03 0.  1.
         12    1    3    3    0    0 -0.18419858771E+02  0.21118249959E+02 -0.22979482488E+02  0.36239871604E+02  0.00000000000E+00 0. -1.
</event>
<event>
 7    1  0.4555057E-015  0.9000775E+02  0.7816164E-02  0.1186339E+00
        -11   -1    0    0    0    0  0.00000000000E+00  0.00000000000E+00  0.45593999997E+02  0.45594000000E+02  0.51100000000E-03 0. -1.
         11   -1    0    0    0    0 -0.00000000000E+00 -0.00000000000E+00 -0.45593999997E+02  0.45594000000E+02  0.51100000000E-03 0.  1.
    9900012    2    1    2    0    0  0.46070810394E+00  0.10445151459E+01 -0.29955979987E+00  0.90007745824E+02  0.90000007269E+02 0.  0.
        -12    1    1    2    0    0 -0.46070810394E+00 -0.10445151459E+01  0.29955979987E+00  0.11802541763E+01  0.00000000000E+00 0.  1.
         11    1    3    3    0    0 -0.11914123263E+02  0.23800684357E+02  0.30968193080E+02  0.40834395941E+02  0.51100000000E-03 0. -1.
        -11    1    3    3    0    0  0.69627450865E+01 -0.27304610501E+00  0.31991061441E+01  0.76673759329E+01  0.51100000000E-03 0.  1.
        -12    1    3    3    0    0  0.54120862809E+01 -0.22483123106E+02 -0.34466859024E+02  0.41505973949E+02  0.00000000000E+00 0.  1.
</event>
<event>
 7    1  0.4555057E-015  0.9000775E+02  0.7816164E-02  0.1186339E+00
        -11   -1    0    0    0    0  0.00000000000E+00  0.00000000000E+00  0.45593999997E+02  0.45594000000E+02  0.51100000000E-03 0.  1.
         11   -1    0    0    0    0 -0.00000000000E+00 -0.00000000000E+00 -0.45593999997E+02  0.45594000000E+02  0.51100000000E-03 0. -1.
    9900012    2    1    2    0    0  0.25888919244E+00 -0.11501982973E+01 -0.54903100450E-01  0.90007748295E+02  0.90000009772E+02 0.  0.
        -12    1    1    2    0    0 -0.25888919244E+00  0.11501982973E+01  0.54903100450E-01  0.11802517051E+01  0.00000000000E+00 0.  1.
         11    1    3    3    0    0  0.33164802500E+02 -0.37894286286E+01 -0.22379756261E+02  0.40188523047E+02  0.51100000000E-03 0. -1.
        -11    1    3    3    0    0  0.45090551675E+01  0.46193084202E+01  0.64569624817E+01  0.91302767502E+01  0.51100000000E-03 0.  1.
        -12    1    3    3    0    0 -0.37414968475E+02 -0.19800780889E+01  0.15867890679E+02  0.40688948497E+02  0.00000000000E+00 0.  1.
</event>
<event>
 7    1  0.4555057E-015  0.9000765E+02  0.7816164E-02  0.1186339E+00
        -11   -1    0    0    0    0  0.00000000000E+00  0.00000000000E+00  0.45593999997E+02  0.45594000000E+02  0.51100000000E-03 0. -1.
         11   -1    0    0    0    0 -0.00000000000E+00 -0.00000000000E+00 -0.45593999997E+02  0.45594000000E+02  0.51100000000E-03 0.  1.
    9900012    2    1    2    0    0  0.80667788501E+00  0.41425102334E+00  0.75557216535E+00  0.90007651569E+02  0.89999911770E+02 0.  0.
        -12    1    1    2    0    0 -0.80667788501E+00 -0.41425102334E+00 -0.75557216535E+00  0.11803484306E+01  0.00000000000E+00 0.  1.
         11    1    3    3    0    0  0.57799513084E+01  0.39467157786E+01 -0.75959728231E+01  0.10328756264E+02  0.51100000000E-03 0. -1.
        -11    1    3    3    0    0  0.31885412643E+02  0.50016631632E+01  0.22437254361E+02  0.39308097860E+02  0.51100000000E-03 0.  1.
         12    1    3    3    0    0 -0.36858686067E+02 -0.85341279184E+01 -0.14085709372E+02  0.40370797446E+02  0.00000000000E+00 0. -1.
</event>
<event>
 7    1  0.4555057E-015  0.9000782E+02  0.7816164E-02  0.1186339E+00
        -11   -1    0    0    0    0  0.00000000000E+00  0.00000000000E+00  0.45593999997E+02  0.45594000000E+02  0.51100000000E-03 0. -1.
         11   -1    0    0    0    0 -0.00000000000E+00 -0.00000000000E+00 -0.45593999997E+02  0.45594000000E+02  0.51100000000E-03 0.  1.
    9900012    2    1    2    0    0 -0.11480301151E+01 -0.26665938701E+00 -0.61161927379E-01  0.90007821558E+02  0.90000084002E+02 0.  0.
        -12    1    1    2    0    0  0.11480301151E+01  0.26665938701E+00  0.61161927379E-01  0.11801784421E+01  0.00000000000E+00 0.  1.
         11    1    3    3    0    0 -0.17491241925E+02 -0.16518464568E+02  0.63999853711E-01  0.24058414578E+02  0.51100000000E-03 0. -1.
        -11    1    3    3    0    0 -0.10293761940E+02  0.32531819534E+02  0.44036925285E+01  0.34404553845E+02  0.51100000000E-03 0.  1.
         12    1    3    3    0    0  0.26636973751E+02 -0.16280014354E+02 -0.45288543096E+01  0.31544853135E+02  0.00000000000E+00 0. -1.
</event>
<event>
 7    1  0.4555057E-015  0.9000772E+02  0.7816164E-02  0.1186339E+00
        -11   -1    0    0    0    0  0.00000000000E+00  0.00000000000E+00  0.45593999997E+02  0.45594000000E+02  0.51100000000E-03 0. -1.
         11   -1    0    0    0    0 -0.00000000000E+00 -0.00000000000E+00 -0.45593999997E+02  0.45594000000E+02  0.51100000000E-03 0.  1.
    9900012    2    1    2    0    0 -0.45958105903E+00 -0.39833064343E+00  0.10115242724E+01  0.90007718930E+02  0.89999980020E+02 0.  0.
        -12    1    1    2    0    0  0.45958105903E+00  0.39833064343E+00 -0.10115242724E+01  0.11802810703E+01  0.00000000000E+00 0.  1.
         11    1    3    3    0    0 -0.20442291900E+02 -0.33449446806E+02 -0.14376607003E+02  0.41754516150E+02  0.51100000000E-03 0. -1.
        -11    1    3    3    0    0  0.39633927763E+01  0.47485437809E+01 -0.65617090047E+01  0.90173818629E+01  0.51100000000E-03 0.  1.
        -12    1    3    3    0    0  0.16019318065E+02  0.28302572382E+02  0.21949840280E+02  0.39235820917E+02  0.00000000000E+00 0.  1.
</event>
<event>
 7    1  0.4555057E-015  0.9000767E+02  0.7816164E-02  0.1186339E+00
        -11   -1    0    0    0    0  0.00000000000E+00  0.00000000000E+00  0.45593999997E+02  0.45594000000E+02  0.51100000000E-03 0.  1.
         11   -1    0    0    0    0 -0.00000000000E+00 -0.00000000000E+00 -0.45593999997E+02  0.45594000000E+02  0.51100000000E-03 0. -1.
    9900012    2    1    2    0    0  0.53623667739E+00  0.71428157246E+00 -0.77163793909E+00  0.90007672483E+02  0.89999932959E+02 0.  0.
        -12    1    1    2    0    0 -0.53623667739E+00 -0.71428157246E+00  0.77163793909E+00  0.11803275173E+01  0.00000000000E+00 0.  1.
         11    1    3    3    0    0 -0.87398543200E+01  0.26655782586E+02  0.63833932215E+01  0.28769141595E+02  0.51100000000E-03 0. -1.
        -11    1    3    3    0    0  0.83778596173E+00  0.16890422818E+02  0.49330175612E+00  0.16918380986E+02  0.51100000000E-03 0.  1.
        -12    1    3    3    0    0  0.84383050357E+01 -0.42831923832E+02 -0.76483329167E+01  0.44320149903E+02  0.00000000000E+00 0.  1.
</event>
<event>
 7    1  0.4555057E-015  0.9000780E+02  0.7816164E-02  0.1186339E+00
        -11   -1    0    0    0    0  0.00000000000E+00  0.00000000000E+00  0.45593999997E+02  0.45594000000E+02  0.51100000000E-03 0.  1.
         11   -1    0    0    0    0 -0.00000000000E+00 -0.00000000000E+00 -0.45593999997E+02  0.45594000000E+02  0.51100000000E-03 0. -1.
    9900012    2    1    2    0    0 -0.24001380653E+00 -0.55847166561E+00 -0.10116181541E+01  0.90007801492E+02  0.90000063672E+02 0.  0.
        -12    1    1    2    0    0  0.24001380653E+00  0.55847166561E+00  0.10116181541E+01  0.11801985080E+01  0.00000000000E+00 0.  1.
         11    1    3    3    0    0  0.30390966654E+02  0.10136861756E+01 -0.19045203240E+02  0.35879773976E+02  0.51100000000E-03 0. -1.
        -11    1    3    3    0    0  0.70409769831E+01 -0.21733479897E+00 -0.61416619081E+01  0.93457264322E+01  0.51100000000E-03 0.  1.
        -12    1    3    3    0    0 -0.37671957444E+02 -0.13548230423E+01  0.24175246994E+02  0.44782301084E+02  0.00000000000E+00 0.  1.
</event>
<event>
 7    1  0.4555057E-015  0.9000777E+02  0.7816164E-02  0.1186339E+00
        -11   -1    0    0    0    0  0.00000000000E+00  0.00000000000E+00  0.45593999997E+02  0.45594000000E+02  0.51100000000E-03 0. -1.
         11   -1    0    0    0    0 -0.00000000000E+00 -0.00000000000E+00 -0.45593999997E+02  0.45594000000E+02  0.51100000000E-03 0.  1.
    9900012    2    1    2    0    0  0.10358348320E+01  0.11221746890E+00  0.55443137064E+00  0.90007770910E+02  0.90000032686E+02 0.  0.
        -12    1    1    2    0    0 -0.10358348320E+01 -0.11221746890E+00 -0.55443137064E+00  0.11802290897E+01  0.00000000000E+00 0.  1.
         11    1    3    3    0    0 -0.34062239500E+02  0.87099873832E+01  0.14765430692E+02  0.38132898969E+02  0.51100000000E-03 0. -1.
        -11    1    3    3    0    0 -0.60160474161E+01  0.29694067063E+01  0.43531212940E+00  0.67230721854E+01  0.51100000000E-03 0.  1.
        -12    1    3    3    0    0  0.41114121748E+02 -0.11567176621E+02 -0.14646311451E+02  0.45151799756E+02  0.00000000000E+00 0.  1.
</event>
<event>
 7    1  0.4555057E-015  0.9000775E+02  0.7816164E-02  0.1186339E+00
        -11   -1    0    0    0    0  0.00000000000E+00  0.00000000000E+00  0.45593999997E+02  0.45594000000E+02  0.51100000000E-03 0.  1.
         11   -1    0    0    0    0 -0.00000000000E+00 -0.00000000000E+00 -0.45593999997E+02  0.45594000000E+02  0.51100000000E-03 0. -1.
    9900012    2    1    2    0    0 -0.11452456806E+01 -0.15318583933E+00 -0.24072110035E+00  0.90007745698E+02  0.90000007141E+02 0.  0.
        -12    1    1    2    0    0  0.11452456806E+01  0.15318583933E+00  0.24072110035E+00  0.11802543025E+01  0.00000000000E+00 0.  1.
         11    1    3    3    0    0  0.94021762189E+01  0.22192454819E+01  0.14178717401E+01  0.97640323992E+01  0.51100000000E-03 0. -1.
        -11    1    3    3    0    0 -0.13313050226E+02  0.33197956926E+02 -0.19081102452E+02  0.40539241746E+02  0.51100000000E-03 0.  1.
         12    1    3    3    0    0  0.27656283260E+01 -0.35570388247E+02  0.17422509611E+02  0.39704471552E+02  0.00000000000E+00 0. -1.
</event>
<event>
 7    1  0.4555057E-015  0.9000773E+02  0.7816164E-02  0.1186339E+00
        -11   -1    0    0    0    0  0.00000000000E+00  0.00000000000E+00  0.45593999997E+02  0.45594000000E+02  0.51100000000E-03 0. -1.
         11   -1    0    0    0    0 -0.00000000000E+00 -0.00000000000E+00 -0.45593999997E+02  0.45594000000E+02  0.51100000000E-03 0.  1.
    9900012    2    1    2    0    0 -0.10342752858E+01 -0.14560785375E+00  0.54963695909E+00  0.90007734013E+02  0.89999995302E+02 0.  0.
        -12    1    1    2    0    0  0.10342752858E+01  0.14560785375E+00 -0.54963695909E+00  0.11802659872E+01  0.00000000000E+00 0.  1.
         11    1    3    3    0    0  0.36319985481E+02  0.21560232118E+02  0.38937988976E+00  0.42239040843E+02  0.51100000000E-03 0. -1.
        -11    1    3    3    0    0 -0.22726298800E+00 -0.82454938334E+01 -0.59178999672E+00  0.82698266417E+01  0.51100000000E-03 0.  1.
        -12    1    3    3    0    0 -0.37126997779E+02 -0.13460346138E+02  0.75204706604E+00  0.39498866529E+02  0.00000000000E+00 0.  1.
</event>
<event>
 7    1  0.4555057E-015  0.9000781E+02  0.7816164E-02  0.1186339E+00
        -11   -1    0    0    0    0  0.00000000000E+00  0.00000000000E+00  0.45593999997E+02  0.45594000000E+02  0.51100000000E-03 0.  1.
         11   -1    0    0    0    0 -0.00000000000E+00 -0.00000000000E+00 -0.45593999997E+02  0.45594000000E+02  0.51100000000E-03 0. -1.
    9900012    2    1    2    0    0  0.98560119742E+00 -0.64916076693E+00  0.58387402889E-02  0.90007807849E+02  0.90000070113E+02 0.  0.
        -12    1    1    2    0    0 -0.98560119742E+00  0.64916076693E+00 -0.58387402889E-02  0.11801921507E+01  0.00000000000E+00 0.  1.
         11    1    3    3    0    0  0.13609380140E+02 -0.21144413260E+02 -0.45299378928E+01  0.25550377247E+02  0.51100000000E-03 0. -1.
        -11    1    3    3    0    0  0.17127438144E+02 -0.90731628820E+01  0.10574905832E+02  0.22079403427E+02  0.51100000000E-03 0.  1.
        -12    1    3    3    0    0 -0.29751217086E+02  0.29568415375E+02 -0.60391291991E+01  0.42378027176E+02  0.00000000000E+00 0.  1.
</event>
<event>
 7    1  0.4555057E-015  0.9000765E+02  0.7816164E-02  0.1186339E+00
        -11   -1    0    0    0    0  0.00000000000E+00  0.00000000000E+00  0.45593999997E+02  0.45594000000E+02  0.51100000000E-03 0.  1.
         11   -1    0    0    0    0 -0.00000000000E+00 -0.00000000000E+00 -0.45593999997E+02  0.45594000000E+02  0.51100000000E-03 0. -1.
    9900012    2    1    2    0    0 -0.18340142632E+00 -0.11293412867E+01 -0.29012447982E+00  0.90007652577E+02  0.89999912791E+02 0.  0.
        -12    1    1    2    0    0  0.18340142632E+00  0.11293412867E+01  0.29012447982E+00  0.11803474230E+01  0.00000000000E+00 0.  1.
         11    1    3    3    0    0 -0.23346835219E+02  0.19504973635E+02 -0.11281612928E+02  0.32446779528E+02  0.51100000000E-03 0. -1.
        -11    1    3    3    0    0 -0.10114624558E+02  0.49953541480E+01 -0.53564150006E+01  0.12488009247E+02  0.51100000000E-03 0.  1.
        -12    1    3    3    0    0  0.33278058351E+02 -0.25629669070E+02  0.16347903448E+02  0.45072863803E+02  0.00000000000E+00 0.  1.
</event>
<event>
 7    1  0.4555057E-015  0.9000779E+02  0.7816164E-02  0.1186339E+00
        -11   -1    0    0    0    0  0.00000000000E+00  0.00000000000E+00  0.45593999997E+02  0.45594000000E+02  0.51100000000E-03 0. -1.
         11   -1    0    0    0    0 -0.00000000000E+00 -0.00000000000E+00 -0.45593999997E+02  0.45594000000E+02  0.51100000000E-03 0.  1.
    9900012    2    1    2    0    0 -0.46479799293E+00 -0.10229200663E+01  0.36124553842E+00  0.90007787741E+02  0.90000049740E+02 0.  0.
        -12    1    1    2    0    0  0.46479799293E+00  0.10229200663E+01 -0.36124553842E+00  0.11802122585E+01  0.00000000000E+00 0.  1.
         11    1    3    3    0    0 -0.27160224065E+01  0.77390579922E+01 -0.23403195469E+01  0.85291788680E+01  0.51100000000E-03 0. -1.
        -11    1    3    3    0    0 -0.23604844466E+02  0.95244022305E+01 -0.27671904096E+02  0.37598366941E+02  0.51100000000E-03 0.  1.
         12    1    3    3    0    0  0.25856068879E+02 -0.18286380289E+02  0.30373469181E+02  0.43880241932E+02  0.00000000000E+00 0. -1.
</event>
<event>
 7    1  0.4555057E-015  0.9000778E+02  0.7816164E-02  0.1186339E+00
        -11   -1    0    0    0    0  0.00000000000E+00  0.00000000000E+00  0.45593999997E+02  0.45594000000E+02  0.51100000000E-03 0. -1.
         11   -1    0    0    0    0 -0.00000000000E+00 -0.00000000000E+00 -0.45593999997E+02  0.45594000000E+02  0.51100000000E-03 0.  1.
    9900012    2    1    2    0    0 -0.10847069493E+01  0.21212980552E+00  0.41391826028E+00  0.90007781145E+02  0.90000043056E+02 0.  0.
        -12    1    1    2    0    0  0.10847069493E+01 -0.21212980552E+00 -0.41391826028E+00  0.11802188553E+01  0.00000000000E+00 0.  1.
         11    1    3    3    0    0 -0.31687857431E+02  0.25236710351E+02  0.26232372253E+01  0.40594251215E+02  0.51100000000E-03 0. -1.
        -11    1    3    3    0    0  0.46097693240E+01  0.49593914779E+01  0.58181700055E+01  0.89272974369E+01  0.51100000000E-03 0.  1.
        -12    1    3    3    0    0  0.25993381158E+02 -0.29983972023E+02 -0.80274889705E+01  0.40486232493E+02  0.00000000000E+00 0.  1.
</event>
<event>
 7    1  0.4555057E-015  0.9000779E+02  0.7816164E-02  0.1186339E+00
        -11   -1    0    0    0    0  0.00000000000E+00  0.00000000000E+00  0.45593999997E+02  0.45594000000E+02  0.51100000000E-03 0.  1.
         11   -1    0    0    0    0 -0.00000000000E+00 -0.00000000000E+00 -0.45593999997E+02  0.45594000000E+02  0.51100000000E-03 0. -1.
    9900012    2    1    2    0    0 -0.57042963984E+00  0.78673012999E+00 -0.66975543572E+00  0.90007785352E+02  0.90000047319E+02 0.  0.
        -12    1    1    2    0    0  0.57042963984E+00 -0.78673012999E+00  0.66975543572E+00  0.11802146479E+01  0.00000000000E+00 0.  1.
         11    1    3    3    0    0 -0.36916065588E+02 -0.17532751842E+02  0.60121601473E+00  0.40872420367E+02  0.51100000000E-03 0. -1.
        -11    1    3    3    0    0 -0.16192242816E+01  0.76889538706E+01 -0.53406667869E+01  0.95007694892E+01  0.51100000000E-03 0.  1.
        -12    1    3    3    0    0  0.37964860230E+02  0.10630528101E+02  0.40696953364E+01  0.39634595496E+02  0.00000000000E+00 0.  1.
</event>
<event>
 7    1  0.4555057E-015  0.9000767E+02  0.7816164E-02  0.1186339E+00
        -11   -1    0    0    0    0  0.00000000000E+00  0.00000000000E+00  0.45593999997E+02  0.45594000000E+02  0.51100000000E-03 0. -1.
         11   -1    0    0    0    0 -0.00000000000E+00 -0.00000000000E+00 -0.45593999997E+02  0.45594000000E+02  0.51100000000E-03 0.  1.
    9900012    2    1    2    0    0  0.11216347176E+01  0.21459120255E+00  0.29845300567E+00  0.90007666140E+02  0.89999926533E+02 0.  0.
        -12    1    1    2    0    0 -0.11216347176E+01 -0.21459120255E+00 -0.29845300567E+00  0.11803338597E+01  0.00000000000E+00 0.  1.
         11    1    3    3    0    0 -0.26204123020E+02  0.27926093937E+02 -0.12607755407E+02  0.40317220669E+02  0.51100000000E-03 0. -1.
        -11    1    3    3    0    0  0.50210643317E-01  0.45911954764E+01  0.48000662696E+01  0.66424568847E+01  0.51100000000E-03 0.  1.
        -12    1    3    3    0    0  0.27275547094E+02 -0.32302698210E+02  0.81061421427E+01  0.43047988587E+02  0.00000000000E+00 0.  1.
</event>
<event>
 7    1  0.4555057E-015  0.9000782E+02  0.7816164E-02  0.1186339E+00
        -11   -1    0    0    0    0  0.00000000000E+00  0.00000000000E+00  0.45593999997E+02  0.45594000000E+02  0.51100000000E-03 0. -1.
         11   -1    0    0    0    0 -0.00000000000E+00 -0.00000000000E+00 -0.45593999997E+02  0.45594000000E+02  0.51100000000E-03 0.  1.
    9900012    2    1    2    0    0  0.22251567597E+00 -0.40764522810E+00  0.10849646807E+01  0.90007815177E+02  0.90000077537E+02 0.  0.
        -12    1    1    2    0    0 -0.22251567597E+00  0.40764522810E+00 -0.10849646807E+01  0.11801848230E+01  0.00000000000E+00 0.  1.
         11    1    3    3    0    0 -0.17265892854E+01  0.11687277352E+02 -0.17832673953E+01  0.11947954023E+02  0.51100000000E-03 0. -1.
        -11    1    3    3    0    0 -0.26926583371E+01  0.28992734450E+02 -0.15303329319E+02  0.32894086830E+02  0.51100000000E-03 0.  1.
         12    1    3    3    0    0  0.46417632984E+01 -0.41087657031E+02  0.18171561395E+02  0.45165774325E+02  0.00000000000E+00 0. -1.
</event>
<event>
 7    1  0.4555057E-015  0.9000746E+02  0.7816164E-02  0.1186340E+00
        -11   -1    0    0    0    0  0.00000000000E+00  0.00000000000E+00  0.45593999997E+02  0.45594000000E+02  0.51100000000E-03 0.  1.
         11   -1    0    0    0    0 -0.00000000000E+00 -0.00000000000E+00 -0.45593999997E+02  0.45594000000E+02  0.51100000000E-03 0. -1.
    9900012    2    1    2    0    0  0.85879273497E-01 -0.11182162632E+01  0.36864598840E+00  0.90007456597E+02  0.89999714224E+02 0.  0.
        -12    1    1    2    0    0 -0.85879273497E-01  0.11182162632E+01 -0.36864598840E+00  0.11805434027E+01  0.00000000000E+00 0.  1.
         11    1    3    3    0    0 -0.88912488878E+00  0.11576075909E+02  0.96538505831E+00  0.11650237984E+02  0.51100000000E-03 0. -1.
        -11    1    3    3    0    0  0.29123992194E+02  0.16693196717E+02  0.12171371225E+02  0.35707310396E+02  0.51100000000E-03 0.  1.
         12    1    3    3    0    0 -0.28148988032E+02 -0.29387488889E+02 -0.12768110295E+02  0.42649908217E+02  0.00000000000E+00 0. -1.
</event>
<event>
 7    1  0.4555057E-015  0.9000769E+02  0.7816164E-02  0.1186339E+00
        -11   -1    0    0    0    0  0.00000000000E+00  0.00000000000E+00  0.45593999997E+02  0.45594000000E+02  0.51100000000E-03 0. -1.
         11   -1    0    0    0    0 -0.00000000000E+00 -0.00000000000E+00 -0.45593999997E+02  0.45594000000E+02  0.51100000000E-03 0.  1.
    9900012    2    1    2    0    0 -0.73431946272E+00  0.91474232326E+00  0.13093171853E+00  0.90007694232E+02  0.89999954996E+02 0.  0.
        -12    1    1    2    0    0  0.73431946272E+00 -0.91474232326E+00 -0.13093171853E+00  0.11803057681E+01  0.00000000000E+00 0.  1.
         11    1    3    3    0    0 -0.12570450983E+02  0.31667561431E+02  0.13392580212E+02  0.36608904516E+02  0.51100000000E-03 0. -1.
        -11    1    3    3    0    0  0.34640634067E+00  0.94813920448E+01  0.56088855309E-01  0.94878837830E+01  0.51100000000E-03 0.  1.
        -12    1    3    3    0    0  0.11489725179E+02 -0.40234211152E+02 -0.13317737349E+02  0.43910905933E+02  0.00000000000E+00 0.  1.
</event>
<event>
 7    1  0.4555057E-015  0.9000783E+02  0.7816164E-02  0.1186339E+00
        -11   -1    0    0    0    0  0.00000000000E+00  0.00000000000E+00  0.45593999997E+02  0.45594000000E+02  0.51100000000E-03 0.  1.
         11   -1    0    0    0    0 -0.00000000000E+00 -0.00000000000E+00 -0.45593999997E+02  0.45594000000E+02  0.51100000000E-03 0. -1.
    9900012    2    1    2    0    0  0.48946235490E+00 -0.59070696351E+00  0.89682025248E+00  0.90007832775E+02  0.90000095368E+02 0.  0.
        -12    1    1    2    0    0 -0.48946235490E+00  0.59070696351E+00 -0.89682025248E+00  0.11801672250E+01  0.00000000000E+00 0.  1.
         11    1    3    3    0    0  0.16860635076E+02  0.48979720200E+01 -0.25455508755E+02  0.30923358021E+02  0.51100000000E-03 0.  1.
        -11    1    3    3    0    0  0.11995724596E+02  0.12385671827E+02  0.14181688027E+01  0.17300678547E+02  0.51100000000E-03 0. -1.
        -12    1    3    3    0    0 -0.28366897317E+02 -0.17874350810E+02  0.24934160205E+02  0.41783796206E+02  0.00000000000E+00 0.  1.
</event>
<event>
 7    1  0.4555057E-015  0.9000776E+02  0.7816164E-02  0.1186339E+00
        -11   -1    0    0    0    0  0.00000000000E+00  0.00000000000E+00  0.45593999997E+02  0.45594000000E+02  0.51100000000E-03 0. -1.
         11   -1    0    0    0    0 -0.00000000000E+00 -0.00000000000E+00 -0.45593999997E+02  0.45594000000E+02  0.51100000000E-03 0.  1.
    9900012    2    1    2    0    0 -0.22836209128E+00  0.10833823832E+01 -0.40878771858E+00  0.90007756791E+02  0.90000018381E+02 0.  0.
        -12    1    1    2    0    0  0.22836209128E+00 -0.10833823832E+01  0.40878771858E+00  0.11802432087E+01  0.00000000000E+00 0.  1.
         11    1    3    3    0    0  0.26936636742E+02  0.23538236157E+02  0.44943136288E+01  0.36053152645E+02  0.51100000000E-03 0. -1.
        -11    1    3    3    0    0  0.90348114401E+01  0.19124850192E+01  0.27842409931E+01  0.96455904368E+01  0.51100000000E-03 0.  1.
        -12    1    3    3    0    0 -0.36199810274E+02 -0.24367338793E+02 -0.76873423404E+01  0.44309013710E+02  0.00000000000E+00 0.  1.
</event>
<event>
 7    1  0.4555057E-015  0.9000776E+02  0.7816164E-02  0.1186339E+00
        -11   -1    0    0    0    0  0.00000000000E+00  0.00000000000E+00  0.45593999997E+02  0.45594000000E+02  0.51100000000E-03 0.  1.
         11   -1    0    0    0    0 -0.00000000000E+00 -0.00000000000E+00 -0.45593999997E+02  0.45594000000E+02  0.51100000000E-03 0. -1.
    9900012    2    1    2    0    0  0.78306127682E+00 -0.41116870683E+00 -0.78149314217E+00  0.90007755873E+02  0.90000017450E+02 0.  0.
        -12    1    1    2    0    0 -0.78306127682E+00  0.41116870683E+00  0.78149314217E+00  0.11802441273E+01  0.00000000000E+00 0.  1.
         11    1    3    3    0    0 -0.31467906604E+02 -0.20976433413E+02 -0.84801959943E+01  0.38757626722E+02  0.51100000000E-03 0. -1.
        -11    1    3    3    0    0 -0.58868046882E+01  0.86853472563E+01 -0.36671691182E+00  0.10498771735E+02  0.51100000000E-03 0.  1.
        -12    1    3    3    0    0  0.38137772569E+02  0.11879917450E+02  0.80654197640E+01  0.40751357415E+02  0.00000000000E+00 0.  1.
</event>
<event>
 7    1  0.4555057E-015  0.9000775E+02  0.7816164E-02  0.1186339E+00
        -11   -1    0    0    0    0  0.00000000000E+00  0.00000000000E+00  0.45593999997E+02  0.45594000000E+02  0.51100000000E-03 0. -1.
         11   -1    0    0    0    0 -0.00000000000E+00 -0.00000000000E+00 -0.45593999997E+02  0.45594000000E+02  0.51100000000E-03 0.  1.
    9900012    2    1    2    0    0 -0.11676776530E+01 -0.14700835669E+00 -0.88989079321E-01  0.90007745106E+02  0.90000006542E+02 0.  0.
        -12    1    1    2    0    0  0.11676776530E+01  0.14700835669E+00  0.88989079321E-01  0.11802548939E+01  0.00000000000E+00 0.  1.
         11    1    3    3    0    0  0.58452604791E+01  0.24094981584E+01 -0.21621267701E+01  0.66818817615E+01  0.51100000000E-03 0. -1.
        -11    1    3    3    0    0  0.18487416290E+02 -0.29116205029E+02  0.22538360593E+02  0.41200918131E+02  0.51100000000E-03 0.  1.
         12    1    3    3    0    0 -0.25500354422E+02  0.26559698514E+02 -0.20465222903E+02  0.42124945213E+02  0.00000000000E+00 0. -1.
</event>
<event>
 7    1  0.4555057E-015  0.9000775E+02  0.7816164E-02  0.1186339E+00
        -11   -1    0    0    0    0  0.00000000000E+00  0.00000000000E+00  0.45593999997E+02  0.45594000000E+02  0.51100000000E-03 0.  1.
         11   -1    0    0    0    0 -0.00000000000E+00 -0.00000000000E+00 -0.45593999997E+02  0.45594000000E+02  0.51100000000E-03 0. -1.
    9900012    2    1    2    0    0  0.41029232072E+00 -0.59459146294E+00 -0.93333545997E+00  0.90007748384E+02  0.90000009863E+02 0.  0.
        -12    1    1    2    0    0 -0.41029232072E+00  0.59459146294E+00  0.93333545997E+00  0.11802516160E+01  0.00000000000E+00 0.  1.
         11    1    3    3    0    0 -0.66021862173E+01 -0.74777355767E+01  0.39512317949E+00  0.99830613937E+01  0.51100000000E-03 0. -1.
        -11    1    3    3    0    0 -0.22146782662E+02  0.23019222804E+02  0.22486271528E+02  0.39064011676E+02  0.51100000000E-03 0.  1.
         12    1    3    3    0    0  0.29159261200E+02 -0.16136078690E+02 -0.23814730168E+02  0.40960675314E+02  0.00000000000E+00 0. -1.
</event>
<event>
 7    1  0.4555057E-015  0.9000772E+02  0.7816164E-02  0.1186339E+00
        -11   -1    0    0    0    0  0.00000000000E+00  0.00000000000E+00  0.45593999997E+02  0.45594000000E+02  0.51100000000E-03 0.  1.
         11   -1    0    0    0    0 -0.00000000000E+00 -0.00000000000E+00 -0.45593999997E+02  0.45594000000E+02  0.51100000000E-03 0. -1.
    9900012    2    1    2    0    0  0.12509230146E+00  0.77736060547E+00 -0.87926758761E+00  0.90007724996E+02  0.89999986166E+02 0.  0.
        -12    1    1    2    0    0 -0.12509230146E+00 -0.77736060547E+00  0.87926758761E+00  0.11802750042E+01  0.00000000000E+00 0.  1.
         11    1    3    3    0    0 -0.12209374187E+02 -0.30516177953E-01 -0.28815044136E+02  0.31294991901E+02  0.51100000000E-03 0. -1.
        -11    1    3    3    0    0  0.20047161157E+02  0.12662672220E+02 -0.37572448175E+01  0.24007266131E+02  0.51100000000E-03 0.  1.
         12    1    3    3    0    0 -0.77126946690E+01 -0.11854795436E+02  0.31693021366E+02  0.34705466964E+02  0.00000000000E+00 0. -1.
</event>
<event>
 7    1  0.4555057E-015  0.9000752E+02  0.7816164E-02  0.1186339E+00
        -11   -1    0    0    0    0  0.00000000000E+00  0.00000000000E+00  0.45593999997E+02  0.45594000000E+02  0.51100000000E-03 0. -1.
         11   -1    0    0    0    0 -0.00000000000E+00 -0.00000000000E+00 -0.45593999997E+02  0.45594000000E+02  0.51100000000E-03 0.  1.
    9900012    2    1    2    0    0 -0.31429157103E+00 -0.87441626031E+00  0.72810735885E+00  0.90007524115E+02  0.89999782634E+02 0.  0.
        -12    1    1    2    0    0  0.31429157103E+00  0.87441626031E+00 -0.72810735885E+00  0.11804758845E+01  0.00000000000E+00 0.  1.
         11    1    3    3    0    0  0.16497207945E+02 -0.40268012525E+01  0.78095875569E+01  0.18691245447E+02  0.51100000000E-03 0. -1.
        -11    1    3    3    0    0  0.20113178185E+02  0.21724160840E+02 -0.19979093361E+01  0.29672727257E+02  0.51100000000E-03 0.  1.
         12    1    3    3    0    0 -0.36924677701E+02 -0.18571775848E+02 -0.50835708620E+01  0.41643551411E+02  0.00000000000E+00 0. -1.
</event>
<event>
 7    1  0.4555057E-015  0.9000760E+02  0.7816164E-02  0.1186339E+00
        -11   -1    0    0    0    0  0.00000000000E+00  0.00000000000E+00  0.45593999997E+02  0.45594000000E+02  0.51100000000E-03 0. -1.
         11   -1    0    0    0    0 -0.00000000000E+00 -0.00000000000E+00 -0.45593999997E+02  0.45594000000E+02  0.51100000000E-03 0.  1.
    9900012    2    1    2    0    0  0.74084954293E+00  0.73894609598E+00  0.54629526192E+00  0.90007602655E+02  0.89999862210E+02 0.  0.
        -12    1    1    2    0    0 -0.74084954293E+00 -0.73894609598E+00 -0.54629526192E+00  0.11803973446E+01  0.00000000000E+00 0.  1.
         11    1    3    3    0    0  0.46318043980E+01 -0.27791088785E+01 -0.76687226254E+01  0.93801047492E+01  0.51100000000E-03 0. -1.
        -11    1    3    3    0    0 -0.29638535465E+02  0.11234881192E+02 -0.23202137150E+02  0.39281096070E+02  0.51100000000E-03 0.  1.
         12    1    3    3    0    0  0.25747580610E+02 -0.77168262179E+01  0.31417155037E+02  0.41346401836E+02  0.00000000000E+00 0. -1.
</event>
<event>
 7    1  0.4578156E-015  0.9000735E+02  0.7816164E-02  0.1186340E+00
        -11   -1    0    0    0    0  0.00000000000E+00  0.00000000000E+00  0.45593999997E+02  0.45594000000E+02  0.51100000000E-03 0. -1.
         11   -1    0    0    0    0 -0.00000000000E+00 -0.00000000000E+00 -0.45593999997E+02  0.45594000000E+02  0.51100000000E-03 0.  1.
    9900012    2    1    2    0    0  0.61210796985E+00 -0.51800548730E+00  0.86656701635E+00  0.90007345840E+02  0.89999602004E+02 0.  0.
        -12    1    1    2    0    0 -0.61210796985E+00  0.51800548730E+00 -0.86656701635E+00  0.11806541600E+01  0.00000000000E+00 0.  1.
         11    1    3    3    0    0 -0.17874979670E+01 -0.48879944425E+01  0.75211998460E+01  0.91463701017E+01  0.51100000000E-03 0. -1.
        -11    1    3    3    0    0 -0.13115641647E+02 -0.28411967617E+02 -0.25151917726E+02  0.40148211980E+02  0.51100000000E-03 0.  1.
         12    1    3    3    0    0  0.15515247584E+02  0.32781956572E+02  0.18497284897E+02  0.40712763758E+02  0.00000000000E+00 0. -1.
</event>
<event>
 7    1  0.4555057E-015  0.9000799E+02  0.7816164E-02  0.1186339E+00
        -11   -1    0    0    0    0  0.00000000000E+00  0.00000000000E+00  0.45593999997E+02  0.45594000000E+02  0.51100000000E-03 0.  1.
         11   -1    0    0    0    0 -0.00000000000E+00 -0.00000000000E+00 -0.45593999997E+02  0.45594000000E+02  0.51100000000E-03 0. -1.
    9900012    2    1    2    0    0 -0.35077698476E+00  0.99716719954E+00 -0.52444488794E+00  0.90007987561E+02  0.90000252196E+02 0.  0.
        -12    1    1    2    0    0  0.35077698476E+00 -0.99716719954E+00  0.52444488794E+00  0.11800124395E+01  0.00000000000E+00 0.  1.
         11    1    3    3    0    0 -0.86276687405E+01 -0.42309853396E+01 -0.43361316428E+01  0.10542293049E+02  0.51100000000E-03 0. -1.
        -11    1    3    3    0    0 -0.91769082684E+01  0.43541914275E+01  0.38933317174E+02  0.40236523394E+02  0.51100000000E-03 0.  1.
         12    1    3    3    0    0  0.17453800024E+02  0.87396111166E+00 -0.35121630419E+02  0.39229171118E+02  0.00000000000E+00 0. -1.
</event>
<event>
 7    1  0.4555057E-015  0.9000772E+02  0.7816164E-02  0.1186339E+00
        -11   -1    0    0    0    0  0.00000000000E+00  0.00000000000E+00  0.45593999997E+02  0.45594000000E+02  0.51100000000E-03 0.  1.
         11   -1    0    0    0    0 -0.00000000000E+00 -0.00000000000E+00 -0.45593999997E+02  0.45594000000E+02  0.51100000000E-03 0. -1.
    9900012    2    1    2    0    0  0.83785693146E+00 -0.56034157696E+00  0.61407142379E+00  0.90007715867E+02  0.89999976917E+02 0.  0.
        -12    1    1    2    0    0 -0.83785693146E+00  0.56034157696E+00 -0.61407142379E+00  0.11802841327E+01  0.00000000000E+00 0.  1.
         11    1    3    3    0    0  0.20906848943E+02  0.36022103751E+02 -0.63637855550E+01  0.42132956913E+02  0.51100000000E-03 0. -1.
        -11    1    3    3    0    0 -0.22905750159E+01 -0.70092565574E+01  0.10885972713E+02  0.13148414869E+02  0.51100000000E-03 0.  1.
        -12    1    3    3    0    0 -0.17778416995E+02 -0.29573188771E+02 -0.39081157345E+01  0.34726344085E+02  0.00000000000E+00 0.  1.
</event>
<event>
 7    1  0.4555057E-015  0.9000791E+02  0.7816164E-02  0.1186339E+00
        -11   -1    0    0    0    0  0.00000000000E+00  0.00000000000E+00  0.45593999997E+02  0.45594000000E+02  0.51100000000E-03 0.  1.
         11   -1    0    0    0    0 -0.00000000000E+00 -0.00000000000E+00 -0.45593999997E+02  0.45594000000E+02  0.51100000000E-03 0. -1.
    9900012    2    1    2    0    0 -0.35662193834E+00 -0.17801900632E+00 -0.11107448102E+01  0.90007905086E+02  0.90000168633E+02 0.  0.
        -12    1    1    2    0    0  0.35662193834E+00  0.17801900632E+00  0.11107448102E+01  0.11800949144E+01  0.00000000000E+00 0.  1.
         11    1    3    3    0    0  0.26791444313E+02  0.27215394146E+02 -0.58921937102E+01  0.38641649989E+02  0.51100000000E-03 0. -1.
        -11    1    3    3    0    0  0.49370572173E+01 -0.53591119834E+01 -0.75932597120E+01  0.10523887520E+02  0.51100000000E-03 0.  1.
        -12    1    3    3    0    0 -0.32085123469E+02 -0.22034301169E+02  0.12374708612E+02  0.40842367576E+02  0.00000000000E+00 0.  1.
</event>
<event>
 7    1  0.5015740E-015  0.9000779E+02  0.7816164E-02  0.1186339E+00
        -11   -1    0    0    0    0  0.00000000000E+00  0.00000000000E+00  0.45593999997E+02  0.45594000000E+02  0.51100000000E-03 0.  1.
         11   -1    0    0    0    0 -0.00000000000E+00 -0.00000000000E+00 -0.45593999997E+02  0.45594000000E+02  0.51100000000E-03 0. -1.
    9900012    2    1    2    0    0  0.87063130643E+00 -0.36353169556E+00 -0.70904793677E+00  0.90007786823E+02  0.90000048810E+02 0.  0.
        -12    1    1    2    0    0 -0.87063130643E+00  0.36353169556E+00  0.70904793677E+00  0.11802131765E+01  0.00000000000E+00 0.  1.
         11    1    3    3    0    0 -0.11784144364E+01  0.67804016004E+01  0.65946292449E+01  0.95316127484E+01  0.51100000000E-03 0. -1.
        -11    1    3    3    0    0  0.41418768776E+01  0.31580564502E+02  0.15569042979E+02  0.35452535846E+02  0.51100000000E-03 0.  1.
         12    1    3    3    0    0 -0.20928311348E+01 -0.38724497798E+02 -0.22872720161E+02  0.45023638229E+02  0.00000000000E+00 0. -1.
</event>
<event>
 7    1  0.4555057E-015  0.9000769E+02  0.7816164E-02  0.1186339E+00
        -11   -1    0    0    0    0  0.00000000000E+00  0.00000000000E+00  0.45593999997E+02  0.45594000000E+02  0.51100000000E-03 0. -1.
         11   -1    0    0    0    0 -0.00000000000E+00 -0.00000000000E+00 -0.45593999997E+02  0.45594000000E+02  0.51100000000E-03 0.  1.
    9900012    2    1    2    0    0 -0.39391193001E+00 -0.11116172200E+01 -0.47596596950E-01  0.90007692884E+02  0.89999953630E+02 0.  0.
        -12    1    1    2    0    0  0.39391193001E+00  0.11116172200E+01  0.47596596950E-01  0.11803071162E+01  0.00000000000E+00 0.  1.
         11    1    3    3    0    0  0.61427320286E+01 -0.50039063405E+01  0.76040433761E+01  0.10981516806E+02  0.51100000000E-03 0. -1.
        -11    1    3    3    0    0 -0.73058654027E+01 -0.12579137526E+02 -0.40084397922E+02  0.42642341953E+02  0.51100000000E-03 0.  1.
         12    1    3    3    0    0  0.76922144414E+00  0.16471426646E+02  0.32432757949E+02  0.36383834125E+02  0.00000000000E+00 0. -1.
</event>
<event>
 7    1  0.4555057E-015  0.9000768E+02  0.7816164E-02  0.1186339E+00
        -11   -1    0    0    0    0  0.00000000000E+00  0.00000000000E+00  0.45593999997E+02  0.45594000000E+02  0.51100000000E-03 0. -1.
         11   -1    0    0    0    0 -0.00000000000E+00 -0.00000000000E+00 -0.45593999997E+02  0.45594000000E+02  0.51100000000E-03 0.  1.
    9900012    2    1    2    0    0  0.79136060788E+00 -0.81846130686E+00  0.31148408259E+00  0.90007681036E+02  0.89999941626E+02 0.  0.
        -12    1    1    2    0    0 -0.79136060788E+00  0.81846130686E+00 -0.31148408259E+00  0.11803189638E+01  0.00000000000E+00 0.  1.
         11    1    3    3    0    0  0.24606309351E+02 -0.20727500248E+02 -0.25142282910E+02  0.40831778268E+02  0.51100000000E-03 0. -1.
        -11    1    3    3    0    0  0.22610075868E+01 -0.52942401159E+01  0.43670834170E+01  0.72258253193E+01  0.51100000000E-03 0.  1.
        -12    1    3    3    0    0 -0.26075956330E+02  0.25203279057E+02  0.21086683575E+02  0.41950077448E+02  0.00000000000E+00 0.  1.
</event>
<event>
 7    1  0.4555057E-015  0.9000768E+02  0.7816164E-02  0.1186339E+00
        -11   -1    0    0    0    0  0.00000000000E+00  0.00000000000E+00  0.45593999997E+02  0.45594000000E+02  0.51100000000E-03 0. -1.
         11   -1    0    0    0    0 -0.00000000000E+00 -0.00000000000E+00 -0.45593999997E+02  0.45594000000E+02  0.51100000000E-03 0.  1.
    9900012    2    1    2    0    0  0.52216366928E+00  0.10579441973E+01 -0.35563377776E-01  0.90007675648E+02  0.89999936167E+02 0.  0.
        -12    1    1    2    0    0 -0.52216366928E+00 -0.10579441973E+01  0.35563377776E-01  0.11803243520E+01  0.00000000000E+00 0.  1.
         11    1    3    3    0    0  0.10188191463E+02 -0.98504488027E+01 -0.74473120124E+01  0.16009154986E+02  0.51100000000E-03 0. -1.
        -11    1    3    3    0    0  0.28000876021E+02 -0.28166605570E+00 -0.11645253978E+02  0.30327221010E+02  0.51100000000E-03 0.  1.
         12    1    3    3    0    0 -0.37666903815E+02  0.11190059056E+02  0.19057002613E+02  0.43671299652E+02  0.00000000000E+00 0. -1.
</event>
<event>
 7    1  0.4555057E-015  0.9000777E+02  0.7816164E-02  0.1186339E+00
        -11   -1    0    0    0    0  0.00000000000E+00  0.00000000000E+00  0.45593999997E+02  0.45594000000E+02  0.51100000000E-03 0.  1.
         11   -1    0    0    0    0 -0.00000000000E+00 -0.00000000000E+00 -0.45593999997E+02  0.45594000000E+02  0.51100000000E-03 0. -1.
    9900012    2    1    2    0    0 -0.67256007217E+00  0.13152405861E+00 -0.96088964345E+00  0.90007769287E+02  0.90000031042E+02 0.  0.
        -12    1    1    2    0    0  0.67256007217E+00 -0.13152405861E+00  0.96088964345E+00  0.11802307129E+01  0.00000000000E+00 0.  1.
         11    1    3    3    0    0 -0.25402945327E+02  0.11258364645E+02  0.21706052972E+02  0.35259227752E+02  0.51100000000E-03 0. -1.
        -11    1    3    3    0    0 -0.93634550321E+01  0.36177012037E+01  0.18969185615E+01  0.10215691481E+02  0.51100000000E-03 0.  1.
        -12    1    3    3    0    0  0.34093840287E+02 -0.14744541790E+02 -0.24563861177E+02  0.44532850055E+02  0.00000000000E+00 0.  1.
</event>
<event>
 7    1  0.4555057E-015  0.9000736E+02  0.7816164E-02  0.1186340E+00
        -11   -1    0    0    0    0  0.00000000000E+00  0.00000000000E+00  0.45593999997E+02  0.45594000000E+02  0.51100000000E-03 0. -1.
         11   -1    0    0    0    0 -0.00000000000E+00 -0.00000000000E+00 -0.45593999997E+02  0.45594000000E+02  0.51100000000E-03 0.  1.
    9900012    2    1    2    0    0  0.97214077202E+00 -0.18890918727E+00  0.64278623232E+00  0.90007356742E+02  0.89999613050E+02 0.  0.
        -12    1    1    2    0    0 -0.97214077202E+00  0.18890918727E+00 -0.64278623232E+00  0.11806432578E+01  0.00000000000E+00 0.  1.
         11    1    3    3    0    0  0.26016236352E+02 -0.13897197472E+02  0.26924140910E+02  0.39936024033E+02  0.51100000000E-03 0. -1.
        -11    1    3    3    0    0  0.33807026213E+01 -0.66297483502E+01 -0.27365027759E+01  0.79291336919E+01  0.51100000000E-03 0.  1.
        -12    1    3    3    0    0 -0.28424798202E+02  0.20338036635E+02 -0.23544851902E+02  0.42142199018E+02  0.00000000000E+00 0.  1.
</event>
<event>
 7    1  0.4555057E-015  0.9000774E+02  0.7816164E-02  0.1186339E+00
        -11   -1    0    0    0    0  0.00000000000E+00  0.00000000000E+00  0.45593999997E+02  0.45594000000E+02  0.51100000000E-03 0. -1.
         11   -1    0    0    0    0 -0.00000000000E+00 -0.00000000000E+00 -0.45593999997E+02  0.45594000000E+02  0.51100000000E-03 0.  1.
    9900012    2    1    2    0    0  0.26335946727E+00  0.30490241010E+00 -0.11093677949E+01  0.90007737066E+02  0.89999998395E+02 0.  0.
        -12    1    1    2    0    0 -0.26335946727E+00 -0.30490241010E+00  0.11093677949E+01  0.11802629339E+01  0.00000000000E+00 0.  1.
         11    1    3    3    0    0  0.21482745628E+02 -0.21104962631E+02  0.28089687270E+02  0.41182014746E+02  0.51100000000E-03 0. -1.
        -11    1    3    3    0    0  0.27269383303E+01  0.82392983942E+01  0.20646934428E+00  0.86812937134E+01  0.51100000000E-03 0.  1.
        -12    1    3    3    0    0 -0.23946324491E+02  0.13170566647E+02 -0.29405524409E+02  0.40144428607E+02  0.00000000000E+00 0.  1.
</event>
<event>
 7    1  0.4555057E-015  0.9000762E+02  0.7816164E-02  0.1186339E+00
        -11   -1    0    0    0    0  0.00000000000E+00  0.00000000000E+00  0.45593999997E+02  0.45594000000E+02  0.51100000000E-03 0. -1.
         11   -1    0    0    0    0 -0.00000000000E+00 -0.00000000000E+00 -0.45593999997E+02  0.45594000000E+02  0.51100000000E-03 0.  1.
    9900012    2    1    2    0    0  0.82349806038E+00 -0.84208421617E+00 -0.77659995234E-01  0.90007624654E+02  0.89999884499E+02 0.  0.
        -12    1    1    2    0    0 -0.82349806038E+00  0.84208421617E+00  0.77659995234E-01  0.11803753460E+01  0.00000000000E+00 0.  1.
         11    1    3    3    0    0 -0.61202431646E+01  0.29589724032E-01 -0.74269898335E+01  0.96238469540E+01  0.51100000000E-03 0. -1.
        -11    1    3    3    0    0  0.83366782356E+01 -0.35187884845E+02 -0.15276457921E+02  0.39256306636E+02  0.51100000000E-03 0.  1.
         12    1    3    3    0    0 -0.13929370106E+01  0.34316210905E+02  0.22625787759E+02  0.41127471064E+02  0.00000000000E+00 0. -1.
</event>
<event>
 7    1  0.4555057E-015  0.9000768E+02  0.7816164E-02  0.1186339E+00
        -11   -1    0    0    0    0  0.00000000000E+00  0.00000000000E+00  0.45593999997E+02  0.45594000000E+02  0.51100000000E-03 0. -1.
         11   -1    0    0    0    0 -0.00000000000E+00 -0.00000000000E+00 -0.45593999997E+02  0.45594000000E+02  0.51100000000E-03 0.  1.
    9900012    2    1    2    0    0 -0.39433048622E+00  0.30319708707E+00 -0.10703884509E+01  0.90007679517E+02  0.89999940087E+02 0.  0.
        -12    1    1    2    0    0  0.39433048622E+00 -0.30319708707E+00  0.10703884509E+01  0.11803204827E+01  0.00000000000E+00 0.  1.
         11    1    3    3    0    0 -0.72014147848E+01  0.42475133401E+01 -0.30484091970E+01  0.88991316076E+01  0.51100000000E-03 0. -1.
        -11    1    3    3    0    0 -0.35885238806E+02 -0.11498222188E+02  0.22914215064E+01  0.37751954790E+02  0.51100000000E-03 0.  1.
         12    1    3    3    0    0  0.42692323105E+02  0.75539059346E+01 -0.31340076032E+00  0.43356593120E+02  0.00000000000E+00 0. -1.
</event>
<event>
 7    1  0.4555057E-015  0.9000790E+02  0.7816164E-02  0.1186339E+00
        -11   -1    0    0    0    0  0.00000000000E+00  0.00000000000E+00  0.45593999997E+02  0.45594000000E+02  0.51100000000E-03 0.  1.
         11   -1    0    0    0    0 -0.00000000000E+00 -0.00000000000E+00 -0.45593999997E+02  0.45594000000E+02  0.51100000000E-03 0. -1.
    9900012    2    1    2    0    0 -0.98495855295E+00 -0.45315998006E+00 -0.46598759547E+00  0.90007897565E+02  0.90000161012E+02 0.  0.
        -12    1    1    2    0    0  0.98495855295E+00  0.45315998006E+00  0.46598759547E+00  0.11801024353E+01  0.00000000000E+00 0.  1.
         11    1    3    3    0    0  0.15129361222E+02  0.25861802010E+01  0.40549241116E+01  0.15875399486E+02  0.51100000000E-03 0. -1.
        -11    1    3    3    0    0  0.16427510692E+02 -0.27419537257E+02  0.50481231446E+01  0.32360124821E+02  0.51100000000E-03 0.  1.
         12    1    3    3    0    0 -0.32541830467E+02  0.24380197076E+02 -0.95690348517E+01  0.41772373258E+02  0.00000000000E+00 0. -1.
</event>
<event>
 7    1  0.4555057E-015  0.9000746E+02  0.7816164E-02  0.1186340E+00
        -11   -1    0    0    0    0  0.00000000000E+00  0.00000000000E+00  0.45593999997E+02  0.45594000000E+02  0.51100000000E-03 0.  1.
         11   -1    0    0    0    0 -0.00000000000E+00 -0.00000000000E+00 -0.45593999997E+02  0.45594000000E+02  0.51100000000E-03 0. -1.
    9900012    2    1    2    0    0  0.11481313249E+01 -0.22508960966E+00 -0.15747658292E+00  0.90007462095E+02  0.89999719794E+02 0.  0.
        -12    1    1    2    0    0 -0.11481313249E+01  0.22508960966E+00  0.15747658292E+00  0.11805379053E+01  0.00000000000E+00 0.  1.
         11    1    3    3    0    0 -0.82092317717E+01 -0.92938141734E+00  0.36373781358E+01  0.90269461096E+01  0.51100000000E-03 0. -1.
        -11    1    3    3    0    0 -0.57232175047E+01 -0.38270671471E+02  0.22159882116E+01  0.38759645476E+02  0.51100000000E-03 0.  1.
         12    1    3    3    0    0  0.15080580601E+02  0.38974963278E+02 -0.60108429304E+01  0.42220870509E+02  0.00000000000E+00 0. -1.
</event>
<event>
 7    1  0.4555057E-015  0.9000786E+02  0.7816164E-02  0.1186339E+00
        -11   -1    0    0    0    0  0.00000000000E+00  0.00000000000E+00  0.45593999997E+02  0.45594000000E+02  0.51100000000E-03 0. -1.
         11   -1    0    0    0    0 -0.00000000000E+00 -0.00000000000E+00 -0.45593999997E+02  0.45594000000E+02  0.51100000000E-03 0.  1.
    9900012    2    1    2    0    0 -0.10987202070E+01  0.30107396428E+00 -0.30806235353E+00  0.90007858467E+02  0.90000121398E+02 0.  0.
        -12    1    1    2    0    0  0.10987202070E+01 -0.30107396428E+00  0.30806235353E+00  0.11801415334E+01  0.00000000000E+00 0.  1.
         11    1    3    3    0    0 -0.25294325634E+02  0.29065058940E+02  0.16092724784E+02  0.41755913973E+02  0.51100000000E-03 0. -1.
        -11    1    3    3    0    0  0.66306947474E+01 -0.34781170387E+01  0.64723938549E+01  0.98972366569E+01  0.51100000000E-03 0.  1.
        -12    1    3    3    0    0  0.17564910679E+02 -0.25285867937E+02 -0.22873180993E+02  0.38354707837E+02  0.00000000000E+00 0.  1.
</event>
<event>
 7    1  0.4555057E-015  0.9000794E+02  0.7816164E-02  0.1186339E+00
        -11   -1    0    0    0    0  0.00000000000E+00  0.00000000000E+00  0.45593999997E+02  0.45594000000E+02  0.51100000000E-03 0.  1.
         11   -1    0    0    0    0 -0.00000000000E+00 -0.00000000000E+00 -0.45593999997E+02  0.45594000000E+02  0.51100000000E-03 0. -1.
    9900012    2    1    2    0    0 -0.78694149174E+00 -0.32427713689E+00 -0.81738241217E+00  0.90007937891E+02  0.90000201871E+02 0.  0.
        -12    1    1    2    0    0  0.78694149174E+00  0.32427713689E+00  0.81738241217E+00  0.11800621088E+01  0.00000000000E+00 0.  1.
         11    1    3    3    0    0 -0.46911555491E+00  0.65274587887E+01  0.65957185684E+01  0.92914633582E+01  0.51100000000E-03 0. -1.
        -11    1    3    3    0    0  0.21562775176E+02 -0.46790746147E+01  0.30047948701E+02  0.37279032095E+02  0.51100000000E-03 0.  1.
         12    1    3    3    0    0 -0.21880601113E+02 -0.21726613109E+01 -0.37461049682E+02  0.43437442438E+02  0.00000000000E+00 0. -1.
</event>
<event>
 7    1  0.4555057E-015  0.9000788E+02  0.7816164E-02  0.1186339E+00
        -11   -1    0    0    0    0  0.00000000000E+00  0.00000000000E+00  0.45593999997E+02  0.45594000000E+02  0.51100000000E-03 0. -1.
         11   -1    0    0    0    0 -0.00000000000E+00 -0.00000000000E+00 -0.45593999997E+02  0.45594000000E+02  0.51100000000E-03 0.  1.
    9900012    2    1    2    0    0  0.80672306626E+00 -0.20581044426E+00 -0.83636872645E+00  0.90007884459E+02  0.90000147733E+02 0.  0.
        -12    1    1    2    0    0 -0.80672306626E+00  0.20581044426E+00  0.83636872645E+00  0.11801155415E+01  0.00000000000E+00 0.  1.
         11    1    3    3    0    0  0.54206900604E+01  0.16746087446E+01  0.79045437671E+01  0.97298513661E+01  0.51100000000E-03 0. -1.
        -11    1    3    3    0    0  0.31250439369E+02 -0.12059082150E+02  0.14333260345E+02  0.36434239054E+02  0.51100000000E-03 0.  1.
         12    1    3    3    0    0 -0.35864406364E+02  0.10178662961E+02 -0.23074172838E+02  0.43843794038E+02  0.00000000000E+00 0. -1.
</event>
<event>
 7    1  0.4555057E-015  0.9000714E+02  0.7816164E-02  0.1186340E+00
        -11   -1    0    0    0    0  0.00000000000E+00  0.00000000000E+00  0.45593999997E+02  0.45594000000E+02  0.51100000000E-03 0. -1.
         11   -1    0    0    0    0 -0.00000000000E+00 -0.00000000000E+00 -0.45593999997E+02  0.45594000000E+02  0.51100000000E-03 0.  1.
    9900012    2    1    2    0    0  0.40379160969E+00  0.29756450321E+00  0.10690336321E+01  0.90007142174E+02  0.89999395649E+02 0.  0.
        -12    1    1    2    0    0 -0.40379160969E+00 -0.29756450321E+00 -0.10690336321E+01  0.11808578256E+01  0.00000000000E+00 0.  1.
         11    1    3    3    0    0  0.32152343840E+02  0.59780120641E+01  0.23097288560E+02  0.40037414774E+02  0.51100000000E-03 0. -1.
        -11    1    3    3    0    0 -0.45705034755E+01  0.60242894455E+01  0.56593039298E+01  0.94450667851E+01  0.51100000000E-03 0.  1.
        -12    1    3    3    0    0 -0.27178048755E+02 -0.11704737006E+02 -0.27687558858E+02  0.40524660616E+02  0.00000000000E+00 0.  1.
</event>
<event>
 7    1  0.4555057E-015  0.9000780E+02  0.7816164E-02  0.1186339E+00
        -11   -1    0    0    0    0  0.00000000000E+00  0.00000000000E+00  0.45593999997E+02  0.45594000000E+02  0.51100000000E-03 0. -1.
         11   -1    0    0    0    0 -0.00000000000E+00 -0.00000000000E+00 -0.45593999997E+02  0.45594000000E+02  0.51100000000E-03 0.  1.
    9900012    2    1    2    0    0  0.11025039401E+00 -0.76794083596E+00  0.88937724147E+00  0.90007796562E+02  0.90000058677E+02 0.  0.
        -12    1    1    2    0    0 -0.11025039401E+00  0.76794083596E+00 -0.88937724147E+00  0.11802034378E+01  0.00000000000E+00 0.  1.
         11    1    3    3    0    0  0.72880774261E+01 -0.29567891432E+02  0.20461742502E+02  0.36688679218E+02  0.51100000000E-03 0. -1.
        -11    1    3    3    0    0  0.13790688841E+02  0.30409833433E+01  0.11527737192E+01  0.14168964885E+02  0.51100000000E-03 0.  1.
        -12    1    3    3    0    0 -0.20968515873E+02  0.25758967253E+02 -0.20725138980E+02  0.39150152459E+02  0.00000000000E+00 0.  1.
</event>
<event>
 7    1  0.4555057E-015  0.9000776E+02  0.7816164E-02  0.1186339E+00
        -11   -1    0    0    0    0  0.00000000000E+00  0.00000000000E+00  0.45593999997E+02  0.45594000000E+02  0.51100000000E-03 0.  1.
         11   -1    0    0    0    0 -0.00000000000E+00 -0.00000000000E+00 -0.45593999997E+02  0.45594000000E+02  0.51100000000E-03 0. -1.
    9900012    2    1    2    0    0  0.11056468901E+01  0.32635516467E+00 -0.25300930841E+00  0.90007755767E+02  0.90000017343E+02 0.  0.
        -12    1    1    2    0    0 -0.11056468901E+01 -0.32635516467E+00  0.25300930841E+00  0.11802442329E+01  0.00000000000E+00 0.  1.
         11    1    3    3    0    0 -0.76385428090E+01  0.12259738378E+01  0.34907118890E+01  0.84873681344E+01  0.51100000000E-03 0. -1.
        -11    1    3    3    0    0 -0.13542042724E+02 -0.30002556266E+02  0.19362513847E+02  0.38189622234E+02  0.51100000000E-03 0.  1.
         12    1    3    3    0    0  0.22286232423E+02  0.29102937592E+02 -0.23106235044E+02  0.43330765399E+02  0.00000000000E+00 0. -1.
</event>
<event>
 7    1  0.4555057E-015  0.9000768E+02  0.7816164E-02  0.1186339E+00
        -11   -1    0    0    0    0  0.00000000000E+00  0.00000000000E+00  0.45593999997E+02  0.45594000000E+02  0.51100000000E-03 0.  1.
         11   -1    0    0    0    0 -0.00000000000E+00 -0.00000000000E+00 -0.45593999997E+02  0.45594000000E+02  0.51100000000E-03 0. -1.
    9900012    2    1    2    0    0  0.43034734229E+00  0.16330171511E+00 -0.10868674575E+01  0.90007683451E+02  0.89999944073E+02 0.  0.
        -12    1    1    2    0    0 -0.43034734229E+00 -0.16330171511E+00  0.10868674575E+01  0.11803165488E+01  0.00000000000E+00 0.  1.
         11    1    3    3    0    0  0.31705090395E+02 -0.20526715276E+02 -0.11267262027E+02  0.39414591091E+02  0.51100000000E-03 0. -1.
        -11    1    3    3    0    0 -0.40488807917E+01 -0.65478370695E+01 -0.50194995770E+01  0.91903744330E+01  0.51100000000E-03 0.  1.
        -12    1    3    3    0    0 -0.27225862261E+02  0.27237854061E+02  0.15199894147E+02  0.41402717927E+02  0.00000000000E+00 0.  1.
</event>
<event>
 7    1  0.4555057E-015  0.9000777E+02  0.7816164E-02  0.1186339E+00
        -11   -1    0    0    0    0  0.00000000000E+00  0.00000000000E+00  0.45593999997E+02  0.45594000000E+02  0.51100000000E-03 0. -1.
         11   -1    0    0    0    0 -0.00000000000E+00 -0.00000000000E+00 -0.45593999997E+02  0.45594000000E+02  0.51100000000E-03 0.  1.
    9900012    2    1    2    0    0  0.66027589643E+00  0.59719053827E+00  0.77482096169E+00  0.90007767683E+02  0.90000029417E+02 0.  0.
        -12    1    1    2    0    0 -0.66027589643E+00 -0.59719053827E+00 -0.77482096169E+00  0.11802323166E+01  0.00000000000E+00 0.  1.
         11    1    3    3    0    0 -0.10128646489E+02 -0.55156734033E+01 -0.54237169005E+01  0.12744757278E+02  0.51100000000E-03 0. -1.
        -11    1    3    3    0    0 -0.15266852155E+02  0.34769937543E+02  0.65226752803E+01  0.38530126194E+02  0.51100000000E-03 0.  1.
         12    1    3    3    0    0  0.26055774540E+02 -0.28657073601E+02 -0.32413741814E+00  0.38732884212E+02  0.00000000000E+00 0. -1.
</event>
<event>
 7    1  0.4555057E-015  0.9000775E+02  0.7816164E-02  0.1186339E+00
        -11   -1    0    0    0    0  0.00000000000E+00  0.00000000000E+00  0.45593999997E+02  0.45594000000E+02  0.51100000000E-03 0.  1.
         11   -1    0    0    0    0 -0.00000000000E+00 -0.00000000000E+00 -0.45593999997E+02  0.45594000000E+02  0.51100000000E-03 0. -1.
    9900012    2    1    2    0    0  0.11407566634E+01 -0.27735234600E+00  0.12144356840E+00  0.90007746371E+02  0.90000007823E+02 0.  0.
        -12    1    1    2    0    0 -0.11407566634E+01  0.27735234600E+00 -0.12144356840E+00  0.11802536292E+01  0.00000000000E+00 0.  1.
         11    1    3    3    0    0 -0.51320622039E+01  0.15732365057E+01  0.86945260304E+01  0.10218019315E+02  0.51100000000E-03 0. -1.
        -11    1    3    3    0    0  0.37573755972E+02 -0.16508218957E+01  0.15116655872E+02  0.40534252624E+02  0.51100000000E-03 0.  1.
         12    1    3    3    0    0 -0.31300937105E+02 -0.19976695594E+00 -0.23689738334E+02  0.39255474431E+02  0.00000000000E+00 0. -1.
</event>
<event>
 7    1  0.4555057E-015  0.9000782E+02  0.7816164E-02  0.1186339E+00
        -11   -1    0    0    0    0  0.00000000000E+00  0.00000000000E+00  0.45593999997E+02  0.45594000000E+02  0.51100000000E-03 0. -1.
         11   -1    0    0    0    0 -0.00000000000E+00 -0.00000000000E+00 -0.45593999997E+02  0.45594000000E+02  0.51100000000E-03 0.  1.
    9900012    2    1    2    0    0  0.27156362283E+00 -0.11481406338E+01  0.29214184681E-01  0.90007819003E+02  0.90000081414E+02 0.  0.
        -12    1    1    2    0    0 -0.27156362283E+00  0.11481406338E+01 -0.29214184681E-01  0.11801809966E+01  0.00000000000E+00 0.  1.
         11    1    3    3    0    0 -0.55379114038E+01  0.51514103082E+01 -0.46849669318E+01  0.88968762098E+01  0.51100000000E-03 0. -1.
        -11    1    3    3    0    0 -0.20279018062E+02  0.16497306623E+02 -0.24473116054E+02  0.35809678985E+02  0.51100000000E-03 0.  1.
         12    1    3    3    0    0  0.26088493089E+02 -0.22796857565E+02  0.29187297171E+02  0.45301263808E+02  0.00000000000E+00 0. -1.
</event>
<event>
 7    1  0.4555057E-015  0.9000757E+02  0.7816164E-02  0.1186339E+00
        -11   -1    0    0    0    0  0.00000000000E+00  0.00000000000E+00  0.45593999997E+02  0.45594000000E+02  0.51100000000E-03 0. -1.
         11   -1    0    0    0    0 -0.00000000000E+00 -0.00000000000E+00 -0.45593999997E+02  0.45594000000E+02  0.51100000000E-03 0.  1.
    9900012    2    1    2    0    0  0.14756535425E+00  0.10773542213E+01  0.45930216259E+00  0.90007565280E+02  0.89999824341E+02 0.  0.
        -12    1    1    2    0    0 -0.14756535425E+00 -0.10773542213E+01 -0.45930216259E+00  0.11804347201E+01  0.00000000000E+00 0.  1.
         11    1    3    3    0    0 -0.37299457263E+01 -0.66934748952E+01  0.51528375772E+01  0.92340043671E+01  0.51100000000E-03 0. -1.
        -11    1    3    3    0    0 -0.21289216318E+02  0.28562234323E+02  0.19059904504E+02  0.40401880165E+02  0.51100000000E-03 0.  1.
         12    1    3    3    0    0  0.25166727398E+02 -0.20791405206E+02 -0.23753439919E+02  0.40371680747E+02  0.00000000000E+00 0. -1.
</event>
<event>
 7    1  0.4555057E-015  0.9000776E+02  0.7816164E-02  0.1186339E+00
        -11   -1    0    0    0    0  0.00000000000E+00  0.00000000000E+00  0.45593999997E+02  0.45594000000E+02  0.51100000000E-03 0.  1.
         11   -1    0    0    0    0 -0.00000000000E+00 -0.00000000000E+00 -0.45593999997E+02  0.45594000000E+02  0.51100000000E-03 0. -1.
    9900012    2    1    2    0    0 -0.38515723723E+00  0.83542567933E+00 -0.73938748528E+00  0.90007755950E+02  0.90000017529E+02 0.  0.
        -12    1    1    2    0    0  0.38515723723E+00 -0.83542567933E+00  0.73938748528E+00  0.11802440495E+01  0.00000000000E+00 0.  1.
         11    1    3    3    0    0  0.29217684655E+02 -0.78190351654E+01 -0.27154081985E+02  0.40646704371E+02  0.51100000000E-03 0. -1.
        -11    1    3    3    0    0  0.63936396458E+00  0.10559692333E+02  0.27982355519E+01  0.10942852046E+02  0.51100000000E-03 0.  1.
        -12    1    3    3    0    0 -0.30242205857E+02 -0.19052314882E+01  0.23616458947E+02  0.38418199533E+02  0.00000000000E+00 0.  1.
</event>
<event>
 7    1  0.4555057E-015  0.9000776E+02  0.7816164E-02  0.1186339E+00
        -11   -1    0    0    0    0  0.00000000000E+00  0.00000000000E+00  0.45593999997E+02  0.45594000000E+02  0.51100000000E-03 0. -1.
         11   -1    0    0    0    0 -0.00000000000E+00 -0.00000000000E+00 -0.45593999997E+02  0.45594000000E+02  0.51100000000E-03 0.  1.
    9900012    2    1    2    0    0 -0.10277454494E+01 -0.42293972637E+00 -0.39728477172E+00  0.90007756842E+02  0.90000018433E+02 0.  0.
        -12    1    1    2    0    0  0.10277454494E+01  0.42293972637E+00  0.39728477172E+00  0.11802431575E+01  0.00000000000E+00 0.  1.
         11    1    3    3    0    0  0.89117216437E-01  0.14777646015E+01 -0.33824100838E+01  0.36922118482E+01  0.51100000000E-03 0. -1.
        -11    1    3    3    0    0  0.23533667110E+02 -0.30957045207E+02 -0.17960574400E+02  0.42834032832E+02  0.51100000000E-03 0.  1.
         12    1    3    3    0    0 -0.24650529776E+02  0.29056340879E+02  0.20945699712E+02  0.43481512163E+02  0.00000000000E+00 0. -1.
</event>
<event>
 7    1  0.4555057E-015  0.9000780E+02  0.7816164E-02  0.1186339E+00
        -11   -1    0    0    0    0  0.00000000000E+00  0.00000000000E+00  0.45593999997E+02  0.45594000000E+02  0.51100000000E-03 0. -1.
         11   -1    0    0    0    0 -0.00000000000E+00 -0.00000000000E+00 -0.45593999997E+02  0.45594000000E+02  0.51100000000E-03 0.  1.
    9900012    2    1    2    0    0  0.24684378855E+00  0.32669472339E+00  0.11068922056E+01  0.90007800164E+02  0.90000062326E+02 0.  0.
        -12    1    1    2    0    0 -0.24684378855E+00 -0.32669472339E+00 -0.11068922056E+01  0.11801998360E+01  0.00000000000E+00 0.  1.
         11    1    3    3    0    0  0.58648861860E+01 -0.28870608617E+02 -0.13977817389E+02  0.32608101925E+02  0.51100000000E-03 0. -1.
        -11    1    3    3    0    0  0.59238323298E-01 -0.76421581003E+01 -0.99146477543E+01  0.12518239891E+02  0.51100000000E-03 0.  1.
        -12    1    3    3    0    0 -0.56772807207E+01  0.36839461441E+02  0.24999357348E+02  0.44881458349E+02  0.00000000000E+00 0.  1.
</event>
<event>
 7    1  0.4555057E-015  0.9000782E+02  0.7816164E-02  0.1186339E+00
        -11   -1    0    0    0    0  0.00000000000E+00  0.00000000000E+00  0.45593999997E+02  0.45594000000E+02  0.51100000000E-03 0.  1.
         11   -1    0    0    0    0 -0.00000000000E+00 -0.00000000000E+00 -0.45593999997E+02  0.45594000000E+02  0.51100000000E-03 0. -1.
    9900012    2    1    2    0    0  0.26818418004E+00 -0.78873364784E-01 -0.11465986066E+01  0.90007816910E+02  0.90000079293E+02 0.  0.
        -12    1    1    2    0    0 -0.26818418004E+00  0.78873364784E-01  0.11465986066E+01  0.11801830903E+01  0.00000000000E+00 0.  1.
         11    1    3    3    0    0 -0.15109323585E+02 -0.19851831931E+02 -0.28752383066E+02  0.38066867779E+02  0.51100000000E-03 0. -1.
        -11    1    3    3    0    0 -0.55175313564E+01 -0.27527845692E+01 -0.43995966030E+01  0.75747888210E+01  0.51100000000E-03 0.  1.
        -12    1    3    3    0    0  0.20895039121E+02  0.22525743136E+02  0.32005381063E+02  0.44366160310E+02  0.00000000000E+00 0.  1.
</event>
<event>
 7    1  0.4555057E-015  0.9000771E+02  0.7816164E-02  0.1186339E+00
        -11   -1    0    0    0    0  0.00000000000E+00  0.00000000000E+00  0.45593999997E+02  0.45594000000E+02  0.51100000000E-03 0. -1.
         11   -1    0    0    0    0 -0.00000000000E+00 -0.00000000000E+00 -0.45593999997E+02  0.45594000000E+02  0.51100000000E-03 0.  1.
    9900012    2    1    2    0    0  0.76109661416E+00 -0.75123045247E-01 -0.89898964702E+00  0.90007706005E+02  0.89999966925E+02 0.  0.
        -12    1    1    2    0    0 -0.76109661416E+00  0.75123045247E-01  0.89898964702E+00  0.11802939945E+01  0.00000000000E+00 0.  1.
         11    1    3    3    0    0  0.23136735825E+02 -0.17749321591E+02  0.24138880490E+02  0.37855415902E+02  0.51100000000E-03 0. -1.
        -11    1    3    3    0    0  0.56477814472E+00  0.45019315488E+01  0.83812661789E+01  0.95305815691E+01  0.51100000000E-03 0.  1.
        -12    1    3    3    0    0 -0.22940417355E+02  0.13172266997E+02 -0.33419136316E+02  0.42621708534E+02  0.00000000000E+00 0.  1.
</event>
<event>
 7    1  0.4555057E-015  0.9000775E+02  0.7816164E-02  0.1186339E+00
        -11   -1    0    0    0    0  0.00000000000E+00  0.00000000000E+00  0.45593999997E+02  0.45594000000E+02  0.51100000000E-03 0.  1.
         11   -1    0    0    0    0 -0.00000000000E+00 -0.00000000000E+00 -0.45593999997E+02  0.45594000000E+02  0.51100000000E-03 0. -1.
    9900012    2    1    2    0    0 -0.11408831447E+01 -0.25880125413E+00  0.15615970514E+00  0.90007754986E+02  0.90000016552E+02 0.  0.
        -12    1    1    2    0    0  0.11408831447E+01  0.25880125413E+00 -0.15615970514E+00  0.11802450138E+01  0.00000000000E+00 0.  1.
         11    1    3    3    0    0  0.44939839996E+01  0.25157733242E+01  0.58867582336E+01  0.78216961313E+01  0.51100000000E-03 0. -1.
        -11    1    3    3    0    0 -0.13568009401E+02  0.36313672691E+02  0.87726658302E+01  0.39745859778E+02  0.51100000000E-03 0.  1.
         12    1    3    3    0    0  0.79331422563E+01 -0.39088247270E+02 -0.14503264359E+02  0.42440199077E+02  0.00000000000E+00 0. -1.
</event>
<event>
 7    1  0.4555057E-015  0.9000763E+02  0.7816164E-02  0.1186339E+00
        -11   -1    0    0    0    0  0.00000000000E+00  0.00000000000E+00  0.45593999997E+02  0.45594000000E+02  0.51100000000E-03 0. -1.
         11   -1    0    0    0    0 -0.00000000000E+00 -0.00000000000E+00 -0.45593999997E+02  0.45594000000E+02  0.51100000000E-03 0.  1.
    9900012    2    1    2    0    0  0.80297208293E+00 -0.10447398577E+00  0.85883444474E+00  0.90007629049E+02  0.89999888952E+02 0.  0.
        -12    1    1    2    0    0 -0.80297208293E+00  0.10447398577E+00 -0.85883444474E+00  0.11803709515E+01  0.00000000000E+00 0.  1.
         11    1    3    3    0    0  0.56514547359E+01  0.33945839991E+02  0.17590219581E+02  0.38648089455E+02  0.51100000000E-03 0. -1.
        -11    1    3    3    0    0  0.17742770214E+01  0.66902098870E+01 -0.28210971176E+00  0.69272327398E+01  0.51100000000E-03 0.  1.
        -12    1    3    3    0    0 -0.66227596744E+01 -0.40740523864E+02 -0.16449275425E+02  0.44432306854E+02  0.00000000000E+00 0.  1.
</event>
<event>
 7    1  0.4555057E-015  0.9000776E+02  0.7816164E-02  0.1186339E+00
        -11   -1    0    0    0    0  0.00000000000E+00  0.00000000000E+00  0.45593999997E+02  0.45594000000E+02  0.51100000000E-03 0.  1.
         11   -1    0    0    0    0 -0.00000000000E+00 -0.00000000000E+00 -0.45593999997E+02  0.45594000000E+02  0.51100000000E-03 0. -1.
    9900012    2    1    2    0    0 -0.83372094390E+00  0.11588328205E+00 -0.82731915693E+00  0.90007755731E+02  0.90000017307E+02 0.  0.
        -12    1    1    2    0    0  0.83372094390E+00 -0.11588328205E+00  0.82731915693E+00  0.11802442691E+01  0.00000000000E+00 0.  1.
         11    1    3    3    0    0  0.35600674445E+02  0.10317781390E+02  0.14931090012E+02  0.39960006043E+02  0.51100000000E-03 0. -1.
        -11    1    3    3    0    0  0.33532514848E+01 -0.67682308078E+01 -0.20777219794E+01  0.78339117095E+01  0.51100000000E-03 0.  1.
        -12    1    3    3    0    0 -0.39787646874E+02 -0.34336673004E+01 -0.13680687189E+02  0.42213837978E+02  0.00000000000E+00 0.  1.
</event>
<event>
 7    1  0.4555057E-015  0.9000872E+02  0.7816164E-02  0.1186337E+00
        -11   -1    0    0    0    0  0.00000000000E+00  0.00000000000E+00  0.45593999997E+02  0.45594000000E+02  0.51100000000E-03 0.  1.
         11   -1    0    0    0    0 -0.00000000000E+00 -0.00000000000E+00 -0.45593999997E+02  0.45594000000E+02  0.51100000000E-03 0. -1.
    9900012    2    1    2    0    0  0.10471268378E+01 -0.45600348926E+00  0.29373151949E+00  0.90008723950E+02  0.90000998301E+02 0.  0.
        -12    1    1    2    0    0 -0.10471268378E+01  0.45600348926E+00 -0.29373151949E+00  0.11792760500E+01  0.00000000000E+00 0.  1.
         11    1    3    3    0    0  0.19836969470E+02  0.82686816733E+01 -0.21935277994E+01  0.21602963195E+02  0.51100000000E-03 0. -1.
        -11    1    3    3    0    0  0.19543082190E+02 -0.19732902729E+02  0.58497268365E+01  0.28382015713E+02  0.51100000000E-03 0.  1.
         12    1    3    3    0    0 -0.38332924822E+02  0.11008217566E+02 -0.33624675176E+01  0.40023745042E+02  0.00000000000E+00 0. -1.
</event>
<event>
 7    1  0.4555057E-015  0.9000761E+02  0.7816164E-02  0.1186339E+00
        -11   -1    0    0    0    0  0.00000000000E+00  0.00000000000E+00  0.45593999997E+02  0.45594000000E+02  0.51100000000E-03 0. -1.
         11   -1    0    0    0    0 -0.00000000000E+00 -0.00000000000E+00 -0.45593999997E+02  0.45594000000E+02  0.51100000000E-03 0.  1.
    9900012    2    1    2    0    0 -0.89675605566E+00  0.31076296038E+00  0.70183731045E+00  0.90007609958E+02  0.89999869609E+02 0.  0.
        -12    1    1    2    0    0  0.89675605566E+00 -0.31076296038E+00 -0.70183731045E+00  0.11803900420E+01  0.00000000000E+00 0.  1.
         11    1    3    3    0    0  0.33802595132E+02  0.10315201977E+02  0.10674512247E+02  0.36918342886E+02  0.51100000000E-03 0. -1.
        -11    1    3    3    0    0  0.54352266712E+01  0.64527971059E+01  0.54584590169E+00  0.84544797277E+01  0.51100000000E-03 0.  1.
        -12    1    3    3    0    0 -0.40134577858E+02 -0.16457236122E+02 -0.10518520839E+02  0.44634787345E+02  0.00000000000E+00 0.  1.
</event>
<event>
 7    1  0.4555057E-015  0.9000793E+02  0.7816164E-02  0.1186339E+00
        -11   -1    0    0    0    0  0.00000000000E+00  0.00000000000E+00  0.45593999997E+02  0.45594000000E+02  0.51100000000E-03 0. -1.
         11   -1    0    0    0    0 -0.00000000000E+00 -0.00000000000E+00 -0.45593999997E+02  0.45594000000E+02  0.51100000000E-03 0.  1.
    9900012    2    1    2    0    0  0.78274445458E-01 -0.11408508604E+01  0.29136460401E+00  0.90007931821E+02  0.90000195721E+02 0.  0.
        -12    1    1    2    0    0 -0.78274445458E-01  0.11408508604E+01 -0.29136460401E+00  0.11800681790E+01  0.00000000000E+00 0.  1.
         11    1    3    3    0    0 -0.42207650039E+02 -0.34418784388E+01 -0.94652071370E+01  0.43392653703E+02  0.51100000000E-03 0. -1.
        -11    1    3    3    0    0  0.77430152331E+01 -0.13898144492E+01 -0.45014824258E+01  0.90636203249E+01  0.51100000000E-03 0.  1.
        -12    1    3    3    0    0  0.34542909251E+02  0.36908420275E+01  0.14258054167E+02  0.37551657793E+02  0.00000000000E+00 0.  1.
</event>
<event>
 7    1  0.4555057E-015  0.9000765E+02  0.7816164E-02  0.1186339E+00
        -11   -1    0    0    0    0  0.00000000000E+00  0.00000000000E+00  0.45593999997E+02  0.45594000000E+02  0.51100000000E-03 0. -1.
         11   -1    0    0    0    0 -0.00000000000E+00 -0.00000000000E+00 -0.45593999997E+02  0.45594000000E+02  0.51100000000E-03 0.  1.
    9900012    2    1    2    0    0  0.93805689089E+00 -0.31152883582E+00 -0.64516379382E+00  0.90007645279E+02  0.89999905397E+02 0.  0.
        -12    1    1    2    0    0 -0.93805689089E+00  0.31152883582E+00  0.64516379382E+00  0.11803547208E+01  0.00000000000E+00 0.  1.
         11    1    3    3    0    0 -0.58418634646E+01  0.16893636114E+02  0.10642708082E+02  0.20803594533E+02  0.51100000000E-03 0. -1.
        -11    1    3    3    0    0  0.86988401340E+01  0.24054586309E+02 -0.11139365508E+02  0.27899433799E+02  0.51100000000E-03 0.  1.
         12    1    3    3    0    0 -0.19189197785E+01 -0.41259751258E+02 -0.14850636832E+00  0.41304616947E+02  0.00000000000E+00 0. -1.
</event>
<event>
 7    1  0.4555057E-015  0.9000777E+02  0.7816164E-02  0.1186339E+00
        -11   -1    0    0    0    0  0.00000000000E+00  0.00000000000E+00  0.45593999997E+02  0.45594000000E+02  0.51100000000E-03 0.  1.
         11   -1    0    0    0    0 -0.00000000000E+00 -0.00000000000E+00 -0.45593999997E+02  0.45594000000E+02  0.51100000000E-03 0. -1.
    9900012    2    1    2    0    0  0.17214232919E+00  0.10115556066E+01 -0.58314313121E+00  0.90007773904E+02  0.90000035719E+02 0.  0.
        -12    1    1    2    0    0 -0.17214232919E+00 -0.10115556066E+01  0.58314313121E+00  0.11802260962E+01  0.00000000000E+00 0.  1.
         11    1    3    3    0    0  0.10131964910E+02  0.53223088224E+01  0.28975899237E+01  0.11805918505E+02  0.51100000000E-03 0. -1.
        -11    1    3    3    0    0 -0.12468626333E+02  0.35677080442E+02 -0.49049515604E+01  0.38110093959E+02  0.51100000000E-03 0.  1.
         12    1    3    3    0    0  0.25088037521E+01 -0.39987833658E+02  0.14242185055E+01  0.40091761439E+02  0.00000000000E+00 0. -1.
</event>
<event>
 7    1  0.4555057E-015  0.9000776E+02  0.7816164E-02  0.1186339E+00
        -11   -1    0    0    0    0  0.00000000000E+00  0.00000000000E+00  0.45593999997E+02  0.45594000000E+02  0.51100000000E-03 0.  1.
         11   -1    0    0    0    0 -0.00000000000E+00 -0.00000000000E+00 -0.45593999997E+02  0.45594000000E+02  0.51100000000E-03 0. -1.
    9900012    2    1    2    0    0 -0.61510967258E+00 -0.94747582366E+00  0.34188949973E+00  0.90007763254E+02  0.90000024929E+02 0.  0.
        -12    1    1    2    0    0  0.61510967258E+00  0.94747582366E+00 -0.34188949973E+00  0.11802367456E+01  0.00000000000E+00 0.  1.
         11    1    3    3    0    0  0.72974898938E+01  0.15761480164E+02 -0.32601666333E+02  0.36939765344E+02  0.51100000000E-03 0. -1.
        -11    1    3    3    0    0  0.11074420015E+02 -0.15093616088E+02  0.52337781821E+01  0.19438427396E+02  0.51100000000E-03 0.  1.
        -12    1    3    3    0    0 -0.18987019582E+02 -0.16153398991E+01  0.27709777651E+02  0.33629570515E+02  0.00000000000E+00 0.  1.
</event>
<event>
 7    1  0.4555057E-015  0.9000776E+02  0.7816164E-02  0.1186339E+00
        -11   -1    0    0    0    0  0.00000000000E+00  0.00000000000E+00  0.45593999997E+02  0.45594000000E+02  0.51100000000E-03 0.  1.
         11   -1    0    0    0    0 -0.00000000000E+00 -0.00000000000E+00 -0.45593999997E+02  0.45594000000E+02  0.51100000000E-03 0. -1.
    9900012    2    1    2    0    0 -0.34001022688E+00  0.12529174930E+00 -0.11232331315E+01  0.90007763734E+02  0.90000025415E+02 0.  0.
        -12    1    1    2    0    0  0.34001022688E+00 -0.12529174930E+00  0.11232331315E+01  0.11802362664E+01  0.00000000000E+00 0.  1.
         11    1    3    3    0    0  0.27868058487E+02 -0.27678923554E+02 -0.14269199543E+02  0.41789490889E+02  0.51100000000E-03 0. -1.
        -11    1    3    3    0    0 -0.23636221596E+01 -0.98788105128E+00  0.89405631443E+01  0.93003380736E+01  0.51100000000E-03 0.  1.
        -12    1    3    3    0    0 -0.25844446555E+02  0.28792096354E+02  0.42054032669E+01  0.38917934771E+02  0.00000000000E+00 0.  1.
</event>
<event>
 7    1  0.4555057E-015  0.9000850E+02  0.7816164E-02  0.1186338E+00
        -11   -1    0    0    0    0  0.00000000000E+00  0.00000000000E+00  0.45593999997E+02  0.45594000000E+02  0.51100000000E-03 0. -1.
         11   -1    0    0    0    0 -0.00000000000E+00 -0.00000000000E+00 -0.45593999997E+02  0.45594000000E+02  0.51100000000E-03 0.  1.
    9900012    2    1    2    0    0 -0.58140721333E-01  0.10230831534E+01  0.58408177963E+00  0.90008495440E+02  0.90000766776E+02 0.  0.
        -12    1    1    2    0    0  0.58140721333E-01 -0.10230831534E+01 -0.58408177963E+00  0.11795045602E+01  0.00000000000E+00 0.  1.
         11    1    3    3    0    0 -0.25686631334E+02 -0.19718448601E+02  0.27836065639E+02  0.42702070149E+02  0.51100000000E-03 0. -1.
        -11    1    3    3    0    0  0.87256784146E+01 -0.11415929649E+01 -0.47151431749E+00  0.88126627250E+01  0.51100000000E-03 0.  1.
        -12    1    3    3    0    0  0.16902812198E+02  0.21883124719E+02 -0.26780469541E+02  0.38493762566E+02  0.00000000000E+00 0.  1.
</event>
<event>
 7    1  0.4555057E-015  0.9000752E+02  0.7816164E-02  0.1186339E+00
        -11   -1    0    0    0    0  0.00000000000E+00  0.00000000000E+00  0.45593999997E+02  0.45594000000E+02  0.51100000000E-03 0.  1.
         11   -1    0    0    0    0 -0.00000000000E+00 -0.00000000000E+00 -0.45593999997E+02  0.45594000000E+02  0.51100000000E-03 0. -1.
    9900012    2    1    2    0    0  0.77192632543E+00 -0.67525009872E+00 -0.58454341426E+00  0.90007523846E+02  0.89999782360E+02 0.  0.
        -12    1    1    2    0    0 -0.77192632543E+00  0.67525009872E+00  0.58454341426E+00  0.11804761543E+01  0.00000000000E+00 0.  1.
         11    1    3    3    0    0 -0.16717319210E+02  0.48466463312E+01 -0.38676280538E+02  0.42412420572E+02  0.51100000000E-03 0. -1.
        -11    1    3    3    0    0 -0.51879137659E+01 -0.15090793559E+01  0.89187875474E+01  0.10427681493E+02  0.51100000000E-03 0.  1.
        -12    1    3    3    0    0  0.22677159301E+02 -0.40128170741E+01  0.29172949577E+02  0.37167421781E+02  0.00000000000E+00 0.  1.
</event>
<event>
 7    1  0.4555057E-015  0.9000769E+02  0.7816164E-02  0.1186339E+00
        -11   -1    0    0    0    0  0.00000000000E+00  0.00000000000E+00  0.45593999997E+02  0.45594000000E+02  0.51100000000E-03 0.  1.
         11   -1    0    0    0    0 -0.00000000000E+00 -0.00000000000E+00 -0.45593999997E+02  0.45594000000E+02  0.51100000000E-03 0. -1.
    9900012    2    1    2    0    0 -0.11509610847E+01  0.56263927434E-01 -0.25544076860E+00  0.90007691975E+02  0.89999952709E+02 0.  0.
        -12    1    1    2    0    0  0.11509610847E+01 -0.56263927434E-01  0.25544076860E+00  0.11803080252E+01  0.00000000000E+00 0.  1.
         11    1    3    3    0    0 -0.11292706568E+02  0.36046883451E+02 -0.76389089299E+01  0.38539018644E+02  0.51100000000E-03 0. -1.
        -11    1    3    3    0    0 -0.17547807256E+01  0.86098946021E+00 -0.91544683967E+01  0.93608146084E+01  0.51100000000E-03 0.  1.
        -12    1    3    3    0    0  0.11896526208E+02 -0.36851608984E+02  0.16537936558E+02  0.42107858722E+02  0.00000000000E+00 0.  1.
</event>
<event>
 7    1  0.4555057E-015  0.9000780E+02  0.7816164E-02  0.1186339E+00
        -11   -1    0    0    0    0  0.00000000000E+00  0.00000000000E+00  0.45593999997E+02  0.45594000000E+02  0.51100000000E-03 0. -1.
         11   -1    0    0    0    0 -0.00000000000E+00 -0.00000000000E+00 -0.45593999997E+02  0.45594000000E+02  0.51100000000E-03 0.  1.
    9900012    2    1    2    0    0  0.75641054992E+00  0.57589669722E+00  0.69932531333E+00  0.90007800941E+02  0.90000063113E+02 0.  0.
        -12    1    1    2    0    0 -0.75641054992E+00 -0.57589669722E+00 -0.69932531333E+00  0.11801990594E+01  0.00000000000E+00 0.  1.
         11    1    3    3    0    0 -0.28009249973E+02 -0.18033960948E+02  0.16988466206E+02  0.37394515852E+02  0.51100000000E-03 0. -1.
        -11    1    3    3    0    0  0.24571835871E+01 -0.99551221708E+01  0.58695889885E+00  0.10270673280E+02  0.51100000000E-03 0.  1.
        -12    1    3    3    0    0  0.26308476936E+02  0.28564979816E+02 -0.16876099792E+02  0.42342611808E+02  0.00000000000E+00 0.  1.
</event>
<event>
 7    1  0.4555057E-015  0.9000772E+02  0.7816164E-02  0.1186339E+00
        -11   -1    0    0    0    0  0.00000000000E+00  0.00000000000E+00  0.45593999997E+02  0.45594000000E+02  0.51100000000E-03 0. -1.
         11   -1    0    0    0    0 -0.00000000000E+00 -0.00000000000E+00 -0.45593999997E+02  0.45594000000E+02  0.51100000000E-03 0.  1.
    9900012    2    1    2    0    0  0.65083710881E+00 -0.33096660037E+00  0.92732582068E+00  0.90007719944E+02  0.89999981047E+02 0.  0.
        -12    1    1    2    0    0 -0.65083710881E+00  0.33096660037E+00 -0.92732582068E+00  0.11802800559E+01  0.00000000000E+00 0.  1.
         11    1    3    3    0    0 -0.33680273854E+02  0.23636597493E+02 -0.37156226754E+01  0.41314107034E+02  0.51100000000E-03 0. -1.
        -11    1    3    3    0    0  0.51893409114E+01 -0.10037164965E+02 -0.81714439763E+01  0.13944405206E+02  0.51100000000E-03 0.  1.
        -12    1    3    3    0    0  0.29141770051E+02 -0.13930399129E+02  0.12814392472E+02  0.34749207704E+02  0.00000000000E+00 0.  1.
</event>
<event>
 7    1  0.4555057E-015  0.9000793E+02  0.7816164E-02  0.1186339E+00
        -11   -1    0    0    0    0  0.00000000000E+00  0.00000000000E+00  0.45593999997E+02  0.45594000000E+02  0.51100000000E-03 0. -1.
         11   -1    0    0    0    0 -0.00000000000E+00 -0.00000000000E+00 -0.45593999997E+02  0.45594000000E+02  0.51100000000E-03 0.  1.
    9900012    2    1    2    0    0  0.82020376534E+00 -0.72073195893E+00  0.44764722440E+00  0.90007925083E+02  0.90000188893E+02 0.  0.
        -12    1    1    2    0    0 -0.82020376534E+00  0.72073195893E+00 -0.44764722440E+00  0.11800749175E+01  0.00000000000E+00 0.  1.
         11    1    3    3    0    0  0.39172762467E+01  0.24641312282E+02 -0.25833106577E+02  0.35915020811E+02  0.51100000000E-03 0. -1.
        -11    1    3    3    0    0  0.56975564338E+01 -0.22980012008E+01 -0.90835332657E+01  0.10966017312E+02  0.51100000000E-03 0.  1.
        -12    1    3    3    0    0 -0.87946289151E+01 -0.23064043040E+02  0.35364287067E+02  0.43126886960E+02  0.00000000000E+00 0.  1.
</event>
<event>
 7    1  0.4555057E-015  0.9000768E+02  0.7816164E-02  0.1186339E+00
        -11   -1    0    0    0    0  0.00000000000E+00  0.00000000000E+00  0.45593999997E+02  0.45594000000E+02  0.51100000000E-03 0. -1.
         11   -1    0    0    0    0 -0.00000000000E+00 -0.00000000000E+00 -0.45593999997E+02  0.45594000000E+02  0.51100000000E-03 0.  1.
    9900012    2    1    2    0    0  0.39231769523E+00  0.78068684078E+00 -0.79357629404E+00  0.90007682902E+02  0.89999943516E+02 0.  0.
        -12    1    1    2    0    0 -0.39231769523E+00 -0.78068684078E+00  0.79357629404E+00  0.11803170980E+01  0.00000000000E+00 0.  1.
         11    1    3    3    0    0  0.33978127159E+02  0.50973156258E+01 -0.20332607000E+02  0.39923810683E+02  0.51100000000E-03 0. -1.
        -11    1    3    3    0    0  0.73290308396E+00  0.87261392382E+01  0.61086775883E+00  0.87781440302E+01  0.51100000000E-03 0.  1.
        -12    1    3    3    0    0 -0.34318712548E+02 -0.13042768023E+02  0.18928162947E+02  0.41305728188E+02  0.00000000000E+00 0.  1.
</event>
<event>
 7    1  0.4555057E-015  0.9000712E+02  0.7816164E-02  0.1186340E+00
        -11   -1    0    0    0    0  0.00000000000E+00  0.00000000000E+00  0.45593999997E+02  0.45594000000E+02  0.51100000000E-03 0. -1.
         11   -1    0    0    0    0 -0.00000000000E+00 -0.00000000000E+00 -0.45593999997E+02  0.45594000000E+02  0.51100000000E-03 0.  1.
    9900012    2    1    2    0    0  0.37784813336E+00 -0.75974837643E+00  0.82127651072E+00  0.90007118162E+02  0.89999371320E+02 0.  0.
        -12    1    1    2    0    0 -0.37784813336E+00  0.75974837643E+00 -0.82127651072E+00  0.11808818376E+01  0.00000000000E+00 0.  1.
         11    1    3    3    0    0  0.26017878878E+01  0.52263713522E+01  0.49249545806E+01  0.76380256353E+01  0.51100000000E-03 0. -1.
        -11    1    3    3    0    0 -0.53856679959E+01  0.35707176796E+02 -0.15089541738E+02  0.39136966728E+02  0.51100000000E-03 0.  1.
         12    1    3    3    0    0  0.31617282415E+01 -0.41693296525E+02  0.10985863668E+02  0.43232125799E+02  0.00000000000E+00 0. -1.
</event>
<event>
 7    1  0.4555057E-015  0.9000781E+02  0.7816164E-02  0.1186339E+00
        -11   -1    0    0    0    0  0.00000000000E+00  0.00000000000E+00  0.45593999997E+02  0.45594000000E+02  0.51100000000E-03 0. -1.
         11   -1    0    0    0    0 -0.00000000000E+00 -0.00000000000E+00 -0.45593999997E+02  0.45594000000E+02  0.51100000000E-03 0.  1.
    9900012    2    1    2    0    0 -0.69577768185E+00  0.74152591816E+00  0.59906437611E+00  0.90007811288E+02  0.90000073597E+02 0.  0.
        -12    1    1    2    0    0  0.69577768185E+00 -0.74152591816E+00 -0.59906437611E+00  0.11801887123E+01  0.00000000000E+00 0.  1.
         11    1    3    3    0    0 -0.13630042321E+02 -0.61002128868E+01  0.30027939525E+02  0.33536067201E+02  0.51100000000E-03 0. -1.
        -11    1    3    3    0    0  0.71845160893E+00  0.82432552325E+01  0.11255576123E+02  0.13969803995E+02  0.51100000000E-03 0.  1.
        -12    1    3    3    0    0  0.12215813030E+02 -0.14015164275E+01 -0.40684451272E+02  0.42501940092E+02  0.00000000000E+00 0.  1.
</event>
<event>
 7    1  0.4555057E-015  0.9000773E+02  0.7816164E-02  0.1186339E+00
        -11   -1    0    0    0    0  0.00000000000E+00  0.00000000000E+00  0.45593999997E+02  0.45594000000E+02  0.51100000000E-03 0.  1.
         11   -1    0    0    0    0 -0.00000000000E+00 -0.00000000000E+00 -0.45593999997E+02  0.45594000000E+02  0.51100000000E-03 0. -1.
    9900012    2    1    2    0    0  0.22507653121E+00  0.65819841396E-01 -0.11567377058E+01  0.90007731464E+02  0.89999992720E+02 0.  0.
        -12    1    1    2    0    0 -0.22507653121E+00 -0.65819841396E-01  0.11567377058E+01  0.11802685357E+01  0.00000000000E+00 0.  1.
         11    1    3    3    0    0 -0.27285567063E+02  0.15391960383E+01 -0.33879111125E+02  0.43527755114E+02  0.51100000000E-03 0. -1.
        -11    1    3    3    0    0  0.57764367195E+01 -0.66656450611E+01  0.30462945795E+01  0.93315570073E+01  0.51100000000E-03 0.  1.
        -12    1    3    3    0    0  0.21734206874E+02  0.51922688642E+01  0.29676078839E+02  0.37148419343E+02  0.00000000000E+00 0.  1.
</event>
<event>
 7    1  0.4555057E-015  0.9000775E+02  0.7816164E-02  0.1186339E+00
        -11   -1    0    0    0    0  0.00000000000E+00  0.00000000000E+00  0.45593999997E+02  0.45594000000E+02  0.51100000000E-03 0. -1.
         11   -1    0    0    0    0 -0.00000000000E+00 -0.00000000000E+00 -0.45593999997E+02  0.45594000000E+02  0.51100000000E-03 0.  1.
    9900012    2    1    2    0    0  0.59791489899E-01  0.62487327217E-01  0.11770765946E+01  0.90007750451E+02  0.90000011957E+02 0.  0.
        -12    1    1    2    0    0 -0.59791489899E-01 -0.62487327217E-01 -0.11770765946E+01  0.11802495490E+01  0.00000000000E+00 0.  1.
         11    1    3    3    0    0  0.27164049673E+02  0.28252063223E+02 -0.16654565734E+02  0.42584495195E+02  0.51100000000E-03 0. -1.
        -11    1    3    3    0    0 -0.12205556901E+01 -0.36858693412E+01  0.10280835315E+02  0.10989584342E+02  0.51100000000E-03 0.  1.
        -12    1    3    3    0    0 -0.25883702493E+02 -0.24503706555E+02  0.75508070135E+01  0.36433670913E+02  0.00000000000E+00 0.  1.
</event>
<event>
 7    1  0.4555057E-015  0.9000754E+02  0.7816164E-02  0.1186339E+00
        -11   -1    0    0    0    0  0.00000000000E+00  0.00000000000E+00  0.45593999997E+02  0.45594000000E+02  0.51100000000E-03 0.  1.
         11   -1    0    0    0    0 -0.00000000000E+00 -0.00000000000E+00 -0.45593999997E+02  0.45594000000E+02  0.51100000000E-03 0. -1.
    9900012    2    1    2    0    0 -0.37826829286E+00  0.38886520285E+00 -0.10484218196E+01  0.90007537650E+02  0.89999796347E+02 0.  0.
        -12    1    1    2    0    0  0.37826829286E+00 -0.38886520285E+00  0.10484218196E+01  0.11804623497E+01  0.00000000000E+00 0.  1.
         11    1    3    3    0    0  0.30557939955E+02  0.22298446050E+02 -0.33818552576E+01  0.37979538383E+02  0.51100000000E-03 0. -1.
        -11    1    3    3    0    0  0.29068690248E+01  0.22145099969E+01  0.92039251723E+01  0.99028370123E+01  0.51100000000E-03 0.  1.
        -12    1    3    3    0    0 -0.33843077273E+02 -0.24124090844E+02 -0.68704917343E+01  0.42125162255E+02  0.00000000000E+00 0.  1.
</event>
<event>
 7    1  0.4555057E-015  0.9000759E+02  0.7816164E-02  0.1186339E+00
        -11   -1    0    0    0    0  0.00000000000E+00  0.00000000000E+00  0.45593999997E+02  0.45594000000E+02  0.51100000000E-03 0. -1.
         11   -1    0    0    0    0 -0.00000000000E+00 -0.00000000000E+00 -0.45593999997E+02  0.45594000000E+02  0.51100000000E-03 0.  1.
    9900012    2    1    2    0    0  0.67056191279E+00  0.75106133511E+00  0.61612526157E+00  0.90007594669E+02  0.89999854118E+02 0.  0.
        -12    1    1    2    0    0 -0.67056191279E+00 -0.75106133511E+00 -0.61612526157E+00  0.11804053312E+01  0.00000000000E+00 0.  1.
         11    1    3    3    0    0  0.97561613570E+01  0.44052636557E+01 -0.17683772114E+01  0.10849709237E+02  0.51100000000E-03 0. -1.
        -11    1    3    3    0    0  0.36944990377E+01  0.32667527045E+02  0.18147269103E+02  0.37551831147E+02  0.51100000000E-03 0.  1.
         12    1    3    3    0    0 -0.12780098482E+02 -0.36321729366E+02 -0.15762766630E+02  0.41606054285E+02  0.00000000000E+00 0. -1.
</event>
<event>
 7    1  0.4555057E-015  0.9000779E+02  0.7816164E-02  0.1186339E+00
        -11   -1    0    0    0    0  0.00000000000E+00  0.00000000000E+00  0.45593999997E+02  0.45594000000E+02  0.51100000000E-03 0.  1.
         11   -1    0    0    0    0 -0.00000000000E+00 -0.00000000000E+00 -0.45593999997E+02  0.45594000000E+02  0.51100000000E-03 0. -1.
    9900012    2    1    2    0    0  0.11671340262E+01  0.17412737954E+00 -0.19575624412E-01  0.90007785873E+02  0.90000047847E+02 0.  0.
        -12    1    1    2    0    0 -0.11671340262E+01 -0.17412737954E+00  0.19575624412E-01  0.11802141265E+01  0.00000000000E+00 0.  1.
         11    1    3    3    0    0 -0.10614648496E+01 -0.10431018378E+02 -0.16572463439E+00  0.10486196495E+02  0.51100000000E-03 0. -1.
        -11    1    3    3    0    0 -0.17899357868E+02  0.35351264881E+02  0.17376471048E+02  0.43267085494E+02  0.51100000000E-03 0.  1.
         12    1    3    3    0    0  0.20127956744E+02 -0.24746119124E+02 -0.17230322038E+02  0.36254503885E+02  0.00000000000E+00 0. -1.
</event>
<event>
 7    1  0.4555057E-015  0.9000772E+02  0.7816164E-02  0.1186339E+00
        -11   -1    0    0    0    0  0.00000000000E+00  0.00000000000E+00  0.45593999997E+02  0.45594000000E+02  0.51100000000E-03 0. -1.
         11   -1    0    0    0    0 -0.00000000000E+00 -0.00000000000E+00 -0.45593999997E+02  0.45594000000E+02  0.51100000000E-03 0.  1.
    9900012    2    1    2    0    0  0.80745999658E+00 -0.70363437406E+00  0.49594259256E+00  0.90007723747E+02  0.89999984900E+02 0.  0.
        -12    1    1    2    0    0 -0.80745999658E+00  0.70363437406E+00 -0.49594259256E+00  0.11802762531E+01  0.00000000000E+00 0.  1.
         11    1    3    3    0    0 -0.84331650744E+01 -0.10836922628E+02  0.25464872365E+01  0.13965735309E+02  0.51100000000E-03 0. -1.
        -11    1    3    3    0    0  0.18577121515E+02 -0.28235589568E+02 -0.11015672311E+02  0.35548600518E+02  0.51100000000E-03 0.  1.
         12    1    3    3    0    0 -0.93364964445E+01  0.38368877822E+02  0.89651276675E+01  0.40493387920E+02  0.00000000000E+00 0. -1.
</event>
<event>
 7    1  0.4555057E-015  0.9000779E+02  0.7816164E-02  0.1186339E+00
        -11   -1    0    0    0    0  0.00000000000E+00  0.00000000000E+00  0.45593999997E+02  0.45594000000E+02  0.51100000000E-03 0.  1.
         11   -1    0    0    0    0 -0.00000000000E+00 -0.00000000000E+00 -0.45593999997E+02  0.45594000000E+02  0.51100000000E-03 0. -1.
    9900012    2    1    2    0    0  0.71633177478E+00 -0.60703908552E+00  0.71502589698E+00  0.90007792520E+02  0.90000054581E+02 0.  0.
        -12    1    1    2    0    0 -0.71633177478E+00  0.60703908552E+00 -0.71502589698E+00  0.11802074802E+01  0.00000000000E+00 0.  1.
         11    1    3    3    0    0  0.27278228485E+02  0.32511066455E+02  0.13228139652E+02  0.44452838720E+02  0.51100000000E-03 0. -1.
        -11    1    3    3    0    0 -0.67178073292E+01 -0.29415814316E+01 -0.43521367436E+01  0.85277741015E+01  0.51100000000E-03 0.  1.
        -12    1    3    3    0    0 -0.19844089381E+02 -0.30176524109E+02 -0.81609770111E+01  0.37027179699E+02  0.00000000000E+00 0.  1.
</event>
<event>
 7    1  0.4555057E-015  0.9000776E+02  0.7816164E-02  0.1186339E+00
        -11   -1    0    0    0    0  0.00000000000E+00  0.00000000000E+00  0.45593999997E+02  0.45594000000E+02  0.51100000000E-03 0.  1.
         11   -1    0    0    0    0 -0.00000000000E+00 -0.00000000000E+00 -0.45593999997E+02  0.45594000000E+02  0.51100000000E-03 0. -1.
    9900012    2    1    2    0    0  0.79119627855E-01  0.94138237680E+00 -0.70747130974E+00  0.90007755810E+02  0.90000017386E+02 0.  0.
        -12    1    1    2    0    0 -0.79119627855E-01 -0.94138237680E+00  0.70747130974E+00  0.11802441904E+01  0.00000000000E+00 0.  1.
         11    1    3    3    0    0 -0.93263022723E+01  0.84031058859E+00  0.47450262176E+00  0.93760966804E+01  0.51100000000E-03 0. -1.
        -11    1    3    3    0    0 -0.33102358664E+02 -0.93382104742E+01  0.97258847019E+01  0.35742987529E+02  0.51100000000E-03 0.  1.
         12    1    3    3    0    0  0.42507780564E+02  0.94392822624E+01 -0.10907858633E+02  0.44888671601E+02  0.00000000000E+00 0. -1.
</event>
<event>
 7    1  0.4555057E-015  0.9000772E+02  0.7816164E-02  0.1186339E+00
        -11   -1    0    0    0    0  0.00000000000E+00  0.00000000000E+00  0.45593999997E+02  0.45594000000E+02  0.51100000000E-03 0. -1.
         11   -1    0    0    0    0 -0.00000000000E+00 -0.00000000000E+00 -0.45593999997E+02  0.45594000000E+02  0.51100000000E-03 0.  1.
    9900012    2    1    2    0    0 -0.93063966209E+00 -0.55524748795E+00 -0.46763022509E+00  0.90007716991E+02  0.89999978055E+02 0.  0.
        -12    1    1    2    0    0  0.93063966209E+00  0.55524748795E+00  0.46763022509E+00  0.11802830088E+01  0.00000000000E+00 0.  1.
         11    1    3    3    0    0 -0.20570729018E+02  0.35517855285E+02  0.26465094809E+01  0.41130000596E+02  0.51100000000E-03 0. -1.
        -11    1    3    3    0    0 -0.39294295338E+01 -0.19978888242E+01 -0.58848601244E+01  0.73527923376E+01  0.51100000000E-03 0.  1.
        -12    1    3    3    0    0  0.23569518890E+02 -0.34075213948E+02  0.27707204184E+01  0.41524924057E+02  0.00000000000E+00 0.  1.
</event>
<event>
 7    1  0.4555057E-015  0.9000777E+02  0.7816164E-02  0.1186339E+00
        -11   -1    0    0    0    0  0.00000000000E+00  0.00000000000E+00  0.45593999997E+02  0.45594000000E+02  0.51100000000E-03 0.  1.
         11   -1    0    0    0    0 -0.00000000000E+00 -0.00000000000E+00 -0.45593999997E+02  0.45594000000E+02  0.51100000000E-03 0. -1.
    9900012    2    1    2    0    0 -0.45544422358E+00  0.43404791554E+00 -0.99856103679E+00  0.90007766473E+02  0.90000028191E+02 0.  0.
        -12    1    1    2    0    0  0.45544422358E+00 -0.43404791554E+00  0.99856103679E+00  0.11802335269E+01  0.00000000000E+00 0.  1.
         11    1    3    3    0    0  0.33548814950E+02  0.22749499185E+01 -0.14320095235E+02  0.36548098575E+02  0.51100000000E-03 0. -1.
        -11    1    3    3    0    0 -0.41449296271E+01 -0.13044387783E+02 -0.72696860343E+01  0.15497897585E+02  0.51100000000E-03 0.  1.
        -12    1    3    3    0    0 -0.29859329546E+02  0.11203485780E+02  0.20591220233E+02  0.37961770313E+02  0.00000000000E+00 0.  1.
</event>
<event>
 7    1  0.4555057E-015  0.9000772E+02  0.7816164E-02  0.1186339E+00
        -11   -1    0    0    0    0  0.00000000000E+00  0.00000000000E+00  0.45593999997E+02  0.45594000000E+02  0.51100000000E-03 0.  1.
         11   -1    0    0    0    0 -0.00000000000E+00 -0.00000000000E+00 -0.45593999997E+02  0.45594000000E+02  0.51100000000E-03 0. -1.
    9900012    2    1    2    0    0 -0.11700223645E+01  0.10265788984E+00 -0.11646708907E+00  0.90007722254E+02  0.89999983387E+02 0.  0.
        -12    1    1    2    0    0  0.11700223645E+01 -0.10265788984E+00  0.11646708907E+00  0.11802777464E+01  0.00000000000E+00 0.  1.
         11    1    3    3    0    0 -0.35872653912E+01  0.25097358690E+01 -0.72372298177E+01  0.84584125469E+01  0.51100000000E-03 0. -1.
        -11    1    3    3    0    0 -0.12184986569E+02 -0.14623333364E+01  0.41983374192E+02  0.43740324933E+02  0.51100000000E-03 0.  1.
         12    1    3    3    0    0  0.14602229595E+02 -0.94474464285E+00 -0.34862611463E+02  0.37808984774E+02  0.00000000000E+00 0. -1.
</event>
<event>
 7    1  0.4555057E-015  0.9000767E+02  0.7816164E-02  0.1186339E+00
        -11   -1    0    0    0    0  0.00000000000E+00  0.00000000000E+00  0.45593999997E+02  0.45594000000E+02  0.51100000000E-03 0.  1.
         11   -1    0    0    0    0 -0.00000000000E+00 -0.00000000000E+00 -0.45593999997E+02  0.45594000000E+02  0.51100000000E-03 0. -1.
    9900012    2    1    2    0    0  0.10067078211E+01 -0.59122537580E+00 -0.17371552437E+00  0.90007667350E+02  0.89999927759E+02 0.  0.
        -12    1    1    2    0    0 -0.10067078211E+01  0.59122537580E+00  0.17371552437E+00  0.11803326503E+01  0.00000000000E+00 0.  1.
         11    1    3    3    0    0  0.79474058851E+01  0.30949673294E+01 -0.30681193245E+01  0.90638534588E+01  0.51100000000E-03 0. -1.
        -11    1    3    3    0    0  0.35792170870E+02 -0.63053424722E+01  0.96460925556E+01  0.37601648118E+02  0.51100000000E-03 0.  1.
         12    1    3    3    0    0 -0.42732868934E+02  0.26191497670E+01 -0.67516887554E+01  0.43342165773E+02  0.00000000000E+00 0. -1.
</event>
<event>
 7    1  0.4555057E-015  0.9000840E+02  0.7816164E-02  0.1186338E+00
        -11   -1    0    0    0    0  0.00000000000E+00  0.00000000000E+00  0.45593999997E+02  0.45594000000E+02  0.51100000000E-03 0.  1.
         11   -1    0    0    0    0 -0.00000000000E+00 -0.00000000000E+00 -0.45593999997E+02  0.45594000000E+02  0.51100000000E-03 0. -1.
    9900012    2    1    2    0    0 -0.37373616869E+00 -0.45672056167E+00 -0.10213679115E+01  0.90008396335E+02  0.90000666364E+02 0.  0.
        -12    1    1    2    0    0  0.37373616869E+00  0.45672056167E+00  0.10213679115E+01  0.11796036647E+01  0.00000000000E+00 0.  1.
         11    1    3    3    0    0  0.12100576334E+02 -0.80412295446E+01 -0.32732033627E+02  0.35811609093E+02  0.51100000000E-03 0. -1.
        -11    1    3    3    0    0 -0.21941685888E+00 -0.28876565293E+01 -0.95074143777E+01  0.99386936968E+01  0.51100000000E-03 0.  1.
        -12    1    3    3    0    0 -0.12254895644E+02  0.10472165512E+02  0.41218080093E+02  0.44258093546E+02  0.00000000000E+00 0.  1.
</event>
<event>
 7    1  0.4555057E-015  0.9000774E+02  0.7816164E-02  0.1186339E+00
        -11   -1    0    0    0    0  0.00000000000E+00  0.00000000000E+00  0.45593999997E+02  0.45594000000E+02  0.51100000000E-03 0. -1.
         11   -1    0    0    0    0 -0.00000000000E+00 -0.00000000000E+00 -0.45593999997E+02  0.45594000000E+02  0.51100000000E-03 0.  1.
    9900012    2    1    2    0    0  0.34306901260E+00  0.14976172019E+00  0.11193203701E+01  0.90007744514E+02  0.90000005942E+02 0.  0.
        -12    1    1    2    0    0 -0.34306901260E+00 -0.14976172019E+00 -0.11193203701E+01  0.11802554856E+01  0.00000000000E+00 0.  1.
         11    1    3    3    0    0  0.16587412537E+02  0.27126721560E+01  0.36197747467E+02  0.39909619978E+02  0.51100000000E-03 0. -1.
        -11    1    3    3    0    0  0.78345452711E+00  0.15433138145E+00  0.57356854093E+01  0.57910022058E+01  0.51100000000E-03 0.  1.
        -12    1    3    3    0    0 -0.17027798051E+02 -0.27172418173E+01 -0.40814112506E+02  0.44307122330E+02  0.00000000000E+00 0.  1.
</event>
<event>
 7    1  0.4555057E-015  0.9000785E+02  0.7816164E-02  0.1186339E+00
        -11   -1    0    0    0    0  0.00000000000E+00  0.00000000000E+00  0.45593999997E+02  0.45594000000E+02  0.51100000000E-03 0.  1.
         11   -1    0    0    0    0 -0.00000000000E+00 -0.00000000000E+00 -0.45593999997E+02  0.45594000000E+02  0.51100000000E-03 0. -1.
    9900012    2    1    2    0    0 -0.88328094749E+00  0.44182004556E+00 -0.64603908548E+00  0.90007848872E+02  0.90000111677E+02 0.  0.
        -12    1    1    2    0    0  0.88328094749E+00 -0.44182004556E+00  0.64603908548E+00  0.11801511280E+01  0.00000000000E+00 0.  1.
         11    1    3    3    0    0 -0.65199404133E+01 -0.45577722060E+01  0.60828256006E+01  0.10014173856E+02  0.51100000000E-03 0. -1.
        -11    1    3    3    0    0  0.36945755468E+02  0.22801624223E+02 -0.34998109871E+00  0.43416879221E+02  0.51100000000E-03 0.  1.
         12    1    3    3    0    0 -0.31309096002E+02 -0.17802031971E+02 -0.63788835873E+01  0.36576795794E+02  0.00000000000E+00 0. -1.
</event>
<event>
 7    1  0.4555057E-015  0.9000785E+02  0.7816164E-02  0.1186339E+00
        -11   -1    0    0    0    0  0.00000000000E+00  0.00000000000E+00  0.45593999997E+02  0.45594000000E+02  0.51100000000E-03 0. -1.
         11   -1    0    0    0    0 -0.00000000000E+00 -0.00000000000E+00 -0.45593999997E+02  0.45594000000E+02  0.51100000000E-03 0.  1.
    9900012    2    1    2    0    0 -0.23355538069E+00  0.41086603009E+00  0.10813811413E+01  0.90007854169E+02  0.90000117044E+02 0.  0.
        -12    1    1    2    0    0  0.23355538069E+00 -0.41086603009E+00 -0.10813811413E+01  0.11801458314E+01  0.00000000000E+00 0.  1.
         11    1    3    3    0    0 -0.27986665379E+01 -0.49019724863E+01 -0.84667252033E+01  0.10175819602E+02  0.51100000000E-03 0. -1.
        -11    1    3    3    0    0  0.34761240680E+02  0.61235793624E+01 -0.15970380747E+02  0.38741387937E+02  0.51100000000E-03 0.  1.
         12    1    3    3    0    0 -0.32196129523E+02 -0.81074084597E+00  0.25518487092E+02  0.41090646629E+02  0.00000000000E+00 0. -1.
</event>
<event>
 7    1  0.4555057E-015  0.9000767E+02  0.7816164E-02  0.1186339E+00
        -11   -1    0    0    0    0  0.00000000000E+00  0.00000000000E+00  0.45593999997E+02  0.45594000000E+02  0.51100000000E-03 0. -1.
         11   -1    0    0    0    0 -0.00000000000E+00 -0.00000000000E+00 -0.45593999997E+02  0.45594000000E+02  0.51100000000E-03 0.  1.
    9900012    2    1    2    0    0  0.33830856511E+00 -0.90369169930E+00  0.67975260758E+00  0.90007671664E+02  0.89999932130E+02 0.  0.
        -12    1    1    2    0    0 -0.33830856511E+00  0.90369169930E+00 -0.67975260758E+00  0.11803283357E+01  0.00000000000E+00 0.  1.
         11    1    3    3    0    0 -0.34477771521E+02  0.95043464856E+01  0.18342216448E+02  0.40193111794E+02  0.51100000000E-03 0. -1.
        -11    1    3    3    0    0  0.36561147508E+01 -0.57982617725E+00  0.76400165533E+01  0.84895952002E+01  0.51100000000E-03 0.  1.
        -12    1    3    3    0    0  0.31159965335E+02 -0.98282120077E+01 -0.25302480394E+02  0.41324964671E+02  0.00000000000E+00 0.  1.
</event>
<event>
 7    1  0.4555057E-015  0.9000768E+02  0.7816164E-02  0.1186339E+00
        -11   -1    0    0    0    0  0.00000000000E+00  0.00000000000E+00  0.45593999997E+02  0.45594000000E+02  0.51100000000E-03 0. -1.
         11   -1    0    0    0    0 -0.00000000000E+00 -0.00000000000E+00 -0.45593999997E+02  0.45594000000E+02  0.51100000000E-03 0.  1.
    9900012    2    1    2    0    0 -0.67641267172E+00  0.94521372912E+00  0.20538363802E+00  0.90007684138E+02  0.89999944768E+02 0.  0.
        -12    1    1    2    0    0  0.67641267172E+00 -0.94521372912E+00 -0.20538363802E+00  0.11803158624E+01  0.00000000000E+00 0.  1.
         11    1    3    3    0    0  0.64600981893E+01 -0.34121698480E+02  0.98980137723E+00  0.34741947021E+02  0.51100000000E-03 0. -1.
        -11    1    3    3    0    0  0.37611904376E+01 -0.88846772979E+01  0.21628141632E+01  0.98874571838E+01  0.51100000000E-03 0.  1.
        -12    1    3    3    0    0 -0.10897701299E+02  0.43951589507E+02 -0.29472319024E+01  0.45378279933E+02  0.00000000000E+00 0.  1.
</event>
<event>
 7    1  0.4555057E-015  0.9000770E+02  0.7816164E-02  0.1186339E+00
        -11   -1    0    0    0    0  0.00000000000E+00  0.00000000000E+00  0.45593999997E+02  0.45594000000E+02  0.51100000000E-03 0. -1.
         11   -1    0    0    0    0 -0.00000000000E+00 -0.00000000000E+00 -0.45593999997E+02  0.45594000000E+02  0.51100000000E-03 0.  1.
    9900012    2    1    2    0    0  0.23929004481E+00  0.49267213398E+00  0.10455207052E+01  0.90007703807E+02  0.89999964698E+02 0.  0.
        -12    1    1    2    0    0 -0.23929004481E+00 -0.49267213398E+00 -0.10455207052E+01  0.11802961925E+01  0.00000000000E+00 0.  1.
         11    1    3    3    0    0 -0.40155100542E+02  0.84161963946E+01  0.52033572856E+01  0.41356249692E+02  0.51100000000E-03 0. -1.
        -11    1    3    3    0    0  0.74561772759E+01 -0.69955733833E+01  0.85566645859E+01  0.13332259209E+02  0.51100000000E-03 0.  1.
        -12    1    3    3    0    0  0.32938213311E+02 -0.92795087728E+00 -0.12714501166E+02  0.35319194906E+02  0.00000000000E+00 0.  1.
</event>
<event>
 7    1  0.4555057E-015  0.9000775E+02  0.7816164E-02  0.1186339E+00
        -11   -1    0    0    0    0  0.00000000000E+00  0.00000000000E+00  0.45593999997E+02  0.45594000000E+02  0.51100000000E-03 0.  1.
         11   -1    0    0    0    0 -0.00000000000E+00 -0.00000000000E+00 -0.45593999997E+02  0.45594000000E+02  0.51100000000E-03 0. -1.
    9900012    2    1    2    0    0 -0.80030295501E+00  0.65264603608E+00 -0.57145033858E+00  0.90007751231E+02  0.90000012747E+02 0.  0.
        -12    1    1    2    0    0  0.80030295501E+00 -0.65264603608E+00  0.57145033858E+00  0.11802487694E+01  0.00000000000E+00 0.  1.
         11    1    3    3    0    0 -0.48654061692E+01 -0.69189640937E+01 -0.45338323673E+01  0.95968681098E+01  0.51100000000E-03 0. -1.
        -11    1    3    3    0    0 -0.34248567821E+02 -0.97350725704E+01 -0.84138139061E+01  0.36585903029E+02  0.51100000000E-03 0.  1.
         12    1    3    3    0    0  0.38313671035E+02  0.17306682700E+02  0.12376195935E+02  0.43824980092E+02  0.00000000000E+00 0. -1.
</event>
<event>
 7    1  0.4555057E-015  0.9000777E+02  0.7816164E-02  0.1186339E+00
        -11   -1    0    0    0    0  0.00000000000E+00  0.00000000000E+00  0.45593999997E+02  0.45594000000E+02  0.51100000000E-03 0.  1.
         11   -1    0    0    0    0 -0.00000000000E+00 -0.00000000000E+00 -0.45593999997E+02  0.45594000000E+02  0.51100000000E-03 0. -1.
    9900012    2    1    2    0    0 -0.10182055466E+00 -0.56184362935E+00 -0.10329173682E+01  0.90007765287E+02  0.90000026988E+02 0.  0.
        -12    1    1    2    0    0  0.10182055466E+00  0.56184362935E+00  0.10329173682E+01  0.11802347134E+01  0.00000000000E+00 0.  1.
         11    1    3    3    0    0 -0.33888808370E+02  0.23295296448E+02 -0.13402831625E+01  0.41145091184E+02  0.51100000000E-03 0. -1.
        -11    1    3    3    0    0 -0.19881029770E+01 -0.96155486741E+01 -0.28601904928E+01  0.10227023989E+02  0.51100000000E-03 0.  1.
        -12    1    3    3    0    0  0.35775090792E+02 -0.14241591403E+02  0.31675562871E+01  0.38635650114E+02  0.00000000000E+00 0.  1.
</event>
<event>
 7    1  0.4555057E-015  0.9000775E+02  0.7816164E-02  0.1186339E+00
        -11   -1    0    0    0    0  0.00000000000E+00  0.00000000000E+00  0.45593999997E+02  0.45594000000E+02  0.51100000000E-03 0. -1.
         11   -1    0    0    0    0 -0.00000000000E+00 -0.00000000000E+00 -0.45593999997E+02  0.45594000000E+02  0.51100000000E-03 0.  1.
    9900012    2    1    2    0    0  0.11406070372E+01  0.22745908150E+00  0.20069107911E+00  0.90007746232E+02  0.90000007682E+02 0.  0.
        -12    1    1    2    0    0 -0.11406070372E+01 -0.22745908150E+00 -0.20069107911E+00  0.11802537678E+01  0.00000000000E+00 0.  1.
         11    1    3    3    0    0  0.34434299846E+01 -0.59998901801E+01 -0.58280263301E+01  0.90455394199E+01  0.51100000000E-03 0. -1.
        -11    1    3    3    0    0 -0.22930124825E+02 -0.16351977887E+02 -0.24808085601E+02  0.37531572266E+02  0.51100000000E-03 0.  1.
         12    1    3    3    0    0  0.20627301878E+02  0.22579327149E+02  0.30836803010E+02  0.43430634546E+02  0.00000000000E+00 0. -1.
</event>
<event>
 7    1  0.4555057E-015  0.9000773E+02  0.7816164E-02  0.1186339E+00
        -11   -1    0    0    0    0  0.00000000000E+00  0.00000000000E+00  0.45593999997E+02  0.45594000000E+02  0.51100000000E-03 0.  1.
         11   -1    0    0    0    0 -0.00000000000E+00 -0.00000000000E+00 -0.45593999997E+02  0.45594000000E+02  0.51100000000E-03 0. -1.
    9900012    2    1    2    0    0  0.58591797193E-01 -0.11648853632E+01  0.18069124546E+00  0.90007728745E+02  0.89999989965E+02 0.  0.
        -12    1    1    2    0    0 -0.58591797193E-01  0.11648853632E+01 -0.18069124546E+00  0.11802712546E+01  0.00000000000E+00 0.  1.
         11    1    3    3    0    0  0.62636070271E+01  0.46512519398E+00  0.63137462934E+01  0.89057569557E+01  0.51100000000E-03 0. -1.
        -11    1    3    3    0    0  0.22786476453E+02 -0.25397551043E+02  0.15871993659E+02  0.37632157673E+02  0.51100000000E-03 0.  1.
         12    1    3    3    0    0 -0.28991491683E+02  0.23767540486E+02 -0.22005048707E+02  0.43469814117E+02  0.00000000000E+00 0. -1.
</event>
<event>
 7    1  0.4555057E-015  0.9000747E+02  0.7816164E-02  0.1186340E+00
        -11   -1    0    0    0    0  0.00000000000E+00  0.00000000000E+00  0.45593999997E+02  0.45594000000E+02  0.51100000000E-03 0. -1.
         11   -1    0    0    0    0 -0.00000000000E+00 -0.00000000000E+00 -0.45593999997E+02  0.45594000000E+02  0.51100000000E-03 0.  1.
    9900012    2    1    2    0    0  0.97011857190E-01 -0.94772404674E+00  0.69718457704E+00  0.90007466856E+02  0.89999724618E+02 0.  0.
        -12    1    1    2    0    0 -0.97011857190E-01  0.94772404674E+00 -0.69718457704E+00  0.11805331438E+01  0.00000000000E+00 0.  1.
         11    1    3    3    0    0  0.90686641092E+01  0.10514939881E+02  0.20984096127E+02  0.25162212144E+02  0.51100000000E-03 0. -1.
        -11    1    3    3    0    0 -0.68101756881E+01  0.23750107826E+02 -0.12057132274E+01  0.24736609697E+02  0.51100000000E-03 0.  1.
        -12    1    3    3    0    0 -0.21614765639E+01 -0.35212771754E+02 -0.19081198323E+02  0.40108645015E+02  0.00000000000E+00 0.  1.
</event>
<event>
 7    1  0.4555057E-015  0.9000772E+02  0.7816164E-02  0.1186339E+00
        -11   -1    0    0    0    0  0.00000000000E+00  0.00000000000E+00  0.45593999997E+02  0.45594000000E+02  0.51100000000E-03 0.  1.
         11   -1    0    0    0    0 -0.00000000000E+00 -0.00000000000E+00 -0.45593999997E+02  0.45594000000E+02  0.51100000000E-03 0. -1.
    9900012    2    1    2    0    0  0.28515423735E+00 -0.66016764436E+00 -0.93590335644E+00  0.90007724884E+02  0.89999986052E+02 0.  0.
        -12    1    1    2    0    0 -0.28515423735E+00  0.66016764436E+00  0.93590335644E+00  0.11802751164E+01  0.00000000000E+00 0.  1.
         11    1    3    3    0    0  0.13556666083E+02 -0.28820915449E+02 -0.18421510462E+02  0.36793755049E+02  0.51100000000E-03 0. -1.
        -11    1    3    3    0    0  0.17682387633E+01 -0.86133943832E+01 -0.19156300564E+01  0.89992705204E+01  0.51100000000E-03 0.  1.
        -12    1    3    3    0    0 -0.15039750609E+02  0.36774142188E+02  0.19401237162E+02  0.44214699314E+02  0.00000000000E+00 0.  1.
</event>
<event>
 7    1  0.4555057E-015  0.9000783E+02  0.7816164E-02  0.1186339E+00
        -11   -1    0    0    0    0  0.00000000000E+00  0.00000000000E+00  0.45593999997E+02  0.45594000000E+02  0.51100000000E-03 0.  1.
         11   -1    0    0    0    0 -0.00000000000E+00 -0.00000000000E+00 -0.45593999997E+02  0.45594000000E+02  0.51100000000E-03 0. -1.
    9900012    2    1    2    0    0 -0.11238356402E+01  0.52013250279E-01 -0.35650642753E+00  0.90007826810E+02  0.90000089324E+02 0.  0.
        -12    1    1    2    0    0  0.11238356402E+01 -0.52013250279E-01  0.35650642753E+00  0.11801731895E+01  0.00000000000E+00 0.  1.
         11    1    3    3    0    0  0.20895531105E+02  0.14081565301E+02  0.16507201336E+01  0.25251506464E+02  0.51100000000E-03 0. -1.
        -11    1    3    3    0    0 -0.17996657961E+02  0.21658960989E+02 -0.54308732606E+01  0.28678993593E+02  0.51100000000E-03 0.  1.
        -12    1    3    3    0    0 -0.40227087841E+01 -0.35688513040E+02  0.34236466995E+01  0.36077326753E+02  0.00000000000E+00 0.  1.
</event>
<event>
 7    1  0.4555057E-015  0.9000772E+02  0.7816164E-02  0.1186339E+00
        -11   -1    0    0    0    0  0.00000000000E+00  0.00000000000E+00  0.45593999997E+02  0.45594000000E+02  0.51100000000E-03 0.  1.
         11   -1    0    0    0    0 -0.00000000000E+00 -0.00000000000E+00 -0.45593999997E+02  0.45594000000E+02  0.51100000000E-03 0. -1.
    9900012    2    1    2    0    0 -0.11600360893E+01  0.21732213501E+00 -0.12541333821E-01  0.90007716168E+02  0.89999977222E+02 0.  0.
        -12    1    1    2    0    0  0.11600360893E+01 -0.21732213501E+00  0.12541333821E-01  0.11802838319E+01  0.00000000000E+00 0.  1.
         11    1    3    3    0    0 -0.58448461045E+01 -0.67555845113E+01  0.49238248108E+00  0.89466523820E+01  0.51100000000E-03 0. -1.
        -11    1    3    3    0    0  0.14925610464E+02 -0.34798944133E+02  0.25011757683E+01  0.37947282392E+02  0.51100000000E-03 0.  1.
         12    1    3    3    0    0 -0.10240800448E+02  0.41771850779E+02 -0.30060995832E+01  0.43113781394E+02  0.00000000000E+00 0. -1.
</event>
<event>
 7    1  0.4555057E-015  0.9000763E+02  0.7816164E-02  0.1186339E+00
        -11   -1    0    0    0    0  0.00000000000E+00  0.00000000000E+00  0.45593999997E+02  0.45594000000E+02  0.51100000000E-03 0.  1.
         11   -1    0    0    0    0 -0.00000000000E+00 -0.00000000000E+00 -0.45593999997E+02  0.45594000000E+02  0.51100000000E-03 0. -1.
    9900012    2    1    2    0    0  0.37415666025E+00  0.97263789951E+00 -0.55430793081E+00  0.90007629307E+02  0.89999889214E+02 0.  0.
        -12    1    1    2    0    0 -0.37415666025E+00 -0.97263789951E+00  0.55430793081E+00  0.11803706927E+01  0.00000000000E+00 0.  1.
         11    1    3    3    0    0 -0.23943675339E+01  0.25833341191E+01  0.78345239767E+01  0.85898997236E+01  0.51100000000E-03 0. -1.
        -11    1    3    3    0    0  0.17430022961E+02 -0.40935382014E+01  0.32942030277E+02  0.37493200909E+02  0.51100000000E-03 0.  1.
         12    1    3    3    0    0 -0.14661498767E+02  0.24828419818E+01 -0.41330862184E+02  0.43924528674E+02  0.00000000000E+00 0. -1.
</event>
<event>
 7    1  0.4555057E-015  0.9000789E+02  0.7816164E-02  0.1186339E+00
        -11   -1    0    0    0    0  0.00000000000E+00  0.00000000000E+00  0.45593999997E+02  0.45594000000E+02  0.51100000000E-03 0.  1.
         11   -1    0    0    0    0 -0.00000000000E+00 -0.00000000000E+00 -0.45593999997E+02  0.45594000000E+02  0.51100000000E-03 0. -1.
    9900012    2    1    2    0    0  0.62274941184E+00  0.70265513814E+00 -0.71492454860E+00  0.90007890605E+02  0.90000153961E+02 0.  0.
        -12    1    1    2    0    0 -0.62274941184E+00 -0.70265513814E+00  0.71492454860E+00  0.11801093946E+01  0.00000000000E+00 0.  1.
         11    1    3    3    0    0 -0.49353405367E+01  0.52205668992E+01  0.83802638634E+01  0.11038148742E+02  0.51100000000E-03 0. -1.
        -11    1    3    3    0    0  0.17552454250E+02  0.31622741546E+02  0.82968599840E+01  0.37106930875E+02  0.51100000000E-03 0.  1.
         12    1    3    3    0    0 -0.11994364302E+02 -0.36140653307E+02 -0.17392048396E+02  0.41862810989E+02  0.00000000000E+00 0. -1.
</event>
<event>
 7    1  0.4555057E-015  0.9000735E+02  0.7816164E-02  0.1186340E+00
        -11   -1    0    0    0    0  0.00000000000E+00  0.00000000000E+00  0.45593999997E+02  0.45594000000E+02  0.51100000000E-03 0.  1.
         11   -1    0    0    0    0 -0.00000000000E+00 -0.00000000000E+00 -0.45593999997E+02  0.45594000000E+02  0.51100000000E-03 0. -1.
    9900012    2    1    2    0    0 -0.10139070001E+01 -0.57562458596E+00 -0.18599232560E+00  0.90007345853E+02  0.89999602018E+02 0.  0.
        -12    1    1    2    0    0  0.10139070001E+01  0.57562458596E+00  0.18599232560E+00  0.11806541466E+01  0.00000000000E+00 0.  1.
         11    1    3    3    0    0 -0.25713042459E+02 -0.26210286034E+02 -0.18597149727E+02  0.41158153806E+02  0.51100000000E-03 0. -1.
        -11    1    3    3    0    0  0.40698569297E+01  0.27231081965E+01 -0.72418467442E+01  0.87420477124E+01  0.51100000000E-03 0.  1.
        -12    1    3    3    0    0  0.20629278529E+02  0.22911553252E+02  0.25653004145E+02  0.40107144335E+02  0.00000000000E+00 0.  1.
</event>
<event>
 7    1  0.4555057E-015  0.9000762E+02  0.7816164E-02  0.1186339E+00
        -11   -1    0    0    0    0  0.00000000000E+00  0.00000000000E+00  0.45593999997E+02  0.45594000000E+02  0.51100000000E-03 0. -1.
         11   -1    0    0    0    0 -0.00000000000E+00 -0.00000000000E+00 -0.45593999997E+02  0.45594000000E+02  0.51100000000E-03 0.  1.
    9900012    2    1    2    0    0 -0.74549954190E+00  0.15192257640E+00  0.90246830384E+00  0.90007619097E+02  0.89999878869E+02 0.  0.
        -12    1    1    2    0    0  0.74549954190E+00 -0.15192257640E+00 -0.90246830384E+00  0.11803809028E+01  0.00000000000E+00 0.  1.
         11    1    3    3    0    0  0.16424141266E+02  0.30144991280E+01 -0.35237868251E+02  0.38994191624E+02  0.51100000000E-03 0. -1.
        -11    1    3    3    0    0  0.70269878303E+01 -0.40360059595E+01  0.76664856649E+00  0.81397575122E+01  0.51100000000E-03 0.  1.
        -12    1    3    3    0    0 -0.24196628638E+02  0.11734294079E+01  0.35373687988E+02  0.42873669961E+02  0.00000000000E+00 0.  1.
</event>
<event>
 7    1  0.4555057E-015  0.9000769E+02  0.7816164E-02  0.1186339E+00
        -11   -1    0    0    0    0  0.00000000000E+00  0.00000000000E+00  0.45593999997E+02  0.45594000000E+02  0.51100000000E-03 0.  1.
         11   -1    0    0    0    0 -0.00000000000E+00 -0.00000000000E+00 -0.45593999997E+02  0.45594000000E+02  0.51100000000E-03 0. -1.
    9900012    2    1    2    0    0 -0.92260757711E+00 -0.73319829426E+00 -0.65863015887E-01  0.90007693931E+02  0.89999954691E+02 0.  0.
        -12    1    1    2    0    0  0.92260757711E+00  0.73319829426E+00  0.65863015887E-01  0.11803060692E+01  0.00000000000E+00 0.  1.
         11    1    3    3    0    0  0.25674892015E+01  0.94795782596E+01  0.63342065149E+01  0.11686598188E+02  0.51100000000E-03 0. -1.
        -11    1    3    3    0    0 -0.38210244090E+02  0.61260767311E+01 -0.94255203189E+01  0.39829536817E+02  0.51100000000E-03 0.  1.
         12    1    3    3    0    0  0.34720147312E+02 -0.16338853285E+02  0.30254507880E+01  0.38491558925E+02  0.00000000000E+00 0. -1.
</event>
<event>
 7    1  0.4555057E-015  0.9000763E+02  0.7816164E-02  0.1186339E+00
        -11   -1    0    0    0    0  0.00000000000E+00  0.00000000000E+00  0.45593999997E+02  0.45594000000E+02  0.51100000000E-03 0.  1.
         11   -1    0    0    0    0 -0.00000000000E+00 -0.00000000000E+00 -0.45593999997E+02  0.45594000000E+02  0.51100000000E-03 0. -1.
    9900012    2    1    2    0    0  0.70008651395E+00  0.37694464108E+00 -0.87239212442E+00  0.90007628699E+02  0.89999888598E+02 0.  0.
        -12    1    1    2    0    0 -0.70008651395E+00 -0.37694464108E+00  0.87239212442E+00  0.11803713010E+01  0.00000000000E+00 0.  1.
         11    1    3    3    0    0  0.64722235542E+01  0.33064126840E+01 -0.58506053489E+01  0.93301460750E+01  0.51100000000E-03 0. -1.
        -11    1    3    3    0    0  0.54989280448E+01  0.36768176797E+02  0.11463375004E+02  0.38904318544E+02  0.51100000000E-03 0.  1.
         12    1    3    3    0    0 -0.11271065085E+02 -0.39697644840E+02 -0.64851617800E+01  0.41773164080E+02  0.00000000000E+00 0. -1.
</event>
<event>
 7    1  0.4555057E-015  0.9000775E+02  0.7816164E-02  0.1186339E+00
        -11   -1    0    0    0    0  0.00000000000E+00  0.00000000000E+00  0.45593999997E+02  0.45594000000E+02  0.51100000000E-03 0. -1.
         11   -1    0    0    0    0 -0.00000000000E+00 -0.00000000000E+00 -0.45593999997E+02  0.45594000000E+02  0.51100000000E-03 0.  1.
    9900012    2    1    2    0    0  0.10174848557E+01 -0.19418428518E+00  0.56569271697E+00  0.90007749510E+02  0.90000011004E+02 0.  0.
        -12    1    1    2    0    0 -0.10174848557E+01  0.19418428518E+00 -0.56569271697E+00  0.11802504896E+01  0.00000000000E+00 0.  1.
         11    1    3    3    0    0  0.34163340690E+02  0.84308421767E+01 -0.91461458717E+01  0.36357460465E+02  0.51100000000E-03 0. -1.
        -11    1    3    3    0    0  0.56666793564E+01  0.71129749872E+01 -0.34838701627E+01  0.97387380942E+01  0.51100000000E-03 0.  1.
        -12    1    3    3    0    0 -0.38812535190E+02 -0.15738001449E+02  0.13195708751E+02  0.43911550951E+02  0.00000000000E+00 0.  1.
</event>
<event>
 7    1  0.4555057E-015  0.9000775E+02  0.7816164E-02  0.1186339E+00
        -11   -1    0    0    0    0  0.00000000000E+00  0.00000000000E+00  0.45593999997E+02  0.45594000000E+02  0.51100000000E-03 0. -1.
         11   -1    0    0    0    0 -0.00000000000E+00 -0.00000000000E+00 -0.45593999997E+02  0.45594000000E+02  0.51100000000E-03 0.  1.
    9900012    2    1    2    0    0  0.41429972182E+00 -0.10028188681E+01 -0.46443952273E+00  0.90007748327E+02  0.90000009805E+02 0.  0.
        -12    1    1    2    0    0 -0.41429972182E+00  0.10028188681E+01  0.46443952273E+00  0.11802516731E+01  0.00000000000E+00 0.  1.
         11    1    3    3    0    0  0.61349866696E+01 -0.99084925755E+01  0.44469020800E+01  0.12473621163E+02  0.51100000000E-03 0. -1.
        -11    1    3    3    0    0 -0.12488625393E+02  0.10926510566E+01 -0.39495969819E+02  0.41437800168E+02  0.51100000000E-03 0.  1.
         12    1    3    3    0    0  0.67679384449E+01  0.78130226509E+01  0.34584628216E+02  0.36096326996E+02  0.00000000000E+00 0. -1.
</event>
<event>
 7    1  0.4555057E-015  0.9000754E+02  0.7816164E-02  0.1186339E+00
        -11   -1    0    0    0    0  0.00000000000E+00  0.00000000000E+00  0.45593999997E+02  0.45594000000E+02  0.51100000000E-03 0.  1.
         11   -1    0    0    0    0 -0.00000000000E+00 -0.00000000000E+00 -0.45593999997E+02  0.45594000000E+02  0.51100000000E-03 0. -1.
    9900012    2    1    2    0    0  0.61871204367E+00 -0.10002520514E+01  0.10092417051E+00  0.90007536342E+02  0.89999795022E+02 0.  0.
        -12    1    1    2    0    0 -0.61871204367E+00  0.10002520514E+01 -0.10092417051E+00  0.11804636578E+01  0.00000000000E+00 0.  1.
         11    1    3    3    0    0 -0.78878364367E+01 -0.28843876069E+01  0.63974652740E+01  0.10557708923E+02  0.51100000000E-03 0. -1.
        -11    1    3    3    0    0  0.15348951992E+02 -0.22503238712E+02  0.26505308556E+02  0.38006808096E+02  0.51100000000E-03 0.  1.
         12    1    3    3    0    0 -0.68424035118E+01  0.24387374268E+02 -0.32801849659E+02  0.41443019322E+02  0.00000000000E+00 0. -1.
</event>
<event>
 7    1  0.4555057E-015  0.9000771E+02  0.7816164E-02  0.1186339E+00
        -11   -1    0    0    0    0  0.00000000000E+00  0.00000000000E+00  0.45593999997E+02  0.45594000000E+02  0.51100000000E-03 0. -1.
         11   -1    0    0    0    0 -0.00000000000E+00 -0.00000000000E+00 -0.45593999997E+02  0.45594000000E+02  0.51100000000E-03 0.  1.
    9900012    2    1    2    0    0  0.48213814331E+00  0.60891993472E+00 -0.88872996780E+00  0.90007711208E+02  0.89999972196E+02 0.  0.
        -12    1    1    2    0    0 -0.48213814331E+00 -0.60891993472E+00  0.88872996780E+00  0.11802887917E+01  0.00000000000E+00 0.  1.
         11    1    3    3    0    0 -0.31374090548E+02  0.12408887155E+02  0.57010763035E+01  0.34217193185E+02  0.51100000000E-03 0. -1.
        -11    1    3    3    0    0 -0.41605415751E+01  0.94600130840E+01  0.62044769955E+01  0.12053940799E+02  0.51100000000E-03 0.  1.
        -12    1    3    3    0    0  0.36016770267E+02 -0.21259980305E+02 -0.12794283267E+02  0.43736577224E+02  0.00000000000E+00 0.  1.
</event>
<event>
 7    1  0.4555057E-015  0.9000769E+02  0.7816164E-02  0.1186339E+00
        -11   -1    0    0    0    0  0.00000000000E+00  0.00000000000E+00  0.45593999997E+02  0.45594000000E+02  0.51100000000E-03 0.  1.
         11   -1    0    0    0    0 -0.00000000000E+00 -0.00000000000E+00 -0.45593999997E+02  0.45594000000E+02  0.51100000000E-03 0. -1.
    9900012    2    1    2    0    0  0.10343928374E+01  0.29239071549E+00  0.48751102142E+00  0.90007691621E+02  0.89999952351E+02 0.  0.
        -12    1    1    2    0    0 -0.10343928374E+01 -0.29239071549E+00 -0.48751102142E+00  0.11803083786E+01  0.00000000000E+00 0.  1.
         11    1    3    3    0    0 -0.32071094810E+02 -0.13341103789E+02 -0.10816854369E+02  0.36380551278E+02  0.51100000000E-03 0. -1.
        -11    1    3    3    0    0 -0.82359415977E+01 -0.13394066210E+01  0.55307192377E+00  0.83624537614E+01  0.51100000000E-03 0.  1.
        -12    1    3    3    0    0  0.41341429245E+02  0.14972901126E+02  0.10751293467E+02  0.45264686582E+02  0.00000000000E+00 0.  1.
</event>
<event>
 7    1  0.4555057E-015  0.9000676E+02  0.7816164E-02  0.1186341E+00
        -11   -1    0    0    0    0  0.00000000000E+00  0.00000000000E+00  0.45593999997E+02  0.45594000000E+02  0.51100000000E-03 0.  1.
         11   -1    0    0    0    0 -0.00000000000E+00 -0.00000000000E+00 -0.45593999997E+02  0.45594000000E+02  0.51100000000E-03 0. -1.
    9900012    2    1    2    0    0  0.36837365362E+00  0.11013024858E+01 -0.21626659352E+00  0.90006755930E+02  0.89999004303E+02 0.  0.
        -12    1    1    2    0    0 -0.36837365362E+00 -0.11013024858E+01  0.21626659352E+00  0.11812440702E+01  0.00000000000E+00 0.  1.
         11    1    3    3    0    0 -0.48005549849E+01 -0.31058754058E+02 -0.17748013520E+02  0.36092707241E+02  0.51100000000E-03 0. -1.
        -11    1    3    3    0    0 -0.37341308974E+01 -0.85361988406E+01  0.28369032955E+01  0.97395300079E+01  0.51100000000E-03 0.  1.
        -12    1    3    3    0    0  0.89030595359E+01  0.40696255384E+02  0.14694843631E+02  0.44174518681E+02  0.00000000000E+00 0.  1.
</event>
<event>
 7    1  0.4555057E-015  0.9000771E+02  0.7816164E-02  0.1186339E+00
        -11   -1    0    0    0    0  0.00000000000E+00  0.00000000000E+00  0.45593999997E+02  0.45594000000E+02  0.51100000000E-03 0.  1.
         11   -1    0    0    0    0 -0.00000000000E+00 -0.00000000000E+00 -0.45593999997E+02  0.45594000000E+02  0.51100000000E-03 0. -1.
    9900012    2    1    2    0    0 -0.74158358531E+00 -0.54977341383E-01 -0.91658137327E+00  0.90007707606E+02  0.89999968546E+02 0.  0.
        -12    1    1    2    0    0  0.74158358531E+00  0.54977341383E-01  0.91658137327E+00  0.11802923942E+01  0.00000000000E+00 0.  1.
         11    1    3    3    0    0 -0.12458386452E+02 -0.76855123324E+01  0.15541229018E+01  0.14720522785E+02  0.51100000000E-03 0. -1.
        -11    1    3    3    0    0 -0.17298845374E+02  0.26506640134E+01  0.27935142626E+02  0.32964348390E+02  0.51100000000E-03 0.  1.
         12    1    3    3    0    0  0.29015648241E+02  0.49798709776E+01 -0.30405846901E+02  0.42322836431E+02  0.00000000000E+00 0. -1.
</event>
<event>
 7    1  0.4555057E-015  0.9000775E+02  0.7816164E-02  0.1186339E+00
        -11   -1    0    0    0    0  0.00000000000E+00  0.00000000000E+00  0.45593999997E+02  0.45594000000E+02  0.51100000000E-03 0.  1.
         11   -1    0    0    0    0 -0.00000000000E+00 -0.00000000000E+00 -0.45593999997E+02  0.45594000000E+02  0.51100000000E-03 0. -1.
    9900012    2    1    2    0    0 -0.62830608839E+00  0.75210169251E+00 -0.65768764142E+00  0.90007754886E+02  0.90000016450E+02 0.  0.
        -12    1    1    2    0    0  0.62830608839E+00 -0.75210169251E+00  0.65768764142E+00  0.11802451145E+01  0.00000000000E+00 0.  1.
         11    1    3    3    0    0 -0.37324695422E+01 -0.66467647785E+01  0.52532736841E+01  0.92578450821E+01  0.51100000000E-03 0. -1.
        -11    1    3    3    0    0 -0.21095688211E+02 -0.29579479196E+02 -0.32584677572E+01  0.36477270498E+02  0.51100000000E-03 0.  1.
         12    1    3    3    0    0  0.24199851665E+02  0.36978345667E+02 -0.26524935683E+01  0.44272639305E+02  0.00000000000E+00 0. -1.
</event>
<event>
 7    1  0.4555057E-015  0.9000784E+02  0.7816164E-02  0.1186339E+00
        -11   -1    0    0    0    0  0.00000000000E+00  0.00000000000E+00  0.45593999997E+02  0.45594000000E+02  0.51100000000E-03 0. -1.
         11   -1    0    0    0    0 -0.00000000000E+00 -0.00000000000E+00 -0.45593999997E+02  0.45594000000E+02  0.51100000000E-03 0.  1.
    9900012    2    1    2    0    0  0.76933389288E+00  0.41720537324E-02  0.89492620251E+00  0.90007836896E+02  0.90000099543E+02 0.  0.
        -12    1    1    2    0    0 -0.76933389288E+00 -0.41720537324E-02 -0.89492620251E+00  0.11801631043E+01  0.00000000000E+00 0.  1.
         11    1    3    3    0    0 -0.19360560117E+02  0.21222201663E+02  0.25480213620E+02  0.38398625208E+02  0.51100000000E-03 0. -1.
        -11    1    3    3    0    0 -0.73325873744E+00  0.55338817946E+01  0.43049022980E+01  0.70493758695E+01  0.51100000000E-03 0.  1.
        -12    1    3    3    0    0  0.20863152747E+02 -0.26751911404E+02 -0.28890189716E+02  0.44559835818E+02  0.00000000000E+00 0.  1.
</event>
<event>
 7    1  0.4555057E-015  0.9000768E+02  0.7816164E-02  0.1186339E+00
        -11   -1    0    0    0    0  0.00000000000E+00  0.00000000000E+00  0.45593999997E+02  0.45594000000E+02  0.51100000000E-03 0.  1.
         11   -1    0    0    0    0 -0.00000000000E+00 -0.00000000000E+00 -0.45593999997E+02  0.45594000000E+02  0.51100000000E-03 0. -1.
    9900012    2    1    2    0    0 -0.44104014593E+00  0.93596046613E-01 -0.10908174357E+01  0.90007678303E+02  0.89999938857E+02 0.  0.
        -12    1    1    2    0    0  0.44104014593E+00 -0.93596046613E-01  0.10908174357E+01  0.11803216969E+01  0.00000000000E+00 0.  1.
         11    1    3    3    0    0  0.66769275436E+01  0.23505928536E+01  0.16543273623E+01  0.72693498656E+01  0.51100000000E-03 0. -1.
        -11    1    3    3    0    0 -0.84188558984E+01  0.23810031942E+02  0.31059297101E+02  0.40030921703E+02  0.51100000000E-03 0.  1.
         12    1    3    3    0    0  0.13008882088E+01 -0.26067028749E+02 -0.33804441898E+02  0.42707406735E+02  0.00000000000E+00 0. -1.
</event>
<event>
 7    1  0.4555057E-015  0.9000772E+02  0.7816164E-02  0.1186339E+00
        -11   -1    0    0    0    0  0.00000000000E+00  0.00000000000E+00  0.45593999997E+02  0.45594000000E+02  0.51100000000E-03 0.  1.
         11   -1    0    0    0    0 -0.00000000000E+00 -0.00000000000E+00 -0.45593999997E+02  0.45594000000E+02  0.51100000000E-03 0. -1.
    9900012    2    1    2    0    0 -0.65375164480E+00 -0.90450547441E+00  0.38409944392E+00  0.90007723020E+02  0.89999984164E+02 0.  0.
        -12    1    1    2    0    0  0.65375164480E+00  0.90450547441E+00 -0.38409944392E+00  0.11802769798E+01  0.00000000000E+00 0.  1.
         11    1    3    3    0    0 -0.29068291327E+01 -0.15916644601E+01  0.13476888061E+02  0.13878384755E+02  0.51100000000E-03 0. -1.
        -11    1    3    3    0    0 -0.29332437637E+02  0.45900201756E+01  0.15370595053E+02  0.33432250529E+02  0.51100000000E-03 0.  1.
         12    1    3    3    0    0  0.31585515125E+02 -0.39028611899E+01 -0.28463383670E+02  0.42697087735E+02  0.00000000000E+00 0. -1.
</event>
<event>
 7    1  0.6286158E-015  0.9000776E+02  0.7816164E-02  0.1186339E+00
        -11   -1    0    0    0    0  0.00000000000E+00  0.00000000000E+00  0.45593999997E+02  0.45594000000E+02  0.51100000000E-03 0. -1.
         11   -1    0    0    0    0 -0.00000000000E+00 -0.00000000000E+00 -0.45593999997E+02  0.45594000000E+02  0.51100000000E-03 0.  1.
    9900012    2    1    2    0    0  0.10578488457E+01  0.89289026176E-01  0.51570014089E+00  0.90007761318E+02  0.90000022968E+02 0.  0.
        -12    1    1    2    0    0 -0.10578488457E+01 -0.89289026176E-01 -0.51570014089E+00  0.11802386817E+01  0.00000000000E+00 0.  1.
         11    1    3    3    0    0  0.49464970890E+01  0.33705243428E+01  0.75297411407E+01  0.96190056504E+01  0.51100000000E-03 0. -1.
        -11    1    3    3    0    0  0.14607775403E+02  0.32756957448E+02 -0.15382085578E+02  0.39025810952E+02  0.51100000000E-03 0.  1.
         12    1    3    3    0    0 -0.18496423647E+02 -0.36038192765E+02  0.83680445778E+01  0.41362944716E+02  0.00000000000E+00 0. -1.
</event>
<event>
 7    1  0.4555057E-015  0.9000807E+02  0.7816164E-02  0.1186338E+00
        -11   -1    0    0    0    0  0.00000000000E+00  0.00000000000E+00  0.45593999997E+02  0.45594000000E+02  0.51100000000E-03 0. -1.
         11   -1    0    0    0    0 -0.00000000000E+00 -0.00000000000E+00 -0.45593999997E+02  0.45594000000E+02  0.51100000000E-03 0.  1.
    9900012    2    1    2    0    0 -0.88669022406E+00  0.27800180458E+00  0.72714324337E+00  0.90008067013E+02  0.90000332697E+02 0.  0.
        -12    1    1    2    0    0  0.88669022406E+00 -0.27800180458E+00 -0.72714324337E+00  0.11799329867E+01  0.00000000000E+00 0.  1.
         11    1    3    3    0    0  0.31941582837E+02  0.13513210433E+02  0.84344390697E+01  0.35693295351E+02  0.51100000000E-03 0. -1.
        -11    1    3    3    0    0  0.77026254026E+01  0.50000580120E+01  0.13438976435E+00  0.91841754712E+01  0.51100000000E-03 0.  1.
        -12    1    3    3    0    0 -0.40530898463E+02 -0.18235266640E+02 -0.78416855907E+01  0.45130596191E+02  0.00000000000E+00 0.  1.
</event>
<event>
 7    1  0.4555057E-015  0.9000769E+02  0.7816164E-02  0.1186339E+00
        -11   -1    0    0    0    0  0.00000000000E+00  0.00000000000E+00  0.45593999997E+02  0.45594000000E+02  0.51100000000E-03 0. -1.
         11   -1    0    0    0    0 -0.00000000000E+00 -0.00000000000E+00 -0.45593999997E+02  0.45594000000E+02  0.51100000000E-03 0.  1.
    9900012    2    1    2    0    0 -0.10962685806E+01 -0.43463375374E+00  0.49155745888E-01  0.90007691740E+02  0.89999952471E+02 0.  0.
        -12    1    1    2    0    0  0.10962685806E+01  0.43463375374E+00 -0.49155745888E-01  0.11803082598E+01  0.00000000000E+00 0.  1.
         11    1    3    3    0    0 -0.98858104688E+01 -0.21233958165E+01 -0.11242926937E+01  0.10173597827E+02  0.51100000000E-03 0. -1.
        -11    1    3    3    0    0 -0.24737848626E+02  0.65095226554E+01 -0.25951743223E+02  0.36439374533E+02  0.51100000000E-03 0.  1.
         12    1    3    3    0    0  0.33527390514E+02 -0.48207605926E+01  0.27125191662E+02  0.43394719380E+02  0.00000000000E+00 0. -1.
</event>
<event>
 7    1  0.4555057E-015  0.9000779E+02  0.7816164E-02  0.1186339E+00
        -11   -1    0    0    0    0  0.00000000000E+00  0.00000000000E+00  0.45593999997E+02  0.45594000000E+02  0.51100000000E-03 0. -1.
         11   -1    0    0    0    0 -0.00000000000E+00 -0.00000000000E+00 -0.45593999997E+02  0.45594000000E+02  0.51100000000E-03 0.  1.
    9900012    2    1    2    0    0  0.85496333641E+00  0.80930795503E+00  0.83340200282E-01  0.90007793551E+02  0.90000055626E+02 0.  0.
        -12    1    1    2    0    0 -0.85496333641E+00 -0.80930795503E+00 -0.83340200282E-01  0.11802064488E+01  0.00000000000E+00 0.  1.
         11    1    3    3    0    0  0.55502117179E+01 -0.43357206462E+00  0.39130126337E+02  0.39524165042E+02  0.51100000000E-03 0. -1.
        -11    1    3    3    0    0 -0.11783998469E+01 -0.81283535498E+01  0.18169214571E+01  0.84118940478E+01  0.51100000000E-03 0.  1.
        -12    1    3    3    0    0 -0.35168485346E+01  0.93712335694E+01 -0.40863707594E+02  0.42071734461E+02  0.00000000000E+00 0.  1.
</event>
<event>
 7    1  0.4555057E-015  0.9000769E+02  0.7816164E-02  0.1186339E+00
        -11   -1    0    0    0    0  0.00000000000E+00  0.00000000000E+00  0.45593999997E+02  0.45594000000E+02  0.51100000000E-03 0. -1.
         11   -1    0    0    0    0 -0.00000000000E+00 -0.00000000000E+00 -0.45593999997E+02  0.45594000000E+02  0.51100000000E-03 0.  1.
    9900012    2    1    2    0    0  0.60584700904E+00  0.48149930114E+00  0.89119693667E+00  0.90007693194E+02  0.89999953945E+02 0.  0.
        -12    1    1    2    0    0 -0.60584700904E+00 -0.48149930114E+00 -0.89119693667E+00  0.11803068056E+01  0.00000000000E+00 0.  1.
         11    1    3    3    0    0 -0.86525483129E+01  0.15408585738E+01  0.35934475950E+00  0.87960199163E+01  0.51100000000E-03 0. -1.
        -11    1    3    3    0    0 -0.21645149091E+02 -0.38016323629E+01 -0.30327339113E+02  0.37452802108E+02  0.51100000000E-03 0.  1.
         12    1    3    3    0    0  0.30903544413E+02  0.27422730902E+01  0.30859191290E+02  0.43758871170E+02  0.00000000000E+00 0. -1.
</event>
<event>
 7    1  0.4555057E-015  0.9000769E+02  0.7816164E-02  0.1186339E+00
        -11   -1    0    0    0    0  0.00000000000E+00  0.00000000000E+00  0.45593999997E+02  0.45594000000E+02  0.51100000000E-03 0.  1.
         11   -1    0    0    0    0 -0.00000000000E+00 -0.00000000000E+00 -0.45593999997E+02  0.45594000000E+02  0.51100000000E-03 0. -1.
    9900012    2    1    2    0    0  0.63585482683E+00 -0.26915573919E+00 -0.95726943082E+00  0.90007694558E+02  0.89999955326E+02 0.  0.
        -12    1    1    2    0    0 -0.63585482683E+00  0.26915573919E+00  0.95726943082E+00  0.11803054418E+01  0.00000000000E+00 0.  1.
         11    1    3    3    0    0 -0.99523386818E+01  0.10573952557E+02 -0.26012787641E+02  0.29791318182E+02  0.51100000000E-03 0. -1.
        -11    1    3    3    0    0  0.17013445116E+02  0.78099635834E+01 -0.90673830982E+01  0.20800727929E+02  0.51100000000E-03 0.  1.
        -12    1    3    3    0    0 -0.64252516069E+01 -0.18653071880E+02  0.34122901308E+02  0.39415648447E+02  0.00000000000E+00 0.  1.
</event>
<event>
 7    1  0.4555057E-015  0.9000888E+02  0.7816164E-02  0.1186337E+00
        -11   -1    0    0    0    0  0.00000000000E+00  0.00000000000E+00  0.45593999997E+02  0.45594000000E+02  0.51100000000E-03 0. -1.
         11   -1    0    0    0    0 -0.00000000000E+00 -0.00000000000E+00 -0.45593999997E+02  0.45594000000E+02  0.51100000000E-03 0.  1.
    9900012    2    1    2    0    0  0.13689698181E+00  0.39888159638E+00  0.11011202571E+01  0.90008884598E+02  0.90001161067E+02 0.  0.
        -12    1    1    2    0    0 -0.13689698181E+00 -0.39888159638E+00 -0.11011202571E+01  0.11791154024E+01  0.00000000000E+00 0.  1.
         11    1    3    3    0    0 -0.93988722106E+01  0.11006372858E+01  0.10689782997E+02  0.14276612415E+02  0.51100000000E-03 0. -1.
        -11    1    3    3    0    0 -0.95014483343E+01 -0.45726888818E+01 -0.39046592871E+02  0.40445313933E+02  0.51100000000E-03 0.  1.
         12    1    3    3    0    0  0.19037217527E+02  0.38709331924E+01  0.29457930130E+02  0.35286958250E+02  0.00000000000E+00 0. -1.
</event>
<event>
 7    1  0.4555057E-015  0.9000768E+02  0.7816164E-02  0.1186339E+00
        -11   -1    0    0    0    0  0.00000000000E+00  0.00000000000E+00  0.45593999997E+02  0.45594000000E+02  0.51100000000E-03 0.  1.
         11   -1    0    0    0    0 -0.00000000000E+00 -0.00000000000E+00 -0.45593999997E+02  0.45594000000E+02  0.51100000000E-03 0. -1.
    9900012    2    1    2    0    0 -0.64658389856E+00  0.57049510926E+00 -0.80599014384E+00  0.90007679908E+02  0.89999940483E+02 0.  0.
        -12    1    1    2    0    0  0.64658389856E+00 -0.57049510926E+00  0.80599014384E+00  0.11803200920E+01  0.00000000000E+00 0.  1.
         11    1    3    3    0    0  0.20504352934E+02  0.20863789517E+02  0.24230518118E+02  0.37984789203E+02  0.51100000000E-03 0. -1.
        -11    1    3    3    0    0  0.73723172341E+01  0.17533265079E+01 -0.10953654360E+02  0.13319450414E+02  0.51100000000E-03 0.  1.
        -12    1    3    3    0    0 -0.28523254067E+02 -0.22046620915E+02 -0.14082853902E+02  0.38703440291E+02  0.00000000000E+00 0.  1.
</event>
<event>
 7    1  0.4555057E-015  0.9000758E+02  0.7816164E-02  0.1186339E+00
        -11   -1    0    0    0    0  0.00000000000E+00  0.00000000000E+00  0.45593999997E+02  0.45594000000E+02  0.51100000000E-03 0. -1.
         11   -1    0    0    0    0 -0.00000000000E+00 -0.00000000000E+00 -0.45593999997E+02  0.45594000000E+02  0.51100000000E-03 0.  1.
    9900012    2    1    2    0    0 -0.52412462184E+00 -0.26737015911E+00  0.10233244646E+01  0.90007582116E+02  0.89999841400E+02 0.  0.
        -12    1    1    2    0    0  0.52412462184E+00  0.26737015911E+00 -0.10233244646E+01  0.11804178841E+01  0.00000000000E+00 0.  1.
         11    1    3    3    0    0 -0.16171173455E+02  0.16919427553E+02 -0.10768678821E+01  0.23429330428E+02  0.51100000000E-03 0. -1.
        -11    1    3    3    0    0 -0.19163889400E+02 -0.41250536041E+01 -0.15927185169E+02  0.25257591965E+02  0.51100000000E-03 0.  1.
         12    1    3    3    0    0  0.34810938233E+02 -0.13061744108E+02  0.18027377516E+02  0.41320659723E+02  0.00000000000E+00 0. -1.
</event>
<event>
 7    1  0.4555057E-015  0.9000767E+02  0.7816164E-02  0.1186339E+00
        -11   -1    0    0    0    0  0.00000000000E+00  0.00000000000E+00  0.45593999997E+02  0.45594000000E+02  0.51100000000E-03 0.  1.
         11   -1    0    0    0    0 -0.00000000000E+00 -0.00000000000E+00 -0.45593999997E+02  0.45594000000E+02  0.51100000000E-03 0. -1.
    9900012    2    1    2    0    0 -0.90836157359E+00  0.73568458615E-01 -0.75009606458E+00  0.90007670736E+02  0.89999931189E+02 0.  0.
        -12    1    1    2    0    0  0.90836157359E+00 -0.73568458615E-01  0.75009606458E+00  0.11803292645E+01  0.00000000000E+00 0.  1.
         11    1    3    3    0    0  0.52308588642E+01 -0.55590508386E+01  0.48265468084E+01  0.90310843778E+01  0.51100000000E-03 0. -1.
        -11    1    3    3    0    0  0.26629801597E+02 -0.88167339493E+01  0.22103271115E+02  0.35713242990E+02  0.51100000000E-03 0.  1.
         12    1    3    3    0    0 -0.32769022035E+02  0.14449353247E+02 -0.27679913988E+02  0.45263343367E+02  0.00000000000E+00 0. -1.
</event>
<event>
 7    1  0.4555057E-015  0.9000771E+02  0.7816164E-02  0.1186339E+00
        -11   -1    0    0    0    0  0.00000000000E+00  0.00000000000E+00  0.45593999997E+02  0.45594000000E+02  0.51100000000E-03 0.  1.
         11   -1    0    0    0    0 -0.00000000000E+00 -0.00000000000E+00 -0.45593999997E+02  0.45594000000E+02  0.51100000000E-03 0. -1.
    9900012    2    1    2    0    0  0.50658579857E+00  0.95468495621E+00 -0.47437030696E+00  0.90007712016E+02  0.89999973015E+02 0.  0.
        -12    1    1    2    0    0 -0.50658579857E+00 -0.95468495621E+00  0.47437030696E+00  0.11802879840E+01  0.00000000000E+00 0.  1.
         11    1    3    3    0    0  0.39186330541E+01 -0.28126571595E+01 -0.74980838966E+01  0.89156036077E+01  0.51100000000E-03 0. -1.
        -11    1    3    3    0    0 -0.14661064905E+02 -0.36131749754E+02 -0.30830988987E+00  0.38994169047E+02  0.51100000000E-03 0.  1.
         12    1    3    3    0    0  0.11249017650E+02  0.39899091870E+02  0.73320234795E+01  0.42097939361E+02  0.00000000000E+00 0. -1.
</event>
<event>
 7    1  0.4555057E-015  0.9000758E+02  0.7816164E-02  0.1186339E+00
        -11   -1    0    0    0    0  0.00000000000E+00  0.00000000000E+00  0.45593999997E+02  0.45594000000E+02  0.51100000000E-03 0.  1.
         11   -1    0    0    0    0 -0.00000000000E+00 -0.00000000000E+00 -0.45593999997E+02  0.45594000000E+02  0.51100000000E-03 0. -1.
    9900012    2    1    2    0    0 -0.87018291424E+00 -0.62139580467E+00 -0.50004073561E+00  0.90007579826E+02  0.89999839079E+02 0.  0.
        -12    1    1    2    0    0  0.87018291424E+00  0.62139580467E+00  0.50004073561E+00  0.11804201742E+01  0.00000000000E+00 0.  1.
         11    1    3    3    0    0  0.15967120918E+02 -0.23619527229E+02 -0.29912423665E+02  0.41322924711E+02  0.51100000000E-03 0. -1.
        -11    1    3    3    0    0 -0.31120174993E+01 -0.59118191747E+01  0.65368182587E+01  0.93468846189E+01  0.51100000000E-03 0.  1.
        -12    1    3    3    0    0 -0.13725286333E+02  0.28909950599E+02  0.22875564671E+02  0.39337770496E+02  0.00000000000E+00 0.  1.
</event>
<event>
 7    1  0.5346422E-015  0.9000774E+02  0.7816164E-02  0.1186339E+00
        -11   -1    0    0    0    0  0.00000000000E+00  0.00000000000E+00  0.45593999997E+02  0.45594000000E+02  0.51100000000E-03 0. -1.
         11   -1    0    0    0    0 -0.00000000000E+00 -0.00000000000E+00 -0.45593999997E+02  0.45594000000E+02  0.51100000000E-03 0.  1.
    9900012    2    1    2    0    0 -0.45616685395E+00 -0.48130733724E+00  0.97634920540E+00  0.90007744637E+02  0.90000006066E+02 0.  0.
        -12    1    1    2    0    0  0.45616685395E+00  0.48130733724E+00 -0.97634920540E+00  0.11802553632E+01  0.00000000000E+00 0.  1.
         11    1    3    3    0    0 -0.75650043004E+01 -0.69047684236E+01 -0.46080778139E+00  0.10252680680E+02  0.51100000000E-03 0. -1.
        -11    1    3    3    0    0 -0.21350862116E+02 -0.74918683244E+01 -0.28348816060E+02  0.36271790366E+02  0.51100000000E-03 0.  1.
         12    1    3    3    0    0  0.28459699562E+02  0.13915329411E+02  0.29785973047E+02  0.43483273591E+02  0.00000000000E+00 0. -1.
</event>
<event>
 7    1  0.4555057E-015  0.9000774E+02  0.7816164E-02  0.1186339E+00
        -11   -1    0    0    0    0  0.00000000000E+00  0.00000000000E+00  0.45593999997E+02  0.45594000000E+02  0.51100000000E-03 0. -1.
         11   -1    0    0    0    0 -0.00000000000E+00 -0.00000000000E+00 -0.45593999997E+02  0.45594000000E+02  0.51100000000E-03 0.  1.
    9900012    2    1    2    0    0  0.51101727333E+00  0.48419015047E+00 -0.94732636489E+00  0.90007743250E+02  0.90000004660E+02 0.  0.
        -12    1    1    2    0    0 -0.51101727333E+00 -0.48419015047E+00  0.94732636489E+00  0.11802567505E+01  0.00000000000E+00 0.  1.
         11    1    3    3    0    0  0.16644490894E+01  0.91281797387E+01  0.29893389357E+01  0.97483436361E+01  0.51100000000E-03 0. -1.
        -11    1    3    3    0    0 -0.20502367991E+01  0.20838262295E+02 -0.32849952155E+02  0.38955821173E+02  0.51100000000E-03 0.  1.
         12    1    3    3    0    0  0.89680498310E+00 -0.29482251883E+02  0.28913286855E+02  0.41303578441E+02  0.00000000000E+00 0. -1.
</event>
<event>
 7    1  0.4555057E-015  0.9000774E+02  0.7816164E-02  0.1186339E+00
        -11   -1    0    0    0    0  0.00000000000E+00  0.00000000000E+00  0.45593999997E+02  0.45594000000E+02  0.51100000000E-03 0.  1.
         11   -1    0    0    0    0 -0.00000000000E+00 -0.00000000000E+00 -0.45593999997E+02  0.45594000000E+02  0.51100000000E-03 0. -1.
    9900012    2    1    2    0    0 -0.35649042681E+00 -0.11248214654E+01 -0.26662231003E-01  0.90007737475E+02  0.89999998810E+02 0.  0.
        -12    1    1    2    0    0  0.35649042681E+00  0.11248214654E+01  0.26662231003E-01  0.11802625251E+01  0.00000000000E+00 0.  1.
         11    1    3    3    0    0  0.30064169500E+02  0.29141130865E+01 -0.23729952668E+02  0.38411677868E+02  0.51100000000E-03 0. -1.
        -11    1    3    3    0    0  0.35464568162E+01 -0.10368412066E+02  0.31871535121E+01  0.11412242220E+02  0.51100000000E-03 0.  1.
        -12    1    3    3    0    0 -0.33967116743E+02  0.63294775141E+01  0.20516136925E+02  0.40183817386E+02  0.00000000000E+00 0.  1.
</event>
<event>
 7    1  0.4555057E-015  0.9000777E+02  0.7816164E-02  0.1186339E+00
        -11   -1    0    0    0    0  0.00000000000E+00  0.00000000000E+00  0.45593999997E+02  0.45594000000E+02  0.51100000000E-03 0.  1.
         11   -1    0    0    0    0 -0.00000000000E+00 -0.00000000000E+00 -0.45593999997E+02  0.45594000000E+02  0.51100000000E-03 0. -1.
    9900012    2    1    2    0    0 -0.11041640265E+01 -0.39073950468E+00 -0.14518548168E+00  0.90007773589E+02  0.90000035400E+02 0.  0.
        -12    1    1    2    0    0  0.11041640265E+01  0.39073950468E+00  0.14518548168E+00  0.11802264113E+01  0.00000000000E+00 0.  1.
         11    1    3    3    0    0  0.36294302198E+02  0.12819675108E+02 -0.13578741257E+02  0.40816695804E+02  0.51100000000E-03 0. -1.
        -11    1    3    3    0    0 -0.21221777311E+01  0.50021658888E+01  0.71752351791E+01  0.90005167650E+01  0.51100000000E-03 0.  1.
        -12    1    3    3    0    0 -0.35276288494E+02 -0.18212580501E+02  0.62583205963E+01  0.40190561020E+02  0.00000000000E+00 0.  1.
</event>
<event>
 7    1  0.4555057E-015  0.9000754E+02  0.7816164E-02  0.1186339E+00
        -11   -1    0    0    0    0  0.00000000000E+00  0.00000000000E+00  0.45593999997E+02  0.45594000000E+02  0.51100000000E-03 0. -1.
         11   -1    0    0    0    0 -0.00000000000E+00 -0.00000000000E+00 -0.45593999997E+02  0.45594000000E+02  0.51100000000E-03 0.  1.
    9900012    2    1    2    0    0 -0.30817116690E+00  0.11106135212E+01 -0.25503413528E+00  0.90007544888E+02  0.89999803680E+02 0.  0.
        -12    1    1    2    0    0  0.30817116690E+00 -0.11106135212E+01  0.25503413528E+00  0.11804551121E+01  0.00000000000E+00 0.  1.
         11    1    3    3    0    0 -0.25200505592E+02 -0.20794503713E+02  0.83839570750E+01  0.33730810889E+02  0.51100000000E-03 0. -1.
        -11    1    3    3    0    0 -0.67825561944E+01 -0.71940958516E+01  0.50977685099E+01  0.11124087724E+02  0.51100000000E-03 0.  1.
        -12    1    3    3    0    0  0.31674890619E+02  0.29099213086E+02 -0.13736759720E+02  0.45152646274E+02  0.00000000000E+00 0.  1.
</event>
<event>
 7    1  0.4776664E-015  0.9000775E+02  0.7816164E-02  0.1186339E+00
        -11   -1    0    0    0    0  0.00000000000E+00  0.00000000000E+00  0.45593999997E+02  0.45594000000E+02  0.51100000000E-03 0.  1.
         11   -1    0    0    0    0 -0.00000000000E+00 -0.00000000000E+00 -0.45593999997E+02  0.45594000000E+02  0.51100000000E-03 0. -1.
    9900012    2    1    2    0    0  0.10180664496E+01 -0.24770391747E-01  0.59658970675E+00  0.90007749117E+02  0.90000010606E+02 0.  0.
        -12    1    1    2    0    0 -0.10180664496E+01  0.24770391747E-01 -0.59658970675E+00  0.11802508828E+01  0.00000000000E+00 0.  1.
         11    1    3    3    0    0  0.36930178440E+01 -0.54866663810E+01  0.67958549770E+01  0.94829074604E+01  0.51100000000E-03 0. -1.
        -11    1    3    3    0    0  0.22900716534E+02 -0.23825626905E+02  0.14940000465E+02  0.36267160481E+02  0.51100000000E-03 0.  1.
         12    1    3    3    0    0 -0.25575667928E+02  0.29287522894E+02 -0.21139265735E+02  0.44257681176E+02  0.00000000000E+00 0. -1.
</event>
<event>
 7    1  0.4555057E-015  0.9000777E+02  0.7816164E-02  0.1186339E+00
        -11   -1    0    0    0    0  0.00000000000E+00  0.00000000000E+00  0.45593999997E+02  0.45594000000E+02  0.51100000000E-03 0.  1.
         11   -1    0    0    0    0 -0.00000000000E+00 -0.00000000000E+00 -0.45593999997E+02  0.45594000000E+02  0.51100000000E-03 0. -1.
    9900012    2    1    2    0    0 -0.51116000842E+00  0.64429587342E+00 -0.84649229152E+00  0.90007766580E+02  0.90000028299E+02 0.  0.
        -12    1    1    2    0    0  0.51116000842E+00 -0.64429587342E+00  0.84649229152E+00  0.11802334203E+01  0.00000000000E+00 0.  1.
         11    1    3    3    0    0  0.83026036049E+01 -0.39882167694E+01 -0.14397001356E+01  0.93226517881E+01  0.51100000000E-03 0. -1.
        -11    1    3    3    0    0  0.23537296291E+02  0.26234510991E+02  0.16175199544E+02  0.38780033060E+02  0.51100000000E-03 0.  1.
         12    1    3    3    0    0 -0.32351059904E+02 -0.21601998348E+02 -0.15581991700E+02  0.41905081731E+02  0.00000000000E+00 0. -1.
</event>
<event>
 7    1  0.5526914E-015  0.9000781E+02  0.7816164E-02  0.1186339E+00
        -11   -1    0    0    0    0  0.00000000000E+00  0.00000000000E+00  0.45593999997E+02  0.45594000000E+02  0.51100000000E-03 0. -1.
         11   -1    0    0    0    0 -0.00000000000E+00 -0.00000000000E+00 -0.45593999997E+02  0.45594000000E+02  0.51100000000E-03 0.  1.
    9900012    2    1    2    0    0 -0.93015820335E+00  0.48891641351E+00  0.53723954258E+00  0.90007805156E+02  0.90000067384E+02 0.  0.
        -12    1    1    2    0    0  0.93015820335E+00 -0.48891641351E+00 -0.53723954258E+00  0.11801948436E+01  0.00000000000E+00 0.  1.
         11    1    3    3    0    0  0.32462656160E+02  0.92819742933E+01  0.10534345214E+02  0.35368793040E+02  0.51100000000E-03 0. -1.
        -11    1    3    3    0    0  0.81483025840E+01  0.53948964494E+01 -0.94271407701E+00  0.98177621071E+01  0.51100000000E-03 0.  1.
        -12    1    3    3    0    0 -0.41541116947E+02 -0.14187954329E+02 -0.90543915945E+01  0.44821250010E+02  0.00000000000E+00 0.  1.
</event>
<event>
 7    1  0.4555057E-015  0.9000771E+02  0.7816164E-02  0.1186339E+00
        -11   -1    0    0    0    0  0.00000000000E+00  0.00000000000E+00  0.45593999997E+02  0.45594000000E+02  0.51100000000E-03 0.  1.
         11   -1    0    0    0    0 -0.00000000000E+00 -0.00000000000E+00 -0.45593999997E+02  0.45594000000E+02  0.51100000000E-03 0. -1.
    9900012    2    1    2    0    0 -0.11695013738E+01 -0.12130832966E+00  0.10310831360E+00  0.90007711688E+02  0.89999972683E+02 0.  0.
        -12    1    1    2    0    0  0.11695013738E+01  0.12130832966E+00 -0.10310831360E+00  0.11802883116E+01  0.00000000000E+00 0.  1.
         11    1    3    3    0    0 -0.75059841281E+01  0.68436863259E-01  0.67292919669E+01  0.10081064030E+02  0.51100000000E-03 0. -1.
        -11    1    3    3    0    0 -0.28022769864E+02  0.95846972152E+01  0.19683661092E+02  0.35561054059E+02  0.51100000000E-03 0.  1.
         12    1    3    3    0    0  0.34359252619E+02 -0.97744424081E+01 -0.26309844745E+02  0.44365593599E+02  0.00000000000E+00 0. -1.
</event>
<event>
 7    1  0.4555057E-015  0.9000815E+02  0.7816164E-02  0.1186338E+00
        -11   -1    0    0    0    0  0.00000000000E+00  0.00000000000E+00  0.45593999997E+02  0.45594000000E+02  0.51100000000E-03 0. -1.
         11   -1    0    0    0    0 -0.00000000000E+00 -0.00000000000E+00 -0.45593999997E+02  0.45594000000E+02  0.51100000000E-03 0.  1.
    9900012    2    1    2    0    0  0.26620469519E+00 -0.11319489735E+01 -0.19970513855E+00  0.90008145958E+02  0.90000412684E+02 0.  0.
        -12    1    1    2    0    0 -0.26620469519E+00  0.11319489735E+01  0.19970513855E+00  0.11798540421E+01  0.00000000000E+00 0.  1.
         11    1    3    3    0    0  0.25487855459E+01  0.30326953743E+02 -0.17835773803E+02  0.35275136549E+02  0.51100000000E-03 0. -1.
        -11    1    3    3    0    0  0.29900737054E+01  0.37198795761E+01 -0.90719772018E+01  0.10250795844E+02  0.51100000000E-03 0.  1.
        -12    1    3    3    0    0 -0.52726545561E+01 -0.35178782293E+02  0.26708045866E+02  0.44482213565E+02  0.00000000000E+00 0.  1.
</event>
<event>
 7    1  0.4555057E-015  0.9000775E+02  0.7816164E-02  0.1186339E+00
        -11   -1    0    0    0    0  0.00000000000E+00  0.00000000000E+00  0.45593999997E+02  0.45594000000E+02  0.51100000000E-03 0.  1.
         11   -1    0    0    0    0 -0.00000000000E+00 -0.00000000000E+00 -0.45593999997E+02  0.45594000000E+02  0.51100000000E-03 0. -1.
    9900012    2    1    2    0    0 -0.13938750220E+00  0.10453300105E+01 -0.52994317458E+00  0.90007752791E+02  0.90000014328E+02 0.  0.
        -12    1    1    2    0    0  0.13938750220E+00 -0.10453300105E+01  0.52994317458E+00  0.11802472093E+01  0.00000000000E+00 0.  1.
         11    1    3    3    0    0 -0.49858087436E+01  0.55685510043E+01  0.80996437493E+01  0.11021400920E+02  0.51100000000E-03 0. -1.
        -11    1    3    3    0    0  0.21763395850E+02  0.31139908440E+02 -0.10671163486E+02  0.39461538579E+02  0.51100000000E-03 0.  1.
         12    1    3    3    0    0 -0.16916974609E+02 -0.35663129434E+02  0.20415765624E+01  0.39524813292E+02  0.00000000000E+00 0. -1.
</event>
<event>
 7    1  0.4555057E-015  0.9000773E+02  0.7816164E-02  0.1186339E+00
        -11   -1    0    0    0    0  0.00000000000E+00  0.00000000000E+00  0.45593999997E+02  0.45594000000E+02  0.51100000000E-03 0.  1.
         11   -1    0    0    0    0 -0.00000000000E+00 -0.00000000000E+00 -0.45593999997E+02  0.45594000000E+02  0.51100000000E-03 0. -1.
    9900012    2    1    2    0    0  0.67627635565E+00 -0.69260032102E+00 -0.67527065914E+00  0.90007730803E+02  0.89999992050E+02 0.  0.
        -12    1    1    2    0    0 -0.67627635565E+00  0.69260032102E+00  0.67527065914E+00  0.11802691968E+01  0.00000000000E+00 0.  1.
         11    1    3    3    0    0  0.96904906394E+01 -0.37491231403E+02  0.84866177665E+01  0.39642410652E+02  0.51100000000E-03 0. -1.
        -11    1    3    3    0    0 -0.68675794905E+01 -0.37086815573E+01 -0.56780270036E+01  0.96518370203E+01  0.51100000000E-03 0.  1.
        -12    1    3    3    0    0 -0.21466347932E+01  0.40507312639E+02 -0.34838614221E+01  0.40713483130E+02  0.00000000000E+00 0.  1.
</event>
<event>
 7    1  0.4555057E-015  0.9000786E+02  0.7816164E-02  0.1186339E+00
        -11   -1    0    0    0    0  0.00000000000E+00  0.00000000000E+00  0.45593999997E+02  0.45594000000E+02  0.51100000000E-03 0.  1.
         11   -1    0    0    0    0 -0.00000000000E+00 -0.00000000000E+00 -0.45593999997E+02  0.45594000000E+02  0.51100000000E-03 0. -1.
    9900012    2    1    2    0    0  0.81927335857E+00 -0.44393933973E+00 -0.72418471113E+00  0.90007858284E+02  0.90000121214E+02 0.  0.
        -12    1    1    2    0    0 -0.81927335857E+00  0.44393933973E+00  0.72418471113E+00  0.11801417158E+01  0.00000000000E+00 0.  1.
         11    1    3    3    0    0  0.37784426511E+01 -0.68890447158E+01 -0.12622842588E+02  0.14868480797E+02  0.51100000000E-03 0. -1.
        -11    1    3    3    0    0 -0.29985566889E+02  0.23824099996E+02 -0.53514962880E+01  0.38669891066E+02  0.51100000000E-03 0.  1.
         12    1    3    3    0    0  0.27026397597E+02 -0.17378994620E+02  0.17250154165E+02  0.36469486420E+02  0.00000000000E+00 0. -1.
</event>
<event>
 7    1  0.4555057E-015  0.9000742E+02  0.7816164E-02  0.1186340E+00
        -11   -1    0    0    0    0  0.00000000000E+00  0.00000000000E+00  0.45593999997E+02  0.45594000000E+02  0.51100000000E-03 0. -1.
         11   -1    0    0    0    0 -0.00000000000E+00 -0.00000000000E+00 -0.45593999997E+02  0.45594000000E+02  0.51100000000E-03 0.  1.
    9900012    2    1    2    0    0  0.37943343935E+00 -0.42414740855E+00  0.10343572425E+01  0.90007421471E+02  0.89999678633E+02 0.  0.
        -12    1    1    2    0    0 -0.37943343935E+00  0.42414740855E+00 -0.10343572425E+01  0.11805785295E+01  0.00000000000E+00 0.  1.
         11    1    3    3    0    0  0.25922817244E+02 -0.13020629692E+02 -0.21606488890E+02  0.36171392203E+02  0.51100000000E-03 0. -1.
        -11    1    3    3    0    0 -0.46557185828E+00 -0.82615070694E+01 -0.61652276948E+01  0.10318880220E+02  0.51100000000E-03 0.  1.
        -12    1    3    3    0    0 -0.25077811946E+02  0.20857989353E+02  0.28806073828E+02  0.43517149048E+02  0.00000000000E+00 0.  1.
</event>
<event>
 7    1  0.4555057E-015  0.9000785E+02  0.7816164E-02  0.1186339E+00
        -11   -1    0    0    0    0  0.00000000000E+00  0.00000000000E+00  0.45593999997E+02  0.45594000000E+02  0.51100000000E-03 0.  1.
         11   -1    0    0    0    0 -0.00000000000E+00 -0.00000000000E+00 -0.45593999997E+02  0.45594000000E+02  0.51100000000E-03 0. -1.
    9900012    2    1    2    0    0  0.11145009030E+01  0.29093494540E+00 -0.25691479407E+00  0.90007847206E+02  0.90000109989E+02 0.  0.
        -12    1    1    2    0    0 -0.11145009030E+01 -0.29093494540E+00  0.25691479407E+00  0.11801527938E+01  0.00000000000E+00 0.  1.
         11    1    3    3    0    0  0.12785865779E+02  0.12770847559E+02 -0.34056836045E+02  0.38554390058E+02  0.51100000000E-03 0. -1.
        -11    1    3    3    0    0  0.31433490427E+01 -0.74759732403E+01 -0.50643998056E+01  0.95613265161E+01  0.51100000000E-03 0.  1.
        -12    1    3    3    0    0 -0.14814713919E+02 -0.50039393736E+01  0.38864321056E+02  0.41892130632E+02  0.00000000000E+00 0.  1.
</event>
<event>
 7    1  0.4555057E-015  0.9000783E+02  0.7816164E-02  0.1186339E+00
        -11   -1    0    0    0    0  0.00000000000E+00  0.00000000000E+00  0.45593999997E+02  0.45594000000E+02  0.51100000000E-03 0. -1.
         11   -1    0    0    0    0 -0.00000000000E+00 -0.00000000000E+00 -0.45593999997E+02  0.45594000000E+02  0.51100000000E-03 0.  1.
    9900012    2    1    2    0    0  0.92059960526E+00  0.72857471139E+00  0.12036211355E+00  0.90007825529E+02  0.90000088026E+02 0.  0.
        -12    1    1    2    0    0 -0.92059960526E+00 -0.72857471139E+00 -0.12036211355E+00  0.11801744709E+01  0.00000000000E+00 0.  1.
         11    1    3    3    0    0 -0.24617266771E+02 -0.20266793121E+02  0.15821911747E+02  0.35596146115E+02  0.51100000000E-03 0. -1.
        -11    1    3    3    0    0 -0.59754495501E+01 -0.71547648323E+01  0.32794254731E-01  0.93218953468E+01  0.51100000000E-03 0.  1.
        -12    1    3    3    0    0  0.31513315926E+02  0.28150132665E+02 -0.15734343888E+02  0.45089784068E+02  0.00000000000E+00 0.  1.
</event>
<event>
 7    1  0.4555057E-015  0.9000769E+02  0.7816164E-02  0.1186339E+00
        -11   -1    0    0    0    0  0.00000000000E+00  0.00000000000E+00  0.45593999997E+02  0.45594000000E+02  0.51100000000E-03 0.  1.
         11   -1    0    0    0    0 -0.00000000000E+00 -0.00000000000E+00 -0.45593999997E+02  0.45594000000E+02  0.51100000000E-03 0. -1.
    9900012    2    1    2    0    0 -0.95209927388E+00  0.70817575740E-01  0.69398524365E+00  0.90007693398E+02  0.89999954151E+02 0.  0.
        -12    1    1    2    0    0  0.95209927388E+00 -0.70817575740E-01 -0.69398524365E+00  0.11803066020E+01  0.00000000000E+00 0.  1.
         11    1    3    3    0    0  0.30496312948E+00 -0.42211705745E+01 -0.10189738493E+02  0.11033678188E+02  0.51100000000E-03 0. -1.
        -11    1    3    3    0    0 -0.23124731078E+02 -0.29757266789E+02  0.36075525717E+01  0.37858454142E+02  0.51100000000E-03 0.  1.
         12    1    3    3    0    0  0.21867668675E+02  0.34049254939E+02  0.72761711650E+01  0.41115561069E+02  0.00000000000E+00 0. -1.
</event>
<event>
 7    1  0.4555057E-015  0.9000772E+02  0.7816164E-02  0.1186339E+00
        -11   -1    0    0    0    0  0.00000000000E+00  0.00000000000E+00  0.45593999997E+02  0.45594000000E+02  0.51100000000E-03 0. -1.
         11   -1    0    0    0    0 -0.00000000000E+00 -0.00000000000E+00 -0.45593999997E+02  0.45594000000E+02  0.51100000000E-03 0.  1.
    9900012    2    1    2    0    0  0.10653094804E+01 -0.43707666029E+00 -0.25909250321E+00  0.90007724938E+02  0.89999986107E+02 0.  0.
        -12    1    1    2    0    0 -0.10653094804E+01  0.43707666029E+00  0.25909250321E+00  0.11802750617E+01  0.00000000000E+00 0.  1.
         11    1    3    3    0    0  0.44194605542E+01  0.77224498595E+01  0.56010300973E+01  0.10513772008E+02  0.51100000000E-03 0. -1.
        -11    1    3    3    0    0  0.32328017845E+02 -0.23609629381E+02 -0.67700073524E+01  0.40599856368E+02  0.51100000000E-03 0.  1.
         12    1    3    3    0    0 -0.35682168919E+02  0.15450102861E+02  0.90988475183E+00  0.38894096563E+02  0.00000000000E+00 0. -1.
</event>
<event>
 7    1  0.4555057E-015  0.9000772E+02  0.7816164E-02  0.1186339E+00
        -11   -1    0    0    0    0  0.00000000000E+00  0.00000000000E+00  0.45593999997E+02  0.45594000000E+02  0.51100000000E-03 0.  1.
         11   -1    0    0    0    0 -0.00000000000E+00 -0.00000000000E+00 -0.45593999997E+02  0.45594000000E+02  0.51100000000E-03 0. -1.
    9900012    2    1    2    0    0 -0.11528179847E+01 -0.59648127522E-01 -0.24599824287E+00  0.90007719381E+02  0.89999980476E+02 0.  0.
        -12    1    1    2    0    0  0.11528179847E+01  0.59648127522E-01  0.24599824287E+00  0.11802806194E+01  0.00000000000E+00 0.  1.
         11    1    3    3    0    0 -0.18720551301E+01  0.10307265491E+02  0.77515011422E+00  0.10504530940E+02  0.51100000000E-03 0. -1.
        -11    1    3    3    0    0 -0.25408929937E+02 -0.19544330533E+02  0.25650031058E+02  0.41055068750E+02  0.51100000000E-03 0.  1.
         12    1    3    3    0    0  0.26128167083E+02  0.91774169139E+01 -0.26671179415E+02  0.38448119690E+02  0.00000000000E+00 0. -1.
</event>
<event>
 7    1  0.4555057E-015  0.9000756E+02  0.7816164E-02  0.1186339E+00
        -11   -1    0    0    0    0  0.00000000000E+00  0.00000000000E+00  0.45593999997E+02  0.45594000000E+02  0.51100000000E-03 0.  1.
         11   -1    0    0    0    0 -0.00000000000E+00 -0.00000000000E+00 -0.45593999997E+02  0.45594000000E+02  0.51100000000E-03 0. -1.
    9900012    2    1    2    0    0  0.17021713956E+00  0.77774949870E+00 -0.87152995597E+00  0.90007562530E+02  0.89999821555E+02 0.  0.
        -12    1    1    2    0    0 -0.17021713956E+00 -0.77774949870E+00  0.87152995597E+00  0.11804374704E+01  0.00000000000E+00 0.  1.
         11    1    3    3    0    0 -0.86391160956E+01 -0.23644353109E+02 -0.26455429726E+02  0.36518208104E+02  0.51100000000E-03 0. -1.
        -11    1    3    3    0    0  0.12465930850E+02 -0.61421865894E+01  0.71296951265E+00  0.13915251124E+02  0.51100000000E-03 0.  1.
        -12    1    3    3    0    0 -0.36565976152E+01  0.30564289198E+02  0.24870930257E+02  0.39574103302E+02  0.00000000000E+00 0.  1.
</event>
<event>
 7    1  0.4555057E-015  0.9000773E+02  0.7816164E-02  0.1186339E+00
        -11   -1    0    0    0    0  0.00000000000E+00  0.00000000000E+00  0.45593999997E+02  0.45594000000E+02  0.51100000000E-03 0. -1.
         11   -1    0    0    0    0 -0.00000000000E+00 -0.00000000000E+00 -0.45593999997E+02  0.45594000000E+02  0.51100000000E-03 0.  1.
    9900012    2    1    2    0    0 -0.62280677456E+00 -0.85306667014E+00 -0.52671339576E+00  0.90007729682E+02  0.89999990914E+02 0.  0.
        -12    1    1    2    0    0  0.62280677456E+00  0.85306667014E+00  0.52671339576E+00  0.11802703179E+01  0.00000000000E+00 0.  1.
         11    1    3    3    0    0 -0.97803827141E+01  0.27152135105E+01  0.31158586586E+01  0.10617760870E+02  0.51100000000E-03 0. -1.
        -11    1    3    3    0    0  0.12613295340E+02 -0.31610019516E+02 -0.26430752688E+02  0.43091452065E+02  0.51100000000E-03 0.  1.
         12    1    3    3    0    0 -0.34557194005E+01  0.28041739335E+02  0.22788180634E+02  0.36298516748E+02  0.00000000000E+00 0. -1.
</event>
<event>
 7    1  0.4555057E-015  0.9000775E+02  0.7816164E-02  0.1186339E+00
        -11   -1    0    0    0    0  0.00000000000E+00  0.00000000000E+00  0.45593999997E+02  0.45594000000E+02  0.51100000000E-03 0. -1.
         11   -1    0    0    0    0 -0.00000000000E+00 -0.00000000000E+00 -0.45593999997E+02  0.45594000000E+02  0.51100000000E-03 0.  1.
    9900012    2    1    2    0    0  0.44735935789E+00  0.10611332602E+01  0.25857779912E+00  0.90007747201E+02  0.90000008664E+02 0.  0.
        -12    1    1    2    0    0 -0.44735935789E+00 -0.10611332602E+01 -0.25857779912E+00  0.11802527988E+01  0.00000000000E+00 0.  1.
         11    1    3    3    0    0 -0.14024431950E+01 -0.11079991553E+02 -0.72360748458E+01  0.13307660920E+02  0.51100000000E-03 0. -1.
        -11    1    3    3    0    0 -0.26121566363E+02 -0.59276980313E+01  0.27062155129E+02  0.38076686748E+02  0.51100000000E-03 0.  1.
         12    1    3    3    0    0  0.27971368916E+02  0.18068822844E+02 -0.19567502484E+02  0.38623399533E+02  0.00000000000E+00 0. -1.
</event>
<event>
 7    1  0.4555057E-015  0.9000770E+02  0.7816164E-02  0.1186339E+00
        -11   -1    0    0    0    0  0.00000000000E+00  0.00000000000E+00  0.45593999997E+02  0.45594000000E+02  0.51100000000E-03 0. -1.
         11   -1    0    0    0    0 -0.00000000000E+00 -0.00000000000E+00 -0.45593999997E+02  0.45594000000E+02  0.51100000000E-03 0.  1.
    9900012    2    1    2    0    0  0.14760702462E-01 -0.11932436743E+00  0.11741606143E+01  0.90007699474E+02  0.89999960307E+02 0.  0.
        -12    1    1    2    0    0 -0.14760702462E-01  0.11932436743E+00 -0.11741606143E+01  0.11803005257E+01  0.00000000000E+00 0.  1.
         11    1    3    3    0    0 -0.39676562377E+01  0.79491615914E+01 -0.87768970643E+01  0.12488610346E+02  0.51100000000E-03 0. -1.
        -11    1    3    3    0    0  0.80432767737E+01  0.31742770648E+02 -0.79231423784E+01  0.33690858924E+02  0.51100000000E-03 0.  1.
         12    1    3    3    0    0 -0.40608598336E+01 -0.39811256606E+02  0.17874200057E+02  0.43828230204E+02  0.00000000000E+00 0. -1.
</event>
<event>
 7    1  0.4555057E-015  0.9000771E+02  0.7816164E-02  0.1186339E+00
        -11   -1    0    0    0    0  0.00000000000E+00  0.00000000000E+00  0.45593999997E+02  0.45594000000E+02  0.51100000000E-03 0.  1.
         11   -1    0    0    0    0 -0.00000000000E+00 -0.00000000000E+00 -0.45593999997E+02  0.45594000000E+02  0.51100000000E-03 0. -1.
    9900012    2    1    2    0    0 -0.55296695195E+00 -0.88764309911E+00 -0.54718415803E+00  0.90007706298E+02  0.89999967221E+02 0.  0.
        -12    1    1    2    0    0  0.55296695195E+00  0.88764309911E+00  0.54718415803E+00  0.11802937025E+01  0.00000000000E+00 0.  1.
         11    1    3    3    0    0 -0.36891750368E+02 -0.19103578780E+02 -0.13806644447E+01  0.41567465667E+02  0.51100000000E-03 0. -1.
        -11    1    3    3    0    0  0.33755169035E+00 -0.53078269974E+01 -0.92788219211E+00  0.53988826809E+01  0.51100000000E-03 0.  1.
        -12    1    3    3    0    0  0.36001231726E+02  0.23523762679E+02  0.17613624788E+01  0.43041357949E+02  0.00000000000E+00 0.  1.
</event>
<event>
 7    1  0.4555057E-015  0.9000771E+02  0.7816164E-02  0.1186339E+00
        -11   -1    0    0    0    0  0.00000000000E+00  0.00000000000E+00  0.45593999997E+02  0.45594000000E+02  0.51100000000E-03 0. -1.
         11   -1    0    0    0    0 -0.00000000000E+00 -0.00000000000E+00 -0.45593999997E+02  0.45594000000E+02  0.51100000000E-03 0.  1.
    9900012    2    1    2    0    0  0.25192447047E+00  0.87291201745E+00  0.75342491145E+00  0.90007707483E+02  0.89999968422E+02 0.  0.
        -12    1    1    2    0    0 -0.25192447047E+00 -0.87291201745E+00 -0.75342491145E+00  0.11802925172E+01  0.00000000000E+00 0.  1.
         11    1    3    3    0    0 -0.25965719572E+02  0.16219902604E+02 -0.21614066735E+01  0.30691619580E+02  0.51100000000E-03 0. -1.
        -11    1    3    3    0    0 -0.12548706927E+02  0.69803271449E+01  0.25143815534E+01  0.14577967192E+02  0.51100000000E-03 0.  1.
        -12    1    3    3    0    0  0.38766350969E+02 -0.22327317731E+02  0.40045003147E+00  0.44738120711E+02  0.00000000000E+00 0.  1.
</event>
<event>
 7    1  0.4555057E-015  0.9000780E+02  0.7816164E-02  0.1186339E+00
        -11   -1    0    0    0    0  0.00000000000E+00  0.00000000000E+00  0.45593999997E+02  0.45594000000E+02  0.51100000000E-03 0.  1.
         11   -1    0    0    0    0 -0.00000000000E+00 -0.00000000000E+00 -0.45593999997E+02  0.45594000000E+02  0.51100000000E-03 0. -1.
    9900012    2    1    2    0    0  0.10206763949E+01  0.59242202472E+00  0.11255515457E-01  0.90007800506E+02  0.90000062673E+02 0.  0.
        -12    1    1    2    0    0 -0.10206763949E+01 -0.59242202472E+00 -0.11255515457E-01  0.11801994938E+01  0.00000000000E+00 0.  1.
         11    1    3    3    0    0  0.21107650878E+02  0.22117052702E+02 -0.20606167333E+02  0.36868836139E+02  0.51100000000E-03 0. -1.
        -11    1    3    3    0    0  0.16335512245E+01  0.72603394829E+01 -0.49469803166E+01  0.89360860294E+01  0.51100000000E-03 0.  1.
        -12    1    3    3    0    0 -0.21720525708E+02 -0.28784970161E+02  0.25564403165E+02  0.44202878338E+02  0.00000000000E+00 0.  1.
</event>
<event>
 7    1  0.4555057E-015  0.9000644E+02  0.7816164E-02  0.1186342E+00
        -11   -1    0    0    0    0  0.00000000000E+00  0.00000000000E+00  0.45593999997E+02  0.45594000000E+02  0.51100000000E-03 0. -1.
         11   -1    0    0    0    0 -0.00000000000E+00 -0.00000000000E+00 -0.45593999997E+02  0.45594000000E+02  0.51100000000E-03 0.  1.
    9900012    2    1    2    0    0 -0.80283121720E+00 -0.64759034327E+00 -0.57634099576E+00  0.90006441639E+02  0.89998685859E+02 0.  0.
        -12    1    1    2    0    0  0.80283121720E+00  0.64759034327E+00  0.57634099576E+00  0.11815583606E+01  0.00000000000E+00 0.  1.
         11    1    3    3    0    0 -0.28682100847E+02  0.96780676089E+01 -0.19496244919E+02  0.36005992110E+02  0.51100000000E-03 0. -1.
        -11    1    3    3    0    0 -0.38079947346E+01 -0.35124380454E+01 -0.95474344913E+01  0.10862391567E+02  0.51100000000E-03 0.  1.
        -12    1    3    3    0    0  0.31687264364E+02 -0.68132199068E+01  0.28467338414E+02  0.43138057963E+02  0.00000000000E+00 0.  1.
</event>
<event>
 7    1  0.4555057E-015  0.9000762E+02  0.7816164E-02  0.1186339E+00
        -11   -1    0    0    0    0  0.00000000000E+00  0.00000000000E+00  0.45593999997E+02  0.45594000000E+02  0.51100000000E-03 0. -1.
         11   -1    0    0    0    0 -0.00000000000E+00 -0.00000000000E+00 -0.45593999997E+02  0.45594000000E+02  0.51100000000E-03 0.  1.
    9900012    2    1    2    0    0 -0.48543388247E+00 -0.34141014775E+00  0.10203421925E+01  0.90007616531E+02  0.89999876269E+02 0.  0.
        -12    1    1    2    0    0  0.48543388247E+00  0.34141014775E+00 -0.10203421925E+01  0.11803834687E+01  0.00000000000E+00 0.  1.
         11    1    3    3    0    0 -0.64885473103E+01  0.64593638250E+01 -0.12097491998E+01  0.92351567723E+01  0.51100000000E-03 0. -1.
        -11    1    3    3    0    0 -0.15862576954E+02 -0.14037816279E+02  0.34884903524E+02  0.40812230123E+02  0.51100000000E-03 0.  1.
         12    1    3    3    0    0  0.21865690382E+02  0.72370423063E+01 -0.32654812131E+02  0.39960229636E+02  0.00000000000E+00 0. -1.
</event>
<event>
 7    1  0.4555057E-015  0.9000768E+02  0.7816164E-02  0.1186339E+00
        -11   -1    0    0    0    0  0.00000000000E+00  0.00000000000E+00  0.45593999997E+02  0.45594000000E+02  0.51100000000E-03 0.  1.
         11   -1    0    0    0    0 -0.00000000000E+00 -0.00000000000E+00 -0.45593999997E+02  0.45594000000E+02  0.51100000000E-03 0. -1.
    9900012    2    1    2    0    0  0.38276335168E-02 -0.24397650980E+00 -0.11548183576E+01  0.90007684522E+02  0.89999945158E+02 0.  0.
        -12    1    1    2    0    0 -0.38276335168E-02  0.24397650980E+00  0.11548183576E+01  0.11803154778E+01  0.00000000000E+00 0.  1.
         11    1    3    3    0    0 -0.29756484946E+02  0.83073490514E+01  0.25150139889E+02  0.39837042828E+02  0.51100000000E-03 0. -1.
        -11    1    3    3    0    0 -0.55329155596E+01 -0.83853988561E+00 -0.77465749477E+01  0.95564495191E+01  0.51100000000E-03 0.  1.
        -12    1    3    3    0    0  0.35293228139E+02 -0.77127856756E+01 -0.18558383299E+02  0.40614192175E+02  0.00000000000E+00 0.  1.
</event>
<event>
 7    1  0.4555057E-015  0.9000770E+02  0.7816164E-02  0.1186339E+00
        -11   -1    0    0    0    0  0.00000000000E+00  0.00000000000E+00  0.45593999997E+02  0.45594000000E+02  0.51100000000E-03 0.  1.
         11   -1    0    0    0    0 -0.00000000000E+00 -0.00000000000E+00 -0.45593999997E+02  0.45594000000E+02  0.51100000000E-03 0. -1.
    9900012    2    1    2    0    0 -0.10786662889E+01 -0.31534913775E+00 -0.36075102679E+00  0.90007700316E+02  0.89999961160E+02 0.  0.
        -12    1    1    2    0    0  0.10786662889E+01  0.31534913775E+00  0.36075102679E+00  0.11802996843E+01  0.00000000000E+00 0.  1.
         11    1    3    3    0    0 -0.14552666316E+02 -0.14779796914E+02 -0.32137493875E+02  0.38249719040E+02  0.51100000000E-03 0. -1.
        -11    1    3    3    0    0  0.15990176598E+01  0.12509020860E+02 -0.46143336919E+01  0.13428497162E+02  0.51100000000E-03 0.  1.
        -12    1    3    3    0    0  0.11874982368E+02  0.19554269166E+01  0.36391076541E+02  0.38329484114E+02  0.00000000000E+00 0.  1.
</event>
<event>
 7    1  0.4555057E-015  0.9000775E+02  0.7816164E-02  0.1186339E+00
        -11   -1    0    0    0    0  0.00000000000E+00  0.00000000000E+00  0.45593999997E+02  0.45594000000E+02  0.51100000000E-03 0. -1.
         11   -1    0    0    0    0 -0.00000000000E+00 -0.00000000000E+00 -0.45593999997E+02  0.45594000000E+02  0.51100000000E-03 0.  1.
    9900012    2    1    2    0    0  0.52369104903E-01 -0.11630184568E+01 -0.19398509764E+00  0.90007752284E+02  0.90000013814E+02 0.  0.
        -12    1    1    2    0    0 -0.52369104903E-01  0.11630184568E+01  0.19398509764E+00  0.11802477165E+01  0.00000000000E+00 0.  1.
         11    1    3    3    0    0 -0.52407389200E+01  0.65285116585E+01  0.12572750193E+02  0.15104994425E+02  0.51100000000E-03 0. -1.
        -11    1    3    3    0    0  0.13691410619E+02  0.21939863180E+02 -0.30001898470E+02  0.39609673480E+02  0.51100000000E-03 0.  1.
         12    1    3    3    0    0 -0.83983025938E+01 -0.29631393296E+02  0.17235163179E+02  0.35293084378E+02  0.00000000000E+00 0. -1.
</event>
<event>
 7    1  0.4555057E-015  0.9000768E+02  0.7816164E-02  0.1186339E+00
        -11   -1    0    0    0    0  0.00000000000E+00  0.00000000000E+00  0.45593999997E+02  0.45594000000E+02  0.51100000000E-03 0. -1.
         11   -1    0    0    0    0 -0.00000000000E+00 -0.00000000000E+00 -0.45593999997E+02  0.45594000000E+02  0.51100000000E-03 0.  1.
    9900012    2    1    2    0    0  0.29884864455E+00  0.45846254026E+00  0.10457795899E+01  0.90007680821E+02  0.89999941408E+02 0.  0.
        -12    1    1    2    0    0 -0.29884864455E+00 -0.45846254026E+00 -0.10457795899E+01  0.11803191788E+01  0.00000000000E+00 0.  1.
         11    1    3    3    0    0 -0.85165852225E+01 -0.16941802753E+01 -0.46513533070E+01  0.98507643615E+01  0.51100000000E-03 0. -1.
        -11    1    3    3    0    0 -0.18833130923E+02 -0.31109153122E+02  0.62601531370E+01  0.36900619858E+02  0.51100000000E-03 0.  1.
         12    1    3    3    0    0  0.27648564791E+02  0.33261795937E+02 -0.56302024004E+00  0.43256296602E+02  0.00000000000E+00 0. -1.
</event>
<event>
 7    1  0.4555057E-015  0.9000786E+02  0.7816164E-02  0.1186339E+00
        -11   -1    0    0    0    0  0.00000000000E+00  0.00000000000E+00  0.45593999997E+02  0.45594000000E+02  0.51100000000E-03 0. -1.
         11   -1    0    0    0    0 -0.00000000000E+00 -0.00000000000E+00 -0.45593999997E+02  0.45594000000E+02  0.51100000000E-03 0.  1.
    9900012    2    1    2    0    0 -0.14705255212E+00  0.11031491373E+01 -0.39263045883E+00  0.90007863928E+02  0.90000126931E+02 0.  0.
        -12    1    1    2    0    0  0.14705255212E+00 -0.11031491373E+01  0.39263045883E+00  0.11801360724E+01  0.00000000000E+00 0.  1.
         11    1    3    3    0    0 -0.14158590437E+01  0.33572249815E+02  0.16324154502E+02  0.37357444170E+02  0.51100000000E-03 0. -1.
        -11    1    3    3    0    0 -0.50353767608E+01  0.35206452845E+01  0.68266270049E+01  0.91843779794E+01  0.51100000000E-03 0.  1.
        -12    1    3    3    0    0  0.63041832524E+01 -0.35989745962E+02 -0.23543411965E+02  0.43466041778E+02  0.00000000000E+00 0.  1.
</event>
<event>
 7    1  0.4555057E-015  0.9000786E+02  0.7816164E-02  0.1186339E+00
        -11   -1    0    0    0    0  0.00000000000E+00  0.00000000000E+00  0.45593999997E+02  0.45594000000E+02  0.51100000000E-03 0.  1.
         11   -1    0    0    0    0 -0.00000000000E+00 -0.00000000000E+00 -0.45593999997E+02  0.45594000000E+02  0.51100000000E-03 0. -1.
    9900012    2    1    2    0    0  0.44544080979E+00 -0.93766328198E+00  0.56133333209E+00  0.90007862273E+02  0.90000125255E+02 0.  0.
        -12    1    1    2    0    0 -0.44544080979E+00  0.93766328198E+00 -0.56133333209E+00  0.11801377272E+01  0.00000000000E+00 0.  1.
         11    1    3    3    0    0  0.88469185978E+01 -0.92155640691E+00  0.48926853121E+01  0.10151630643E+02  0.51100000000E-03 0. -1.
        -11    1    3    3    0    0  0.18712616293E+02 -0.13003112516E+02  0.27738599789E+02  0.35898089951E+02  0.51100000000E-03 0.  1.
         12    1    3    3    0    0 -0.27114094081E+02  0.12987005641E+02 -0.32069951769E+02  0.43958141679E+02  0.00000000000E+00 0. -1.
</event>
<event>
 7    1  0.4555057E-015  0.9000783E+02  0.7816164E-02  0.1186339E+00
        -11   -1    0    0    0    0  0.00000000000E+00  0.00000000000E+00  0.45593999997E+02  0.45594000000E+02  0.51100000000E-03 0. -1.
         11   -1    0    0    0    0 -0.00000000000E+00 -0.00000000000E+00 -0.45593999997E+02  0.45594000000E+02  0.51100000000E-03 0.  1.
    9900012    2    1    2    0    0 -0.76311005771E+00 -0.32386435462E+00 -0.83998434667E+00  0.90007831036E+02  0.90000093606E+02 0.  0.
        -12    1    1    2    0    0  0.76311005771E+00  0.32386435462E+00  0.83998434667E+00  0.11801689638E+01  0.00000000000E+00 0.  1.
         11    1    3    3    0    0 -0.82869979114E+01 -0.46713604540E+00  0.32398488450E+01  0.89100601158E+01  0.51100000000E-03 0. -1.
        -11    1    3    3    0    0 -0.15263872025E+02  0.35341938898E+02 -0.67375908980E+01  0.39082394574E+02  0.51100000000E-03 0.  1.
         12    1    3    3    0    0  0.22787759879E+02 -0.35198667208E+02  0.26577577063E+01  0.42015376346E+02  0.00000000000E+00 0. -1.
</event>
<event>
 7    1  0.4555057E-015  0.9000740E+02  0.7816164E-02  0.1186340E+00
        -11   -1    0    0    0    0  0.00000000000E+00  0.00000000000E+00  0.45593999997E+02  0.45594000000E+02  0.51100000000E-03 0.  1.
         11   -1    0    0    0    0 -0.00000000000E+00 -0.00000000000E+00 -0.45593999997E+02  0.45594000000E+02  0.51100000000E-03 0. -1.
    9900012    2    1    2    0    0 -0.35060477962E+00  0.89571786340E+00 -0.68453204674E+00  0.90007399168E+02  0.89999656036E+02 0.  0.
        -12    1    1    2    0    0  0.35060477962E+00 -0.89571786340E+00  0.68453204674E+00  0.11806008323E+01  0.00000000000E+00 0.  1.
         11    1    3    3    0    0 -0.79721229007E+01  0.52717259548E+01  0.21304321943E+01  0.97920671812E+01  0.51100000000E-03 0. -1.
        -11    1    3    3    0    0  0.39904351087E+02 -0.52184632943E+01  0.15457295605E+02  0.43110527514E+02  0.51100000000E-03 0.  1.
         12    1    3    3    0    0 -0.32282832966E+02  0.84245520288E+00 -0.18272259846E+02  0.37104804473E+02  0.00000000000E+00 0. -1.
</event>
<event>
 7    1  0.4555057E-015  0.9000777E+02  0.7816164E-02  0.1186339E+00
        -11   -1    0    0    0    0  0.00000000000E+00  0.00000000000E+00  0.45593999997E+02  0.45594000000E+02  0.51100000000E-03 0.  1.
         11   -1    0    0    0    0 -0.00000000000E+00 -0.00000000000E+00 -0.45593999997E+02  0.45594000000E+02  0.51100000000E-03 0. -1.
    9900012    2    1    2    0    0 -0.99241744536E+00 -0.62089249657E+00 -0.15013303398E+00  0.90007771291E+02  0.90000033072E+02 0.  0.
        -12    1    1    2    0    0  0.99241744536E+00  0.62089249657E+00  0.15013303398E+00  0.11802287092E+01  0.00000000000E+00 0.  1.
         11    1    3    3    0    0 -0.63109516522E+01  0.81464648898E+01 -0.30523894061E+01  0.10747561691E+02  0.51100000000E-03 0. -1.
        -11    1    3    3    0    0  0.31714477142E+02  0.95270622782E+01  0.23944712354E+02  0.40864681891E+02  0.51100000000E-03 0.  1.
         12    1    3    3    0    0 -0.26395942935E+02 -0.18294419665E+02 -0.21042455982E+02  0.38395527709E+02  0.00000000000E+00 0. -1.
</event>
<event>
 7    1  0.4555057E-015  0.9000771E+02  0.7816164E-02  0.1186339E+00
        -11   -1    0    0    0    0  0.00000000000E+00  0.00000000000E+00  0.45593999997E+02  0.45594000000E+02  0.51100000000E-03 0.  1.
         11   -1    0    0    0    0 -0.00000000000E+00 -0.00000000000E+00 -0.45593999997E+02  0.45594000000E+02  0.51100000000E-03 0. -1.
    9900012    2    1    2    0    0 -0.72452385905E+00 -0.60598942569E+00 -0.70776889763E+00  0.90007705622E+02  0.89999966536E+02 0.  0.
        -12    1    1    2    0    0  0.72452385905E+00  0.60598942569E+00  0.70776889763E+00  0.11802943780E+01  0.00000000000E+00 0.  1.
         11    1    3    3    0    0 -0.68402680806E+01  0.18915027009E+01  0.72068141693E+01  0.10114604323E+02  0.51100000000E-03 0. -1.
        -11    1    3    3    0    0 -0.23933663453E+02  0.16759565800E+02  0.19294473921E+02  0.35013997433E+02  0.51100000000E-03 0.  1.
         12    1    3    3    0    0  0.30049407675E+02 -0.19257057927E+02 -0.27209056988E+02  0.44879103866E+02  0.00000000000E+00 0. -1.
</event>
<event>
 7    1  0.4555057E-015  0.9000772E+02  0.7816164E-02  0.1186339E+00
        -11   -1    0    0    0    0  0.00000000000E+00  0.00000000000E+00  0.45593999997E+02  0.45594000000E+02  0.51100000000E-03 0. -1.
         11   -1    0    0    0    0 -0.00000000000E+00 -0.00000000000E+00 -0.45593999997E+02  0.45594000000E+02  0.51100000000E-03 0.  1.
    9900012    2    1    2    0    0 -0.84342271392E+00 -0.50228549892E+00  0.65529901984E+00  0.90007716389E+02  0.89999977445E+02 0.  0.
        -12    1    1    2    0    0  0.84342271392E+00  0.50228549892E+00 -0.65529901984E+00  0.11802836109E+01  0.00000000000E+00 0.  1.
         11    1    3    3    0    0  0.46721665389E+01  0.86413363081E+01  0.43431393397E+02  0.44528505096E+02  0.51100000000E-03 0. -1.
        -11    1    3    3    0    0 -0.42526239836E+01  0.13163025581E+01 -0.81609554626E+01  0.92961635901E+01  0.51100000000E-03 0.  1.
        -12    1    3    3    0    0 -0.12629652692E+01 -0.10459924365E+02 -0.34615138915E+02  0.36183047703E+02  0.00000000000E+00 0.  1.
</event>
<event>
 7    1  0.4555057E-015  0.9000776E+02  0.7816164E-02  0.1186339E+00
        -11   -1    0    0    0    0  0.00000000000E+00  0.00000000000E+00  0.45593999997E+02  0.45594000000E+02  0.51100000000E-03 0. -1.
         11   -1    0    0    0    0 -0.00000000000E+00 -0.00000000000E+00 -0.45593999997E+02  0.45594000000E+02  0.51100000000E-03 0.  1.
    9900012    2    1    2    0    0  0.10120805104E+01  0.59445290603E+00  0.12359315749E+00  0.90007764225E+02  0.90000025912E+02 0.  0.
        -12    1    1    2    0    0 -0.10120805104E+01 -0.59445290603E+00 -0.12359315749E+00  0.11802357755E+01  0.00000000000E+00 0.  1.
         11    1    3    3    0    0 -0.79109645636E+01  0.44449937989E+01  0.12369686465E+02  0.15341136650E+02  0.51100000000E-03 0. -1.
        -11    1    3    3    0    0 -0.13486890355E+02 -0.19781596961E+02  0.20773735831E+02  0.31697884636E+02  0.51100000000E-03 0.  1.
         12    1    3    3    0    0  0.22409935429E+02  0.15931056068E+02 -0.33019829139E+02  0.42968742939E+02  0.00000000000E+00 0. -1.
</event>
<event>
 7    1  0.4555057E-015  0.9000773E+02  0.7816164E-02  0.1186339E+00
        -11   -1    0    0    0    0  0.00000000000E+00  0.00000000000E+00  0.45593999997E+02  0.45594000000E+02  0.51100000000E-03 0.  1.
         11   -1    0    0    0    0 -0.00000000000E+00 -0.00000000000E+00 -0.45593999997E+02  0.45594000000E+02  0.51100000000E-03 0. -1.
    9900012    2    1    2    0    0 -0.25929500008E+00  0.30618892723E-01 -0.11510241699E+01  0.90007733906E+02  0.89999995193E+02 0.  0.
        -12    1    1    2    0    0  0.25929500008E+00 -0.30618892723E-01  0.11510241699E+01  0.11802660943E+01  0.00000000000E+00 0.  1.
         11    1    3    3    0    0 -0.58678950888E+01  0.45776880814E+01  0.73553977644E+01  0.10463713369E+02  0.51100000000E-03 0. -1.
        -11    1    3    3    0    0 -0.33340527183E+02  0.13156435279E+02 -0.81566168241E+01  0.36758848464E+02  0.51100000000E-03 0.  1.
         12    1    3    3    0    0  0.38949127272E+02 -0.17703504468E+02 -0.34980511013E+00  0.42785172073E+02  0.00000000000E+00 0. -1.
</event>
<event>
 7    1  0.4555057E-015  0.9000772E+02  0.7816164E-02  0.1186339E+00
        -11   -1    0    0    0    0  0.00000000000E+00  0.00000000000E+00  0.45593999997E+02  0.45594000000E+02  0.51100000000E-03 0.  1.
         11   -1    0    0    0    0 -0.00000000000E+00 -0.00000000000E+00 -0.45593999997E+02  0.45594000000E+02  0.51100000000E-03 0. -1.
    9900012    2    1    2    0    0 -0.60000180087E+00  0.53880010203E+00 -0.86182791045E+00  0.90007722466E+02  0.89999983602E+02 0.  0.
        -12    1    1    2    0    0  0.60000180087E+00 -0.53880010203E+00  0.86182791045E+00  0.11802775344E+01  0.00000000000E+00 0.  1.
         11    1    3    3    0    0  0.14073668452E+02  0.50153070243E+01  0.78924496929E+01  0.16897106577E+02  0.51100000000E-03 0. -1.
        -11    1    3    3    0    0 -0.17438109264E+02  0.86771787186E+00  0.29557580983E+02  0.34329159367E+02  0.51100000000E-03 0.  1.
         12    1    3    3    0    0  0.27644390112E+01 -0.53442247942E+01 -0.38311858586E+02  0.38781456522E+02  0.00000000000E+00 0. -1.
</event>
<event>
 7    1  0.4555057E-015  0.9000767E+02  0.7816164E-02  0.1186339E+00
        -11   -1    0    0    0    0  0.00000000000E+00  0.00000000000E+00  0.45593999997E+02  0.45594000000E+02  0.51100000000E-03 0. -1.
         11   -1    0    0    0    0 -0.00000000000E+00 -0.00000000000E+00 -0.45593999997E+02  0.45594000000E+02  0.51100000000E-03 0.  1.
    9900012    2    1    2    0    0  0.11100252441E+01  0.38973581997E+00  0.95539268974E-01  0.90007670468E+02  0.89999930918E+02 0.  0.
        -12    1    1    2    0    0 -0.11100252441E+01 -0.38973581997E+00 -0.95539268974E-01  0.11803295319E+01  0.00000000000E+00 0.  1.
         11    1    3    3    0    0  0.63242757524E+00 -0.10192642234E+02 -0.40327333635E+01  0.10979656597E+02  0.51100000000E-03 0. -1.
        -11    1    3    3    0    0  0.30475421722E+02 -0.93391640722E+01  0.22095976049E+02  0.38784062094E+02  0.51100000000E-03 0.  1.
         12    1    3    3    0    0 -0.29997824053E+02  0.19921542126E+02 -0.17967703417E+02  0.40243951777E+02  0.00000000000E+00 0. -1.
</event>
<event>
 7    1  0.5712004E-015  0.9000760E+02  0.7816164E-02  0.1186339E+00
        -11   -1    0    0    0    0  0.00000000000E+00  0.00000000000E+00  0.45593999997E+02  0.45594000000E+02  0.51100000000E-03 0. -1.
         11   -1    0    0    0    0 -0.00000000000E+00 -0.00000000000E+00 -0.45593999997E+02  0.45594000000E+02  0.51100000000E-03 0.  1.
    9900012    2    1    2    0    0 -0.38181385161E+00  0.96780979436E+00  0.55758488352E+00  0.90007602390E+02  0.89999861941E+02 0.  0.
        -12    1    1    2    0    0  0.38181385161E+00 -0.96780979436E+00 -0.55758488352E+00  0.11803976100E+01  0.00000000000E+00 0.  1.
         11    1    3    3    0    0  0.52613567491E+00 -0.40682375794E+01 -0.82350834481E+01  0.92002160524E+01  0.51100000000E-03 0. -1.
        -11    1    3    3    0    0  0.14097439852E+02 -0.20158878837E+02 -0.25672030641E+02  0.35555187580E+02  0.51100000000E-03 0.  1.
         12    1    3    3    0    0 -0.15005389378E+02  0.25194926211E+02  0.34464698972E+02  0.45252198758E+02  0.00000000000E+00 0. -1.
</event>
<event>
 7    1  0.4555057E-015  0.9000767E+02  0.7816164E-02  0.1186339E+00
        -11   -1    0    0    0    0  0.00000000000E+00  0.00000000000E+00  0.45593999997E+02  0.45594000000E+02  0.51100000000E-03 0.  1.
         11   -1    0    0    0    0 -0.00000000000E+00 -0.00000000000E+00 -0.45593999997E+02  0.45594000000E+02  0.51100000000E-03 0. -1.
    9900012    2    1    2    0    0  0.10681457266E+01 -0.11512382792E+00  0.48885698449E+00  0.90007673799E+02  0.89999934293E+02 0.  0.
        -12    1    1    2    0    0 -0.10681457266E+01  0.11512382792E+00 -0.48885698449E+00  0.11803262008E+01  0.00000000000E+00 0.  1.
         11    1    3    3    0    0 -0.42359711905E+01  0.99533582982E+01 -0.34147382020E+01  0.11343422349E+02  0.51100000000E-03 0. -1.
        -11    1    3    3    0    0 -0.34572410053E+02 -0.30752723508E+01 -0.95560904221E+01  0.36000384738E+02  0.51100000000E-03 0.  1.
         12    1    3    3    0    0  0.39876526970E+02 -0.69932097753E+01  0.13459685609E+02  0.42663866712E+02  0.00000000000E+00 0. -1.
</event>
<event>
 7    1  0.4555057E-015  0.9000771E+02  0.7816164E-02  0.1186339E+00
        -11   -1    0    0    0    0  0.00000000000E+00  0.00000000000E+00  0.45593999997E+02  0.45594000000E+02  0.51100000000E-03 0.  1.
         11   -1    0    0    0    0 -0.00000000000E+00 -0.00000000000E+00 -0.45593999997E+02  0.45594000000E+02  0.51100000000E-03 0. -1.
    9900012    2    1    2    0    0 -0.78464142453E+00  0.73311265709E+00 -0.48987561286E+00  0.90007705779E+02  0.89999966695E+02 0.  0.
        -12    1    1    2    0    0  0.78464142453E+00 -0.73311265709E+00  0.48987561286E+00  0.11802942214E+01  0.00000000000E+00 0.  1.
         11    1    3    3    0    0 -0.11498583162E+00 -0.14850608714E+02 -0.35430449929E+02  0.38417061097E+02  0.51100000000E-03 0. -1.
        -11    1    3    3    0    0 -0.67617509941E+01 -0.53441308363E+01 -0.18622729663E+01  0.88175434087E+01  0.51100000000E-03 0.  1.
        -12    1    3    3    0    0  0.60920954012E+01  0.20927852207E+02  0.36802847282E+02  0.42773101273E+02  0.00000000000E+00 0.  1.
</event>
<event>
 7    1  0.4555057E-015  0.9000754E+02  0.7816164E-02  0.1186339E+00
        -11   -1    0    0    0    0  0.00000000000E+00  0.00000000000E+00  0.45593999997E+02  0.45594000000E+02  0.51100000000E-03 0. -1.
         11   -1    0    0    0    0 -0.00000000000E+00 -0.00000000000E+00 -0.45593999997E+02  0.45594000000E+02  0.51100000000E-03 0.  1.
    9900012    2    1    2    0    0  0.11743167322E+01 -0.48921394310E-01  0.10991061477E+00  0.90007536772E+02  0.89999795457E+02 0.  0.
        -12    1    1    2    0    0 -0.11743167322E+01  0.48921394310E-01 -0.10991061477E+00  0.11804632284E+01  0.00000000000E+00 0.  1.
         11    1    3    3    0    0  0.31274930637E+02  0.17864388670E+02  0.14128891462E+02  0.38689575380E+02  0.51100000000E-03 0. -1.
        -11    1    3    3    0    0  0.66766771315E+01 -0.21578349550E+01 -0.83524950787E+01  0.10908640773E+02  0.51100000000E-03 0.  1.
        -12    1    3    3    0    0 -0.36777291036E+02 -0.15755475110E+02 -0.56664857683E+01  0.40409320618E+02  0.00000000000E+00 0.  1.
</event>
<event>
 7    1  0.4555057E-015  0.9000774E+02  0.7816164E-02  0.1186339E+00
        -11   -1    0    0    0    0  0.00000000000E+00  0.00000000000E+00  0.45593999997E+02  0.45594000000E+02  0.51100000000E-03 0.  1.
         11   -1    0    0    0    0 -0.00000000000E+00 -0.00000000000E+00 -0.45593999997E+02  0.45594000000E+02  0.51100000000E-03 0. -1.
    9900012    2    1    2    0    0 -0.10446916711E+01  0.51408547779E+00 -0.19325501247E+00  0.90007740679E+02  0.90000002055E+02 0.  0.
        -12    1    1    2    0    0  0.10446916711E+01 -0.51408547779E+00  0.19325501247E+00  0.11802593215E+01  0.00000000000E+00 0.  1.
         11    1    3    3    0    0  0.26379438016E+01  0.14993127938E+02 -0.28190912020E+01  0.15482244938E+02  0.51100000000E-03 0. -1.
        -11    1    3    3    0    0 -0.29048698930E+02  0.15908961377E+02 -0.68560728070E+01  0.33822000181E+02  0.51100000000E-03 0.  1.
         12    1    3    3    0    0  0.25366063458E+02 -0.30388003837E+02  0.94819089966E+01  0.40703495560E+02  0.00000000000E+00 0. -1.
</event>
<event>
 7    1  0.4555057E-015  0.9000767E+02  0.7816164E-02  0.1186339E+00
        -11   -1    0    0    0    0  0.00000000000E+00  0.00000000000E+00  0.45593999997E+02  0.45594000000E+02  0.51100000000E-03 0.  1.
         11   -1    0    0    0    0 -0.00000000000E+00 -0.00000000000E+00 -0.45593999997E+02  0.45594000000E+02  0.51100000000E-03 0. -1.
    9900012    2    1    2    0    0  0.11603602806E+01  0.13819559879E+00  0.16629990757E+00  0.90007665444E+02  0.89999925828E+02 0.  0.
        -12    1    1    2    0    0 -0.11603602806E+01 -0.13819559879E+00 -0.16629990757E+00  0.11803345558E+01  0.00000000000E+00 0.  1.
         11    1    3    3    0    0 -0.20898390636E+01  0.82449242992E+01 -0.17682394417E+01  0.86875125897E+01  0.51100000000E-03 0. -1.
        -11    1    3    3    0    0  0.59698060759E+01  0.32158993999E+02  0.18634206244E+02  0.37644031694E+02  0.51100000000E-03 0.  1.
         12    1    3    3    0    0 -0.27196067317E+01 -0.40265722699E+02 -0.16699666894E+02  0.43676121161E+02  0.00000000000E+00 0. -1.
</event>
<event>
 7    1  0.4555057E-015  0.9000763E+02  0.7816164E-02  0.1186339E+00
        -11   -1    0    0    0    0  0.00000000000E+00  0.00000000000E+00  0.45593999997E+02  0.45594000000E+02  0.51100000000E-03 0. -1.
         11   -1    0    0    0    0 -0.00000000000E+00 -0.00000000000E+00 -0.45593999997E+02  0.45594000000E+02  0.51100000000E-03 0.  1.
    9900012    2    1    2    0    0  0.47777613519E+00  0.10637455901E+01  0.18289156050E+00  0.90007629703E+02  0.89999889615E+02 0.  0.
        -12    1    1    2    0    0 -0.47777613519E+00 -0.10637455901E+01 -0.18289156050E+00  0.11803702973E+01  0.00000000000E+00 0.  1.
         11    1    3    3    0    0  0.33572101236E+02  0.19019467998E+02  0.12435874221E+02  0.40539821314E+02  0.51100000000E-03 0. -1.
        -11    1    3    3    0    0  0.53897796461E+01 -0.44242510628E+01 -0.38898777162E+00  0.69839125029E+01  0.51100000000E-03 0.  1.
        -12    1    3    3    0    0 -0.38484104747E+02 -0.13531471345E+02 -0.11863994889E+02  0.42483895886E+02  0.00000000000E+00 0.  1.
</event>
<event>
 7    1  0.4555057E-015  0.9000794E+02  0.7816164E-02  0.1186339E+00
        -11   -1    0    0    0    0  0.00000000000E+00  0.00000000000E+00  0.45593999997E+02  0.45594000000E+02  0.51100000000E-03 0.  1.
         11   -1    0    0    0    0 -0.00000000000E+00 -0.00000000000E+00 -0.45593999997E+02  0.45594000000E+02  0.51100000000E-03 0. -1.
    9900012    2    1    2    0    0 -0.96596397747E+00 -0.36998841397E+00 -0.56794346822E+00  0.90007941690E+02  0.90000205720E+02 0.  0.
        -12    1    1    2    0    0  0.96596397747E+00  0.36998841397E+00  0.56794346822E+00  0.11800583101E+01  0.00000000000E+00 0.  1.
         11    1    3    3    0    0 -0.68384226409E+01 -0.20469978025E+01  0.13143714111E+02  0.14956986498E+02  0.51100000000E-03 0. -1.
        -11    1    3    3    0    0  0.17788184528E+02 -0.27805672672E+02  0.10983944753E+02  0.34788244914E+02  0.51100000000E-03 0.  1.
         12    1    3    3    0    0 -0.11915725865E+02  0.29482682061E+02 -0.24695602332E+02  0.40262710278E+02  0.00000000000E+00 0. -1.
</event>
<event>
 7    1  0.4555057E-015  0.9000777E+02  0.7816164E-02  0.1186339E+00
        -11   -1    0    0    0    0  0.00000000000E+00  0.00000000000E+00  0.45593999997E+02  0.45594000000E+02  0.51100000000E-03 0.  1.
         11   -1    0    0    0    0 -0.00000000000E+00 -0.00000000000E+00 -0.45593999997E+02  0.45594000000E+02  0.51100000000E-03 0. -1.
    9900012    2    1    2    0    0 -0.73994585667E+00 -0.64507292255E+00 -0.65521929744E+00  0.90007766432E+02  0.90000028149E+02 0.  0.
        -12    1    1    2    0    0  0.73994585667E+00  0.64507292255E+00  0.65521929744E+00  0.11802335675E+01  0.00000000000E+00 0.  1.
         11    1    3    3    0    0  0.52312028727E+01  0.69570535825E+01  0.57783490645E+01  0.10447745987E+02  0.51100000000E-03 0. -1.
        -11    1    3    3    0    0 -0.23436759092E+02  0.27885794766E+02  0.82855030146E+01  0.37357044677E+02  0.51100000000E-03 0.  1.
         12    1    3    3    0    0  0.17465610363E+02 -0.35487921271E+02 -0.14719071377E+02  0.42202975768E+02  0.00000000000E+00 0. -1.
</event>
<event>
 7    1  0.4555057E-015  0.9000799E+02  0.7816164E-02  0.1186339E+00
        -11   -1    0    0    0    0  0.00000000000E+00  0.00000000000E+00  0.45593999997E+02  0.45594000000E+02  0.51100000000E-03 0. -1.
         11   -1    0    0    0    0 -0.00000000000E+00 -0.00000000000E+00 -0.45593999997E+02  0.45594000000E+02  0.51100000000E-03 0.  1.
    9900012    2    1    2    0    0 -0.35105835906E+00 -0.43274361920E+00  0.10401527942E+01  0.90007988624E+02  0.90000253274E+02 0.  0.
        -12    1    1    2    0    0  0.35105835906E+00  0.43274361920E+00 -0.10401527942E+01  0.11800113757E+01  0.00000000000E+00 0.  1.
         11    1    3    3    0    0  0.13654683742E+01 -0.10374699487E+02 -0.28845434953E+01  0.10854468423E+02  0.51100000000E-03 0. -1.
        -11    1    3    3    0    0  0.35762079752E+02  0.80690588434E-01  0.15101236054E+02  0.38819842733E+02  0.51100000000E-03 0.  1.
         12    1    3    3    0    0 -0.37478606485E+02  0.98612652790E+01 -0.11176539765E+02  0.40333677468E+02  0.00000000000E+00 0. -1.
</event>
<event>
 7    1  0.4555057E-015  0.9000815E+02  0.7816164E-02  0.1186338E+00
        -11   -1    0    0    0    0  0.00000000000E+00  0.00000000000E+00  0.45593999997E+02  0.45594000000E+02  0.51100000000E-03 0. -1.
         11   -1    0    0    0    0 -0.00000000000E+00 -0.00000000000E+00 -0.45593999997E+02  0.45594000000E+02  0.51100000000E-03 0.  1.
    9900012    2    1    2    0    0 -0.45046067535E+00  0.88124767382E+00  0.64229204662E+00  0.90008147740E+02  0.90000414489E+02 0.  0.
        -12    1    1    2    0    0  0.45046067535E+00 -0.88124767382E+00 -0.64229204662E+00  0.11798522602E+01  0.00000000000E+00 0.  1.
         11    1    3    3    0    0  0.81548259672E-01  0.42517736734E+02  0.86674010614E+01  0.43392262312E+02  0.51100000000E-03 0. -1.
        -11    1    3    3    0    0 -0.66502989770E+01 -0.95657443780E+01  0.32155321084E+01  0.12085925243E+02  0.51100000000E-03 0.  1.
        -12    1    3    3    0    0  0.61182900419E+01 -0.32070744682E+02 -0.11240641123E+02  0.34529960185E+02  0.00000000000E+00 0.  1.
</event>
<event>
 7    1  0.4555057E-015  0.9000751E+02  0.7816164E-02  0.1186340E+00
        -11   -1    0    0    0    0  0.00000000000E+00  0.00000000000E+00  0.45593999997E+02  0.45594000000E+02  0.51100000000E-03 0.  1.
         11   -1    0    0    0    0 -0.00000000000E+00 -0.00000000000E+00 -0.45593999997E+02  0.45594000000E+02  0.51100000000E-03 0. -1.
    9900012    2    1    2    0    0 -0.28555749043E+00 -0.63705568892E+00 -0.95193597489E+00  0.90007506403E+02  0.89999764688E+02 0.  0.
        -12    1    1    2    0    0  0.28555749043E+00  0.63705568892E+00  0.95193597489E+00  0.11804935965E+01  0.00000000000E+00 0.  1.
         11    1    3    3    0    0 -0.35975221198E+01  0.36129373206E+02 -0.18953003906E+02  0.40957174353E+02  0.51100000000E-03 0. -1.
        -11    1    3    3    0    0 -0.40807815035E+01 -0.23036393981E+01  0.12534902992E+02  0.13382201815E+02  0.51100000000E-03 0.  1.
        -12    1    3    3    0    0  0.73927461328E+01 -0.34462789497E+02  0.54661649390E+01  0.35668130235E+02  0.00000000000E+00 0.  1.
</event>
<event>
 7    1  0.4555057E-015  0.9000781E+02  0.7816164E-02  0.1186339E+00
        -11   -1    0    0    0    0  0.00000000000E+00  0.00000000000E+00  0.45593999997E+02  0.45594000000E+02  0.51100000000E-03 0. -1.
         11   -1    0    0    0    0 -0.00000000000E+00 -0.00000000000E+00 -0.45593999997E+02  0.45594000000E+02  0.51100000000E-03 0.  1.
    9900012    2    1    2    0    0 -0.98123490145E+00 -0.23699588512E+00 -0.61143148969E+00  0.90007814655E+02  0.90000077009E+02 0.  0.
        -12    1    1    2    0    0  0.98123490145E+00  0.23699588512E+00  0.61143148969E+00  0.11801853448E+01  0.00000000000E+00 0.  1.
         11    1    3    3    0    0 -0.49353836368E+00  0.13706474158E+01 -0.57077880122E+01  0.58907638476E+01  0.51100000000E-03 0. -1.
        -11    1    3    3    0    0 -0.35849282419E+02 -0.10313573742E+02 -0.17557224378E+02  0.41228594220E+02  0.51100000000E-03 0.  1.
         12    1    3    3    0    0  0.35361585881E+02  0.87059304409E+01  0.22653580900E+02  0.42888456587E+02  0.00000000000E+00 0. -1.
</event>
<event>
 7    1  0.4555057E-015  0.9000776E+02  0.7816164E-02  0.1186339E+00
        -11   -1    0    0    0    0  0.00000000000E+00  0.00000000000E+00  0.45593999997E+02  0.45594000000E+02  0.51100000000E-03 0.  1.
         11   -1    0    0    0    0 -0.00000000000E+00 -0.00000000000E+00 -0.45593999997E+02  0.45594000000E+02  0.51100000000E-03 0. -1.
    9900012    2    1    2    0    0  0.85825321289E+00  0.53871224489E+00 -0.60511164778E+00  0.90007758683E+02  0.90000020298E+02 0.  0.
        -12    1    1    2    0    0 -0.85825321289E+00 -0.53871224489E+00  0.60511164778E+00  0.11802413171E+01  0.00000000000E+00 0.  1.
         11    1    3    3    0    0  0.67090558579E+01 -0.56235186100E+01 -0.17679452372E+01  0.89309026803E+01  0.51100000000E-03 0. -1.
        -11    1    3    3    0    0  0.19173776417E+02 -0.20932646624E+02 -0.23379069010E+02  0.36774859140E+02  0.51100000000E-03 0.  1.
         12    1    3    3    0    0 -0.25024579062E+02  0.27094877479E+02  0.24541902599E+02  0.44301996862E+02  0.00000000000E+00 0. -1.
</event>
<event>
 7    1  0.4555057E-015  0.9000773E+02  0.7816164E-02  0.1186339E+00
        -11   -1    0    0    0    0  0.00000000000E+00  0.00000000000E+00  0.45593999997E+02  0.45594000000E+02  0.51100000000E-03 0.  1.
         11   -1    0    0    0    0 -0.00000000000E+00 -0.00000000000E+00 -0.45593999997E+02  0.45594000000E+02  0.51100000000E-03 0. -1.
    9900012    2    1    2    0    0 -0.21140065900E-01  0.10122506364E+01 -0.60657552347E+00  0.90007732183E+02  0.89999993448E+02 0.  0.
        -12    1    1    2    0    0  0.21140065900E-01 -0.10122506364E+01  0.60657552347E+00  0.11802678166E+01  0.00000000000E+00 0.  1.
         11    1    3    3    0    0  0.49402093078E+01 -0.63117233133E+01 -0.71018256227E+01  0.10708848987E+02  0.51100000000E-03 0. -1.
        -11    1    3    3    0    0 -0.26980441806E+01 -0.34113484137E+02  0.14272612853E+02  0.37077172496E+02  0.51100000000E-03 0.  1.
         12    1    3    3    0    0 -0.22633051931E+01  0.41437458087E+02 -0.77773627534E+01  0.42221710701E+02  0.00000000000E+00 0. -1.
</event>
<event>
 7    1  0.4555057E-015  0.9000779E+02  0.7816164E-02  0.1186339E+00
        -11   -1    0    0    0    0  0.00000000000E+00  0.00000000000E+00  0.45593999997E+02  0.45594000000E+02  0.51100000000E-03 0.  1.
         11   -1    0    0    0    0 -0.00000000000E+00 -0.00000000000E+00 -0.45593999997E+02  0.45594000000E+02  0.51100000000E-03 0. -1.
    9900012    2    1    2    0    0 -0.73101473836E+00 -0.23556356643E+00 -0.89611815606E+00  0.90007787947E+02  0.90000049947E+02 0.  0.
        -12    1    1    2    0    0  0.73101473836E+00  0.23556356643E+00  0.89611815606E+00  0.11802120535E+01  0.00000000000E+00 0.  1.
         11    1    3    3    0    0 -0.15505171495E+02 -0.28988705318E+02 -0.14699544096E+02  0.36011553368E+02  0.51100000000E-03 0. -1.
        -11    1    3    3    0    0  0.36898820003E+01 -0.10648790779E+02  0.28563801425E+01  0.11626301304E+02  0.51100000000E-03 0.  1.
        -12    1    3    3    0    0  0.11084274757E+02  0.39401932530E+02  0.10947045797E+02  0.42369933275E+02  0.00000000000E+00 0.  1.
</event>
<event>
 7    1  0.4555057E-015  0.9000776E+02  0.7816164E-02  0.1186339E+00
        -11   -1    0    0    0    0  0.00000000000E+00  0.00000000000E+00  0.45593999997E+02  0.45594000000E+02  0.51100000000E-03 0.  1.
         11   -1    0    0    0    0 -0.00000000000E+00 -0.00000000000E+00 -0.45593999997E+02  0.45594000000E+02  0.51100000000E-03 0. -1.
    9900012    2    1    2    0    0  0.34198769488E+00  0.58536764259E+00 -0.96609827178E+00  0.90007764121E+02  0.90000025807E+02 0.  0.
        -12    1    1    2    0    0 -0.34198769488E+00 -0.58536764259E+00  0.96609827178E+00  0.11802358795E+01  0.00000000000E+00 0.  1.
         11    1    3    3    0    0  0.12079458408E+02 -0.14833239586E+01 -0.90244028271E+00  0.12203604554E+02  0.51100000000E-03 0. -1.
        -11    1    3    3    0    0  0.88049999643E+01  0.35142890425E+02  0.10011912912E+02  0.37587087839E+02  0.51100000000E-03 0.  1.
         12    1    3    3    0    0 -0.20542470677E+02 -0.33074198824E+02 -0.10075570901E+02  0.40217071727E+02  0.00000000000E+00 0. -1.
</event>
<event>
 7    1  0.4555057E-015  0.9000756E+02  0.7816164E-02  0.1186339E+00
        -11   -1    0    0    0    0  0.00000000000E+00  0.00000000000E+00  0.45593999997E+02  0.45594000000E+02  0.51100000000E-03 0.  1.
         11   -1    0    0    0    0 -0.00000000000E+00 -0.00000000000E+00 -0.45593999997E+02  0.45594000000E+02  0.51100000000E-03 0. -1.
    9900012    2    1    2    0    0  0.59994108992E+00  0.10157556872E+01 -0.41769765707E-01  0.90007562098E+02  0.89999821117E+02 0.  0.
        -12    1    1    2    0    0 -0.59994108992E+00 -0.10157556872E+01  0.41769765707E-01  0.11804379022E+01  0.00000000000E+00 0.  1.
         11    1    3    3    0    0  0.37513317838E+02  0.59621650306E+01  0.66919885047E+00  0.37990054678E+02  0.51100000000E-03 0. -1.
        -11    1    3    3    0    0  0.73400578430E+01 -0.15332134159E+01 -0.13961759906E+01  0.76273521077E+01  0.51100000000E-03 0.  1.
        -12    1    3    3    0    0 -0.44253434591E+02 -0.34131959275E+01  0.68520737440E+00  0.44390155313E+02  0.00000000000E+00 0.  1.
</event>
<event>
 7    1  0.4555057E-015  0.9000771E+02  0.7816164E-02  0.1186339E+00
        -11   -1    0    0    0    0  0.00000000000E+00  0.00000000000E+00  0.45593999997E+02  0.45594000000E+02  0.51100000000E-03 0.  1.
         11   -1    0    0    0    0 -0.00000000000E+00 -0.00000000000E+00 -0.45593999997E+02  0.45594000000E+02  0.51100000000E-03 0. -1.
    9900012    2    1    2    0    0 -0.87296006894E+00  0.16251632733E-01  0.79420929297E+00  0.90007706901E+02  0.89999967833E+02 0.  0.
        -12    1    1    2    0    0  0.87296006894E+00 -0.16251632733E-01 -0.79420929297E+00  0.11802930986E+01  0.00000000000E+00 0.  1.
         11    1    3    3    0    0  0.28441561586E+02  0.10949383780E+02 -0.19796337377E+02  0.36341524520E+02  0.51100000000E-03 0. -1.
        -11    1    3    3    0    0  0.29325709993E+01  0.22555842412E+01 -0.78589812603E+01  0.86862661510E+01  0.51100000000E-03 0.  1.
        -12    1    3    3    0    0 -0.32247092654E+02 -0.13188716389E+02  0.28449527930E+02  0.44979916230E+02  0.00000000000E+00 0.  1.
</event>
<event>
 7    1  0.4555057E-015  0.9000743E+02  0.7816164E-02  0.1186340E+00
        -11   -1    0    0    0    0  0.00000000000E+00  0.00000000000E+00  0.45593999997E+02  0.45594000000E+02  0.51100000000E-03 0. -1.
         11   -1    0    0    0    0 -0.00000000000E+00 -0.00000000000E+00 -0.45593999997E+02  0.45594000000E+02  0.51100000000E-03 0.  1.
    9900012    2    1    2    0    0  0.50147235965E+00 -0.41689909532E+00  0.98410519258E+00  0.90007431318E+02  0.89999688611E+02 0.  0.
        -12    1    1    2    0    0 -0.50147235965E+00  0.41689909532E+00 -0.98410519258E+00  0.11805686821E+01  0.00000000000E+00 0.  1.
         11    1    3    3    0    0  0.22332970642E+01  0.43417949508E+00 -0.10631833928E+02  0.10872535148E+02  0.51100000000E-03 0. -1.
        -11    1    3    3    0    0 -0.39005771542E+02 -0.89698589917E+01  0.38893172967E+01  0.40212378358E+02  0.51100000000E-03 0.  1.
         12    1    3    3    0    0  0.37273946837E+02  0.81187804013E+01  0.77266218240E+01  0.38922517812E+02  0.00000000000E+00 0. -1.
</event>
<event>
 7    1  0.4555057E-015  0.9000776E+02  0.7816164E-02  0.1186339E+00
        -11   -1    0    0    0    0  0.00000000000E+00  0.00000000000E+00  0.45593999997E+02  0.45594000000E+02  0.51100000000E-03 0.  1.
         11   -1    0    0    0    0 -0.00000000000E+00 -0.00000000000E+00 -0.45593999997E+02  0.45594000000E+02  0.51100000000E-03 0. -1.
    9900012    2    1    2    0    0 -0.10352789247E+01  0.56655163644E+00  0.13325942002E-01  0.90007762401E+02  0.90000024065E+02 0.  0.
        -12    1    1    2    0    0  0.10352789247E+01 -0.56655163644E+00 -0.13325942002E-01  0.11802375987E+01  0.00000000000E+00 0.  1.
         11    1    3    3    0    0  0.32894865602E+02  0.10926287283E+02 -0.10285564858E+02  0.36155895529E+02  0.51100000000E-03 0. -1.
        -11    1    3    3    0    0  0.87595607935E+01  0.48223932494E+00  0.93487430734E+00  0.88224968288E+01  0.51100000000E-03 0.  1.
        -12    1    3    3    0    0 -0.42689705321E+02 -0.10841974971E+02  0.93640164925E+01  0.45029370044E+02  0.00000000000E+00 0.  1.
</event>
<event>
 7    1  0.4555057E-015  0.9000772E+02  0.7816164E-02  0.1186339E+00
        -11   -1    0    0    0    0  0.00000000000E+00  0.00000000000E+00  0.45593999997E+02  0.45594000000E+02  0.51100000000E-03 0. -1.
         11   -1    0    0    0    0 -0.00000000000E+00 -0.00000000000E+00 -0.45593999997E+02  0.45594000000E+02  0.51100000000E-03 0.  1.
    9900012    2    1    2    0    0  0.46843450632E+00  0.66381312181E+00  0.85613885219E+00  0.90007723557E+02  0.89999984708E+02 0.  0.
        -12    1    1    2    0    0 -0.46843450632E+00 -0.66381312181E+00 -0.85613885219E+00  0.11802764429E+01  0.00000000000E+00 0.  1.
         11    1    3    3    0    0 -0.20259874118E+02  0.30866994239E+02  0.48675488625E+01  0.37241467007E+02  0.51100000000E-03 0. -1.
        -11    1    3    3    0    0 -0.81794413521E+01  0.12844643619E+01  0.41305211289E+01  0.92528003646E+01  0.51100000000E-03 0.  1.
        -12    1    3    3    0    0  0.28907749977E+02 -0.31487645479E+02 -0.81419311391E+01  0.43513456186E+02  0.00000000000E+00 0.  1.
</event>
<event>
 7    1  0.4555057E-015  0.9000813E+02  0.7816164E-02  0.1186338E+00
        -11   -1    0    0    0    0  0.00000000000E+00  0.00000000000E+00  0.45593999997E+02  0.45594000000E+02  0.51100000000E-03 0.  1.
         11   -1    0    0    0    0 -0.00000000000E+00 -0.00000000000E+00 -0.45593999997E+02  0.45594000000E+02  0.51100000000E-03 0. -1.
    9900012    2    1    2    0    0 -0.49389943256E+00 -0.74744526926E+00 -0.76778084835E+00  0.90008127756E+02  0.90000394242E+02 0.  0.
        -12    1    1    2    0    0  0.49389943256E+00  0.74744526926E+00  0.76778084835E+00  0.11798722436E+01  0.00000000000E+00 0.  1.
         11    1    3    3    0    0  0.70302560247E+01  0.46813401657E+01 -0.62660651605E+01  0.10516796964E+02  0.51100000000E-03 0. -1.
        -11    1    3    3    0    0  0.24094964734E+02 -0.30590047899E+01  0.30587574924E+02  0.39057964307E+02  0.51100000000E-03 0.  1.
         12    1    3    3    0    0 -0.31619120191E+02 -0.23697806451E+01 -0.25089290611E+02  0.40433366486E+02  0.00000000000E+00 0. -1.
</event>
<event>
 7    1  0.4555057E-015  0.9000784E+02  0.7816164E-02  0.1186339E+00
        -11   -1    0    0    0    0  0.00000000000E+00  0.00000000000E+00  0.45593999997E+02  0.45594000000E+02  0.51100000000E-03 0.  1.
         11   -1    0    0    0    0 -0.00000000000E+00 -0.00000000000E+00 -0.45593999997E+02  0.45594000000E+02  0.51100000000E-03 0. -1.
    9900012    2    1    2    0    0  0.10432499646E+00 -0.20074463823E+00 -0.11582760991E+01  0.90007836606E+02  0.90000099249E+02 0.  0.
        -12    1    1    2    0    0 -0.10432499646E+00  0.20074463823E+00  0.11582760991E+01  0.11801633940E+01  0.00000000000E+00 0.  1.
         11    1    3    3    0    0  0.32026757146E+01  0.71607330057E+01  0.58328400996E+01  0.97752367133E+01  0.51100000000E-03 0. -1.
        -11    1    3    3    0    0 -0.84464828203E+01  0.11670957547E+01  0.35528595074E+02  0.36537463688E+02  0.51100000000E-03 0.  1.
         12    1    3    3    0    0  0.53481321021E+01 -0.85285733987E+01 -0.42519711273E+02  0.43695136205E+02  0.00000000000E+00 0. -1.
</event>
<event>
 7    1  0.4555057E-015  0.9000780E+02  0.7816164E-02  0.1186339E+00
        -11   -1    0    0    0    0  0.00000000000E+00  0.00000000000E+00  0.45593999997E+02  0.45594000000E+02  0.51100000000E-03 0.  1.
         11   -1    0    0    0    0 -0.00000000000E+00 -0.00000000000E+00 -0.45593999997E+02  0.45594000000E+02  0.51100000000E-03 0. -1.
    9900012    2    1    2    0    0 -0.91478202533E+00  0.69032622475E+00  0.28195646202E+00  0.90007798366E+02  0.90000060504E+02 0.  0.
        -12    1    1    2    0    0  0.91478202533E+00 -0.69032622475E+00 -0.28195646202E+00  0.11802016340E+01  0.00000000000E+00 0.  1.
         11    1    3    3    0    0 -0.17446633019E+01  0.74290636499E+01 -0.48949295856E+01  0.90661553406E+01  0.51100000000E-03 0. -1.
        -11    1    3    3    0    0 -0.18203150387E+02  0.25832678251E+01  0.37802743953E+02  0.42036596048E+02  0.51100000000E-03 0.  1.
         12    1    3    3    0    0  0.19033031664E+02 -0.93220052502E+01 -0.32625857906E+02  0.38905046977E+02  0.00000000000E+00 0. -1.
</event>
<event>
 7    1  0.4555057E-015  0.9000775E+02  0.7816164E-02  0.1186339E+00
        -11   -1    0    0    0    0  0.00000000000E+00  0.00000000000E+00  0.45593999997E+02  0.45594000000E+02  0.51100000000E-03 0.  1.
         11   -1    0    0    0    0 -0.00000000000E+00 -0.00000000000E+00 -0.45593999997E+02  0.45594000000E+02  0.51100000000E-03 0. -1.
    9900012    2    1    2    0    0 -0.11432711807E+01  0.24988219409E+00 -0.15320539831E+00  0.90007753417E+02  0.90000014962E+02 0.  0.
        -12    1    1    2    0    0  0.11432711807E+01 -0.24988219409E+00  0.15320539831E+00  0.11802465834E+01  0.00000000000E+00 0.  1.
         11    1    3    3    0    0 -0.98410011218E+01  0.48240776085E+01  0.33272535243E+00  0.10964840823E+02  0.51100000000E-03 0. -1.
        -11    1    3    3    0    0 -0.91384255432E+01  0.34163051528E+02 -0.65563076836E+01  0.35966791375E+02  0.51100000000E-03 0.  1.
         12    1    3    3    0    0  0.17836155484E+02 -0.38737246942E+02  0.60703769328E+01  0.43076121219E+02  0.00000000000E+00 0. -1.
</event>
<event>
 7    1  0.4555057E-015  0.9000792E+02  0.7816164E-02  0.1186339E+00
        -11   -1    0    0    0    0  0.00000000000E+00  0.00000000000E+00  0.45593999997E+02  0.45594000000E+02  0.51100000000E-03 0.  1.
         11   -1    0    0    0    0 -0.00000000000E+00 -0.00000000000E+00 -0.45593999997E+02  0.45594000000E+02  0.51100000000E-03 0. -1.
    9900012    2    1    2    0    0  0.10747793895E+01  0.24326572194E+00  0.42220999718E+00  0.90007919397E+02  0.90000183133E+02 0.  0.
        -12    1    1    2    0    0 -0.10747793895E+01 -0.24326572194E+00 -0.42220999718E+00  0.11800806029E+01  0.00000000000E+00 0.  1.
         11    1    3    3    0    0 -0.24552133235E+02 -0.18399146220E+02  0.68385001733E+01  0.31434072483E+02  0.51100000000E-03 0. -1.
        -11    1    3    3    0    0 -0.62399914561E+01  0.48143720253E+01  0.15578263986E+02  0.17458464435E+02  0.51100000000E-03 0.  1.
         12    1    3    3    0    0  0.31866904080E+02  0.13828039916E+02 -0.21994554162E+02  0.41115382479E+02  0.00000000000E+00 0. -1.
</event>
<event>
 7    1  0.4555057E-015  0.9000772E+02  0.7816164E-02  0.1186339E+00
        -11   -1    0    0    0    0  0.00000000000E+00  0.00000000000E+00  0.45593999997E+02  0.45594000000E+02  0.51100000000E-03 0.  1.
         11   -1    0    0    0    0 -0.00000000000E+00 -0.00000000000E+00 -0.45593999997E+02  0.45594000000E+02  0.51100000000E-03 0. -1.
    9900012    2    1    2    0    0 -0.11378546988E+01  0.60956111594E-01  0.30762358782E+00  0.90007719849E+02  0.89999980951E+02 0.  0.
        -12    1    1    2    0    0  0.11378546988E+01 -0.60956111594E-01 -0.30762358782E+00  0.11802801510E+01  0.00000000000E+00 0.  1.
         11    1    3    3    0    0 -0.65435862573E+01 -0.64261877050E+01 -0.23561691355E+01  0.94692102513E+01  0.51100000000E-03 0. -1.
        -11    1    3    3    0    0  0.11520252495E+02 -0.31694321902E+02  0.18833636724E+02  0.38625796184E+02  0.51100000000E-03 0.  1.
         12    1    3    3    0    0 -0.61145209361E+01  0.38181465719E+02 -0.16169844000E+02  0.41912713414E+02  0.00000000000E+00 0. -1.
</event>
<event>
 7    1  0.4555057E-015  0.9000777E+02  0.7816164E-02  0.1186339E+00
        -11   -1    0    0    0    0  0.00000000000E+00  0.00000000000E+00  0.45593999997E+02  0.45594000000E+02  0.51100000000E-03 0. -1.
         11   -1    0    0    0    0 -0.00000000000E+00 -0.00000000000E+00 -0.45593999997E+02  0.45594000000E+02  0.51100000000E-03 0.  1.
    9900012    2    1    2    0    0  0.27596148449E-01 -0.10310856061E+01  0.57362916073E+00  0.90007767189E+02  0.90000028916E+02 0.  0.
        -12    1    1    2    0    0 -0.27596148449E-01  0.10310856061E+01 -0.57362916073E+00  0.11802328111E+01  0.00000000000E+00 0.  1.
         11    1    3    3    0    0 -0.22502259281E+02 -0.58510086992E+01 -0.31180232933E+01  0.23458645423E+02  0.51100000000E-03 0. -1.
        -11    1    3    3    0    0 -0.75212209821E+01  0.13382459039E+01 -0.24214874669E+02  0.25391333613E+02  0.51100000000E-03 0.  1.
         12    1    3    3    0    0  0.30051076412E+02  0.34816771893E+01  0.27906527123E+02  0.41157788153E+02  0.00000000000E+00 0. -1.
</event>
<event>
 7    1  0.4555057E-015  0.9000779E+02  0.7816164E-02  0.1186339E+00
        -11   -1    0    0    0    0  0.00000000000E+00  0.00000000000E+00  0.45593999997E+02  0.45594000000E+02  0.51100000000E-03 0. -1.
         11   -1    0    0    0    0 -0.00000000000E+00 -0.00000000000E+00 -0.45593999997E+02  0.45594000000E+02  0.51100000000E-03 0.  1.
    9900012    2    1    2    0    0  0.91120645009E+00  0.63806437762E+00  0.39428582108E+00  0.90007794656E+02  0.90000056746E+02 0.  0.
        -12    1    1    2    0    0 -0.91120645009E+00 -0.63806437762E+00 -0.39428582108E+00  0.11802053437E+01  0.00000000000E+00 0.  1.
         11    1    3    3    0    0  0.12226681371E+02 -0.73859366256E+01  0.34497650875E+01  0.14695056196E+02  0.51100000000E-03 0. -1.
        -11    1    3    3    0    0  0.46234724340E+01 -0.26329640698E+02 -0.20430847309E+02  0.33645891260E+02  0.51100000000E-03 0.  1.
         12    1    3    3    0    0 -0.15938947355E+02  0.34353641702E+02  0.17375368043E+02  0.41666847200E+02  0.00000000000E+00 0. -1.
</event>
<event>
 7    1  0.4555057E-015  0.9000771E+02  0.7816164E-02  0.1186339E+00
        -11   -1    0    0    0    0  0.00000000000E+00  0.00000000000E+00  0.45593999997E+02  0.45594000000E+02  0.51100000000E-03 0. -1.
         11   -1    0    0    0    0 -0.00000000000E+00 -0.00000000000E+00 -0.45593999997E+02  0.45594000000E+02  0.51100000000E-03 0.  1.
    9900012    2    1    2    0    0 -0.61918889113E+00 -0.78462607534E+00  0.62774366990E+00  0.90007705513E+02  0.89999966426E+02 0.  0.
        -12    1    1    2    0    0  0.61918889113E+00  0.78462607534E+00 -0.62774366990E+00  0.11802944870E+01  0.00000000000E+00 0.  1.
         11    1    3    3    0    0 -0.25037022787E+01 -0.10053111289E+02 -0.45284602583E+01  0.11306658404E+02  0.51100000000E-03 0. -1.
        -11    1    3    3    0    0 -0.34827334938E+02 -0.16514432865E+01  0.16752933272E+02  0.38682441719E+02  0.51100000000E-03 0.  1.
         12    1    3    3    0    0  0.36711848326E+02  0.10919928500E+02 -0.11596729344E+02  0.40018605391E+02  0.00000000000E+00 0. -1.
</event>
<event>
 7    1  0.4555057E-015  0.9000775E+02  0.7816164E-02  0.1186339E+00
        -11   -1    0    0    0    0  0.00000000000E+00  0.00000000000E+00  0.45593999997E+02  0.45594000000E+02  0.51100000000E-03 0. -1.
         11   -1    0    0    0    0 -0.00000000000E+00 -0.00000000000E+00 -0.45593999997E+02  0.45594000000E+02  0.51100000000E-03 0.  1.
    9900012    2    1    2    0    0 -0.10497009620E+01  0.49361333446E+00 -0.21785292098E+00  0.90007751666E+02  0.90000013188E+02 0.  0.
        -12    1    1    2    0    0  0.10497009620E+01 -0.49361333446E+00  0.21785292098E+00  0.11802483335E+01  0.00000000000E+00 0.  1.
         11    1    3    3    0    0  0.63948305471E+00  0.54739647961E+01 -0.83045040971E+01  0.99668459267E+01  0.51100000000E-03 0. -1.
        -11    1    3    3    0    0 -0.31983584092E+02 -0.20176553080E+02 -0.13159275069E+02  0.40040098229E+02  0.51100000000E-03 0.  1.
         12    1    3    3    0    0  0.30294400075E+02  0.15196201618E+02  0.21245926245E+02  0.40000807511E+02  0.00000000000E+00 0. -1.
</event>
<event>
 7    1  0.4555057E-015  0.9000771E+02  0.7816164E-02  0.1186339E+00
        -11   -1    0    0    0    0  0.00000000000E+00  0.00000000000E+00  0.45593999997E+02  0.45594000000E+02  0.51100000000E-03 0. -1.
         11   -1    0    0    0    0 -0.00000000000E+00 -0.00000000000E+00 -0.45593999997E+02  0.45594000000E+02  0.51100000000E-03 0.  1.
    9900012    2    1    2    0    0 -0.42063690427E+00  0.30832062166E-01  0.11023578926E+01  0.90007712347E+02  0.89999973350E+02 0.  0.
        -12    1    1    2    0    0  0.42063690427E+00 -0.30832062166E-01 -0.11023578926E+01  0.11802876534E+01  0.00000000000E+00 0.  1.
         11    1    3    3    0    0  0.10284478268E+02 -0.58536066947E+01 -0.13668486604E+02  0.18079345422E+02  0.51100000000E-03 0. -1.
        -11    1    3    3    0    0  0.28678651266E+02  0.94430540733E+01  0.15517210104E+01  0.30233163034E+02  0.51100000000E-03 0.  1.
         12    1    3    3    0    0 -0.39383766438E+02 -0.35586153164E+01  0.13219123486E+02  0.41695203891E+02  0.00000000000E+00 0. -1.
</event>
<event>
 7    1  0.4555057E-015  0.9000816E+02  0.7816164E-02  0.1186338E+00
        -11   -1    0    0    0    0  0.00000000000E+00  0.00000000000E+00  0.45593999997E+02  0.45594000000E+02  0.51100000000E-03 0. -1.
         11   -1    0    0    0    0 -0.00000000000E+00 -0.00000000000E+00 -0.45593999997E+02  0.45594000000E+02  0.51100000000E-03 0.  1.
    9900012    2    1    2    0    0  0.11052996623E+01 -0.38526429763E+00 -0.14803350704E+00  0.90008156857E+02  0.90000423727E+02 0.  0.
        -12    1    1    2    0    0 -0.11052996623E+01  0.38526429763E+00  0.14803350704E+00  0.11798431428E+01  0.00000000000E+00 0.  1.
         11    1    3    3    0    0  0.24246158129E+02  0.27582736353E+02  0.19459219471E+02  0.41561337219E+02  0.51100000000E-03 0. -1.
        -11    1    3    3    0    0  0.10660940280E+01  0.76813706455E+00 -0.94281042722E+01  0.95192300873E+01  0.51100000000E-03 0.  1.
        -12    1    3    3    0    0 -0.24206952494E+02 -0.28736137715E+02 -0.10179148706E+02  0.38927589551E+02  0.00000000000E+00 0.  1.
</event>
<event>
 7    1  0.4555057E-015  0.9000776E+02  0.7816164E-02  0.1186339E+00
        -11   -1    0    0    0    0  0.00000000000E+00  0.00000000000E+00  0.45593999997E+02  0.45594000000E+02  0.51100000000E-03 0. -1.
         11   -1    0    0    0    0 -0.00000000000E+00 -0.00000000000E+00 -0.45593999997E+02  0.45594000000E+02  0.51100000000E-03 0.  1.
    9900012    2    1    2    0    0  0.16774391677E+00  0.91119802306E+00  0.73113201672E+00  0.90007756854E+02  0.90000018444E+02 0.  0.
        -12    1    1    2    0    0 -0.16774391677E+00 -0.91119802306E+00 -0.73113201672E+00  0.11802431464E+01  0.00000000000E+00 0.  1.
         11    1    3    3    0    0  0.39036709037E+02 -0.82804792936E+01 -0.49477570255E+01  0.40210835475E+02  0.51100000000E-03 0. -1.
        -11    1    3    3    0    0 -0.47688024720E+01 -0.77189434448E+01 -0.48721812158E+01  0.10298626849E+02  0.51100000000E-03 0.  1.
        -12    1    3    3    0    0 -0.34100162648E+02  0.16910620761E+02  0.10551070258E+02  0.39498294529E+02  0.00000000000E+00 0.  1.
</event>
<event>
 7    1  0.4555057E-015  0.9000771E+02  0.7816164E-02  0.1186339E+00
        -11   -1    0    0    0    0  0.00000000000E+00  0.00000000000E+00  0.45593999997E+02  0.45594000000E+02  0.51100000000E-03 0.  1.
         11   -1    0    0    0    0 -0.00000000000E+00 -0.00000000000E+00 -0.45593999997E+02  0.45594000000E+02  0.51100000000E-03 0. -1.
    9900012    2    1    2    0    0 -0.66880742728E+00  0.93940249772E+00  0.25162471387E+00  0.90007705366E+02  0.89999966276E+02 0.  0.
        -12    1    1    2    0    0  0.66880742728E+00 -0.93940249772E+00 -0.25162471387E+00  0.11802946345E+01  0.00000000000E+00 0.  1.
         11    1    3    3    0    0 -0.73792746484E+01 -0.13221455746E+01  0.95567530350E+01  0.12146328338E+02  0.51100000000E-03 0. -1.
        -11    1    3    3    0    0 -0.18197665659E+02 -0.16273281725E+02  0.22653915579E+02  0.33304273372E+02  0.51100000000E-03 0.  1.
         12    1    3    3    0    0  0.24908132880E+02  0.18534829797E+02 -0.31959043900E+02  0.44557103656E+02  0.00000000000E+00 0. -1.
</event>
<event>
 7    1  0.4555057E-015  0.9000779E+02  0.7816164E-02  0.1186339E+00
        -11   -1    0    0    0    0  0.00000000000E+00  0.00000000000E+00  0.45593999997E+02  0.45594000000E+02  0.51100000000E-03 0. -1.
         11   -1    0    0    0    0 -0.00000000000E+00 -0.00000000000E+00 -0.45593999997E+02  0.45594000000E+02  0.51100000000E-03 0.  1.
    9900012    2    1    2    0    0 -0.84905036053E+00 -0.64896727942E+00  0.50085214733E+00  0.90007789037E+02  0.90000051052E+02 0.  0.
        -12    1    1    2    0    0  0.84905036053E+00  0.64896727942E+00 -0.50085214733E+00  0.11802109633E+01  0.00000000000E+00 0.  1.
         11    1    3    3    0    0  0.71429520883E+01 -0.40947486521E+01 -0.32275739550E+01  0.88434136483E+01  0.51100000000E-03 0. -1.
        -11    1    3    3    0    0 -0.39299873746E+02  0.54971570632E+00 -0.17709996546E+02  0.43109468121E+02  0.51100000000E-03 0.  1.
         12    1    3    3    0    0  0.31307871297E+02  0.28960656664E+01  0.21438422648E+02  0.38054907267E+02  0.00000000000E+00 0. -1.
</event>
<event>
 7    1  0.4555057E-015  0.9000771E+02  0.7816164E-02  0.1186339E+00
        -11   -1    0    0    0    0  0.00000000000E+00  0.00000000000E+00  0.45593999997E+02  0.45594000000E+02  0.51100000000E-03 0.  1.
         11   -1    0    0    0    0 -0.00000000000E+00 -0.00000000000E+00 -0.45593999997E+02  0.45594000000E+02  0.51100000000E-03 0. -1.
    9900012    2    1    2    0    0  0.70072419923E+00  0.93602342947E-01  0.94515457879E+00  0.90007706401E+02  0.89999967326E+02 0.  0.
        -12    1    1    2    0    0 -0.70072419923E+00 -0.93602342947E-01 -0.94515457879E+00  0.11802935990E+01  0.00000000000E+00 0.  1.
         11    1    3    3    0    0 -0.19930092340E+02 -0.33009753048E+02 -0.72677755371E+01  0.39238666370E+02  0.51100000000E-03 0. -1.
        -11    1    3    3    0    0 -0.74559259379E+01  0.48963225560E+01 -0.30054313711E+01  0.94126204720E+01  0.51100000000E-03 0.  1.
        -12    1    3    3    0    0  0.28086742477E+02  0.28207032835E+02  0.11218361487E+02  0.41356419559E+02  0.00000000000E+00 0.  1.
</event>
<event>
 7    1  0.4555057E-015  0.9000781E+02  0.7816164E-02  0.1186339E+00
        -11   -1    0    0    0    0  0.00000000000E+00  0.00000000000E+00  0.45593999997E+02  0.45594000000E+02  0.51100000000E-03 0. -1.
         11   -1    0    0    0    0 -0.00000000000E+00 -0.00000000000E+00 -0.45593999997E+02  0.45594000000E+02  0.51100000000E-03 0.  1.
    9900012    2    1    2    0    0 -0.62587197151E+00 -0.95711455525E+00  0.29164442628E+00  0.90007813376E+02  0.90000075712E+02 0.  0.
        -12    1    1    2    0    0  0.62587197151E+00  0.95711455525E+00 -0.29164442628E+00  0.11801866242E+01  0.00000000000E+00 0.  1.
         11    1    3    3    0    0 -0.21859010009E+02 -0.27440621570E+02  0.70502933969E+01  0.35784223730E+02  0.51100000000E-03 0. -1.
        -11    1    3    3    0    0 -0.69227451169E+01 -0.66421001540E+01  0.21822683103E+01  0.98389120155E+01  0.51100000000E-03 0.  1.
        -12    1    3    3    0    0  0.28155883155E+02  0.33125607169E+02 -0.89409172809E+01  0.44384677630E+02  0.00000000000E+00 0.  1.
</event>
<event>
 7    1  0.4555057E-015  0.9000758E+02  0.7816164E-02  0.1186339E+00
        -11   -1    0    0    0    0  0.00000000000E+00  0.00000000000E+00  0.45593999997E+02  0.45594000000E+02  0.51100000000E-03 0. -1.
         11   -1    0    0    0    0 -0.00000000000E+00 -0.00000000000E+00 -0.45593999997E+02  0.45594000000E+02  0.51100000000E-03 0.  1.
    9900012    2    1    2    0    0 -0.75704867399E+00  0.88422840093E+00  0.19596670743E+00  0.90007582485E+02  0.89999841773E+02 0.  0.
        -12    1    1    2    0    0  0.75704867399E+00 -0.88422840093E+00 -0.19596670743E+00  0.11804175152E+01  0.00000000000E+00 0.  1.
         11    1    3    3    0    0 -0.17181600428E+01  0.51695368236E+01 -0.95298571488E+01  0.10976992413E+02  0.51100000000E-03 0. -1.
        -11    1    3    3    0    0 -0.37734695478E+02  0.62939883028E+01  0.32295112984E+01  0.38392073076E+02  0.51100000000E-03 0.  1.
         12    1    3    3    0    0  0.38695806847E+02 -0.10579296725E+02  0.64963125578E+01  0.40638516996E+02  0.00000000000E+00 0. -1.
</event>
<event>
 7    1  0.4555057E-015  0.9000763E+02  0.7816164E-02  0.1186339E+00
        -11   -1    0    0    0    0  0.00000000000E+00  0.00000000000E+00  0.45593999997E+02  0.45594000000E+02  0.51100000000E-03 0.  1.
         11   -1    0    0    0    0 -0.00000000000E+00 -0.00000000000E+00 -0.45593999997E+02  0.45594000000E+02  0.51100000000E-03 0. -1.
    9900012    2    1    2    0    0  0.22963603818E+00 -0.11576914972E+01  0.17108946226E-01  0.90007629283E+02  0.89999889190E+02 0.  0.
        -12    1    1    2    0    0 -0.22963603818E+00  0.11576914972E+01 -0.17108946226E-01  0.11803707167E+01  0.00000000000E+00 0.  1.
         11    1    3    3    0    0 -0.18854708557E+01  0.87026394331E+01  0.72749076864E+01  0.11498487533E+02  0.51100000000E-03 0. -1.
        -11    1    3    3    0    0 -0.36919717218E+02  0.24602026198E+01 -0.65059291880E+01  0.37569205890E+02  0.51100000000E-03 0.  1.
         12    1    3    3    0    0  0.39034824111E+02 -0.12320533550E+02 -0.75186955221E+00  0.40939935860E+02  0.00000000000E+00 0. -1.
</event>
<event>
 7    1  0.4555057E-015  0.9000785E+02  0.7816164E-02  0.1186339E+00
        -11   -1    0    0    0    0  0.00000000000E+00  0.00000000000E+00  0.45593999997E+02  0.45594000000E+02  0.51100000000E-03 0. -1.
         11   -1    0    0    0    0 -0.00000000000E+00 -0.00000000000E+00 -0.45593999997E+02  0.45594000000E+02  0.51100000000E-03 0.  1.
    9900012    2    1    2    0    0  0.35214013971E+00  0.11263700782E+01  0.65797610955E-02  0.90007849364E+02  0.90000112175E+02 0.  0.
        -12    1    1    2    0    0 -0.35214013971E+00 -0.11263700782E+01 -0.65797610955E-02  0.11801506362E+01  0.00000000000E+00 0.  1.
         11    1    3    3    0    0  0.91214275665E+01  0.15467327576E+00  0.28550471589E+01  0.95590616283E+01  0.51100000000E-03 0. -1.
        -11    1    3    3    0    0  0.34035084586E+02 -0.97813555283E+01  0.45320487719E+01  0.35701559701E+02  0.51100000000E-03 0.  1.
         12    1    3    3    0    0 -0.42804372013E+02  0.10753052331E+02 -0.73805161697E+01  0.44747228034E+02  0.00000000000E+00 0. -1.
</event>
<event>
 7    1  0.4555057E-015  0.9000771E+02  0.7816164E-02  0.1186339E+00
        -11   -1    0    0    0    0  0.00000000000E+00  0.00000000000E+00  0.45593999997E+02  0.45594000000E+02  0.51100000000E-03 0.  1.
         11   -1    0    0    0    0 -0.00000000000E+00 -0.00000000000E+00 -0.45593999997E+02  0.45594000000E+02  0.51100000000E-03 0. -1.
    9900012    2    1    2    0    0 -0.87959759711E+00  0.67186425433E-01 -0.78414708821E+00  0.90007706560E+02  0.89999967487E+02 0.  0.
        -12    1    1    2    0    0  0.87959759711E+00 -0.67186425433E-01  0.78414708821E+00  0.11802934400E+01  0.00000000000E+00 0.  1.
         11    1    3    3    0    0 -0.85389161869E+01 -0.44086821415E+00  0.56471251536E+01  0.10246827665E+02  0.51100000000E-03 0. -1.
        -11    1    3    3    0    0 -0.33365569876E+02 -0.72319629611E+01  0.89081445735E+01  0.35283389597E+02  0.51100000000E-03 0.  1.
         12    1    3    3    0    0  0.41024888466E+02  0.77400176007E+01 -0.15339416815E+02  0.44477489299E+02  0.00000000000E+00 0. -1.
</event>
<event>
 7    1  0.4555057E-015  0.9000772E+02  0.7816164E-02  0.1186339E+00
        -11   -1    0    0    0    0  0.00000000000E+00  0.00000000000E+00  0.45593999997E+02  0.45594000000E+02  0.51100000000E-03 0. -1.
         11   -1    0    0    0    0 -0.00000000000E+00 -0.00000000000E+00 -0.45593999997E+02  0.45594000000E+02  0.51100000000E-03 0.  1.
    9900012    2    1    2    0    0  0.12907109857E+00 -0.64347726086E+00  0.98098469523E+00  0.90007723208E+02  0.89999984354E+02 0.  0.
        -12    1    1    2    0    0 -0.12907109857E+00  0.64347726086E+00 -0.98098469523E+00  0.11802767921E+01  0.00000000000E+00 0.  1.
         11    1    3    3    0    0  0.14874704074E+02  0.35314731757E+02  0.10273539836E+02  0.39672820941E+02  0.51100000000E-03 0. -1.
        -11    1    3    3    0    0  0.85217821139E+01 -0.28899610876E+01 -0.93909064544E+00  0.90473497217E+01  0.51100000000E-03 0.  1.
        -12    1    3    3    0    0 -0.23267415089E+02 -0.33068247931E+02 -0.83534644954E+01  0.41287552546E+02  0.00000000000E+00 0.  1.
</event>
<event>
 7    1  0.4555057E-015  0.9000765E+02  0.7816164E-02  0.1186339E+00
        -11   -1    0    0    0    0  0.00000000000E+00  0.00000000000E+00  0.45593999997E+02  0.45594000000E+02  0.51100000000E-03 0.  1.
         11   -1    0    0    0    0 -0.00000000000E+00 -0.00000000000E+00 -0.45593999997E+02  0.45594000000E+02  0.51100000000E-03 0. -1.
    9900012    2    1    2    0    0 -0.93678583444E+00  0.33461387197E+00 -0.63537053192E+00  0.90007648419E+02  0.89999908578E+02 0.  0.
        -12    1    1    2    0    0  0.93678583444E+00 -0.33461387197E+00  0.63537053192E+00  0.11803515814E+01  0.00000000000E+00 0.  1.
         11    1    3    3    0    0  0.38263050444E+01  0.31337366267E+02  0.14677260260E+02  0.34815127514E+02  0.51100000000E-03 0. -1.
        -11    1    3    3    0    0 -0.11553905408E+02  0.75991447843E+01 -0.37725800498E+01  0.14334297755E+02  0.51100000000E-03 0.  1.
        -12    1    3    3    0    0  0.67908145293E+01 -0.38601897179E+02 -0.11540050742E+02  0.40858223149E+02  0.00000000000E+00 0.  1.
</event>
<event>
 7    1  0.4555057E-015  0.9000781E+02  0.7816164E-02  0.1186339E+00
        -11   -1    0    0    0    0  0.00000000000E+00  0.00000000000E+00  0.45593999997E+02  0.45594000000E+02  0.51100000000E-03 0. -1.
         11   -1    0    0    0    0 -0.00000000000E+00 -0.00000000000E+00 -0.45593999997E+02  0.45594000000E+02  0.51100000000E-03 0.  1.
    9900012    2    1    2    0    0 -0.87482199082E+00 -0.26357374654E+00  0.74704296884E+00  0.90007806019E+02  0.90000068258E+02 0.  0.
        -12    1    1    2    0    0  0.87482199082E+00  0.26357374654E+00 -0.74704296884E+00  0.11801939810E+01  0.00000000000E+00 0.  1.
         11    1    3    3    0    0 -0.23919222905E+02  0.26921643907E+02  0.97270109100E+01  0.37303067924E+02  0.51100000000E-03 0. -1.
        -11    1    3    3    0    0  0.53366742132E+01  0.95221017285E+01  0.24552435207E+00  0.10918369634E+02  0.51100000000E-03 0.  1.
        -12    1    3    3    0    0  0.17707726701E+02 -0.36707319382E+02 -0.92254922932E+01  0.41786368461E+02  0.00000000000E+00 0.  1.
</event>
<event>
 7    1  0.4555057E-015  0.9000731E+02  0.7816164E-02  0.1186340E+00
        -11   -1    0    0    0    0  0.00000000000E+00  0.00000000000E+00  0.45593999997E+02  0.45594000000E+02  0.51100000000E-03 0.  1.
         11   -1    0    0    0    0 -0.00000000000E+00 -0.00000000000E+00 -0.45593999997E+02  0.45594000000E+02  0.51100000000E-03 0. -1.
    9900012    2    1    2    0    0  0.83684494393E+00 -0.21650270316E+00 -0.80427127089E+00  0.90007307340E+02  0.89999562996E+02 0.  0.
        -12    1    1    2    0    0 -0.83684494393E+00  0.21650270316E+00  0.80427127089E+00  0.11806926602E+01  0.00000000000E+00 0.  1.
         11    1    3    3    0    0  0.52355037558E+01 -0.69916637962E+01  0.53818996644E+00  0.87512005415E+01  0.51100000000E-03 0. -1.
        -11    1    3    3    0    0  0.19529647361E+02 -0.29859473473E+02  0.78777835932E+01  0.36538401124E+02  0.51100000000E-03 0.  1.
         12    1    3    3    0    0 -0.23928306173E+02  0.36634634566E+02 -0.92202448305E+01  0.44717705674E+02  0.00000000000E+00 0. -1.
</event>
<event>
 7    1  0.4555057E-015  0.9000792E+02  0.7816164E-02  0.1186339E+00
        -11   -1    0    0    0    0  0.00000000000E+00  0.00000000000E+00  0.45593999997E+02  0.45594000000E+02  0.51100000000E-03 0. -1.
         11   -1    0    0    0    0 -0.00000000000E+00 -0.00000000000E+00 -0.45593999997E+02  0.45594000000E+02  0.51100000000E-03 0.  1.
    9900012    2    1    2    0    0  0.99884935090E+00  0.54229807665E+00 -0.31748488793E+00  0.90007922086E+02  0.90000185857E+02 0.  0.
        -12    1    1    2    0    0 -0.99884935090E+00 -0.54229807665E+00  0.31748488793E+00  0.11800779143E+01  0.00000000000E+00 0.  1.
         11    1    3    3    0    0 -0.24265127076E+02  0.31646446138E+02  0.49760590416E+01  0.40187748246E+02  0.51100000000E-03 0. -1.
        -11    1    3    3    0    0  0.17196196109E+02 -0.83978126628E-01  0.70811198143E+00  0.17210974283E+02  0.51100000000E-03 0.  1.
        -12    1    3    3    0    0  0.80677803179E+01 -0.31020169935E+02 -0.60016559110E+01  0.32609199557E+02  0.00000000000E+00 0.  1.
</event>
<event>
 7    1  0.4555057E-015  0.9000779E+02  0.7816164E-02  0.1186339E+00
        -11   -1    0    0    0    0  0.00000000000E+00  0.00000000000E+00  0.45593999997E+02  0.45594000000E+02  0.51100000000E-03 0. -1.
         11   -1    0    0    0    0 -0.00000000000E+00 -0.00000000000E+00 -0.45593999997E+02  0.45594000000E+02  0.51100000000E-03 0.  1.
    9900012    2    1    2    0    0 -0.61008240577E+00 -0.87537451814E+00  0.50440623617E+00  0.90007785299E+02  0.90000047265E+02 0.  0.
        -12    1    1    2    0    0  0.61008240577E+00  0.87537451814E+00 -0.50440623617E+00  0.11802147008E+01  0.00000000000E+00 0.  1.
         11    1    3    3    0    0  0.84232726840E+01 -0.41716418635E+01 -0.44860656924E+01  0.10415320648E+02  0.51100000000E-03 0. -1.
        -11    1    3    3    0    0 -0.41519052874E+02 -0.70554779247E+01 -0.84325275003E+01  0.42950192556E+02  0.51100000000E-03 0.  1.
         12    1    3    3    0    0  0.32485697784E+02  0.10351745270E+02  0.13422999429E+02  0.36642272095E+02  0.00000000000E+00 0. -1.
</event>
<event>
 7    1  0.4555057E-015  0.9000776E+02  0.7816164E-02  0.1186339E+00
        -11   -1    0    0    0    0  0.00000000000E+00  0.00000000000E+00  0.45593999997E+02  0.45594000000E+02  0.51100000000E-03 0.  1.
         11   -1    0    0    0    0 -0.00000000000E+00 -0.00000000000E+00 -0.45593999997E+02  0.45594000000E+02  0.51100000000E-03 0. -1.
    9900012    2    1    2    0    0  0.75758431501E+00 -0.19339567712E+00 -0.88409250293E+00  0.90007764669E+02  0.90000026363E+02 0.  0.
        -12    1    1    2    0    0 -0.75758431501E+00  0.19339567712E+00  0.88409250293E+00  0.11802353308E+01  0.00000000000E+00 0.  1.
         11    1    3    3    0    0  0.34865205188E+02  0.15612843298E+02 -0.18311235926E+01  0.38245214374E+02  0.51100000000E-03 0. -1.
        -11    1    3    3    0    0  0.64733777600E+01 -0.77754359316E+01 -0.19095648223E+01  0.10296041065E+02  0.51100000000E-03 0.  1.
        -12    1    3    3    0    0 -0.40580998633E+02 -0.80308030430E+01  0.28565959120E+01  0.41466509230E+02  0.00000000000E+00 0.  1.
</event>
<event>
 7    1  0.4555057E-015  0.9000773E+02  0.7816164E-02  0.1186339E+00
        -11   -1    0    0    0    0  0.00000000000E+00  0.00000000000E+00  0.45593999997E+02  0.45594000000E+02  0.51100000000E-03 0. -1.
         11   -1    0    0    0    0 -0.00000000000E+00 -0.00000000000E+00 -0.45593999997E+02  0.45594000000E+02  0.51100000000E-03 0.  1.
    9900012    2    1    2    0    0  0.72068275859E+00 -0.71046493629E+00  0.60735805902E+00  0.90007733981E+02  0.89999995269E+02 0.  0.
        -12    1    1    2    0    0 -0.72068275859E+00  0.71046493629E+00 -0.60735805902E+00  0.11802660192E+01  0.00000000000E+00 0.  1.
         11    1    3    3    0    0 -0.15661467015E+02  0.32225853437E+02 -0.13678374376E+02  0.38352119950E+02  0.51100000000E-03 0. -1.
        -11    1    3    3    0    0  0.55247141269E+01 -0.94343941869E+00 -0.90146740192E+01  0.10614937214E+02  0.51100000000E-03 0.  1.
        -12    1    3    3    0    0  0.10857435647E+02 -0.31992878955E+02  0.23300406454E+02  0.41040676817E+02  0.00000000000E+00 0.  1.
</event>
<event>
 7    1  0.4555057E-015  0.9000770E+02  0.7816164E-02  0.1186339E+00
        -11   -1    0    0    0    0  0.00000000000E+00  0.00000000000E+00  0.45593999997E+02  0.45594000000E+02  0.51100000000E-03 0.  1.
         11   -1    0    0    0    0 -0.00000000000E+00 -0.00000000000E+00 -0.45593999997E+02  0.45594000000E+02  0.51100000000E-03 0. -1.
    9900012    2    1    2    0    0 -0.11730601577E+01 -0.53292853648E-01  0.11918021774E+00  0.90007697418E+02  0.89999958223E+02 0.  0.
        -12    1    1    2    0    0  0.11730601577E+01  0.53292853648E-01 -0.11918021774E+00  0.11803025825E+01  0.00000000000E+00 0.  1.
         11    1    3    3    0    0  0.49657242581E+01 -0.86294751740E+01 -0.34654132712E+02  0.36056000519E+02  0.51100000000E-03 0. -1.
        -11    1    3    3    0    0 -0.27073776284E+01  0.85658704927E+00 -0.89655351239E+01  0.94044912311E+01  0.51100000000E-03 0.  1.
        -12    1    3    3    0    0 -0.34314067874E+01  0.77195952710E+01  0.43738848054E+02  0.44547205667E+02  0.00000000000E+00 0.  1.
</event>
<event>
 7    1  0.4555057E-015  0.9000774E+02  0.7816164E-02  0.1186339E+00
        -11   -1    0    0    0    0  0.00000000000E+00  0.00000000000E+00  0.45593999997E+02  0.45594000000E+02  0.51100000000E-03 0. -1.
         11   -1    0    0    0    0 -0.00000000000E+00 -0.00000000000E+00 -0.45593999997E+02  0.45594000000E+02  0.51100000000E-03 0.  1.
    9900012    2    1    2    0    0  0.77484024941E+00  0.36696128815E+00 -0.81115424907E+00  0.90007741886E+02  0.90000003279E+02 0.  0.
        -12    1    1    2    0    0 -0.77484024941E+00 -0.36696128815E+00  0.81115424907E+00  0.11802581137E+01  0.00000000000E+00 0.  1.
         11    1    3    3    0    0  0.23398722278E+02 -0.17329027205E+02  0.13785850611E+02  0.32215602826E+02  0.51100000000E-03 0. -1.
        -11    1    3    3    0    0  0.98588469264E+01 -0.88048198546E+01  0.51932594539E+00  0.13228432072E+02  0.51100000000E-03 0.  1.
        -12    1    3    3    0    0 -0.32482728955E+02  0.26500808348E+02 -0.15116330806E+02  0.44563706988E+02  0.00000000000E+00 0.  1.
</event>
<event>
 7    1  0.4555057E-015  0.9000792E+02  0.7816164E-02  0.1186339E+00
        -11   -1    0    0    0    0  0.00000000000E+00  0.00000000000E+00  0.45593999997E+02  0.45594000000E+02  0.51100000000E-03 0. -1.
         11   -1    0    0    0    0 -0.00000000000E+00 -0.00000000000E+00 -0.45593999997E+02  0.45594000000E+02  0.51100000000E-03 0.  1.
    9900012    2    1    2    0    0 -0.18040988858E+00 -0.43266350075E+00  0.10829829810E+01  0.90007916287E+02  0.90000179982E+02 0.  0.
        -12    1    1    2    0    0  0.18040988858E+00  0.43266350075E+00 -0.10829829810E+01  0.11800837131E+01  0.00000000000E+00 0.  1.
         11    1    3    3    0    0  0.31653509716E+02 -0.25321737484E+02  0.18167181413E+02  0.44420508184E+02  0.51100000000E-03 0. -1.
        -11    1    3    3    0    0 -0.30279052036E+01  0.87171102979E+01 -0.35470633872E+01  0.98862470534E+01  0.51100000000E-03 0.  1.
        -12    1    3    3    0    0 -0.28806014401E+02  0.16171963685E+02 -0.13537135045E+02  0.35701161050E+02  0.00000000000E+00 0.  1.
</event>
<event>
 7    1  0.4555057E-015  0.9000776E+02  0.7816164E-02  0.1186339E+00
        -11   -1    0    0    0    0  0.00000000000E+00  0.00000000000E+00  0.45593999997E+02  0.45594000000E+02  0.51100000000E-03 0.  1.
         11   -1    0    0    0    0 -0.00000000000E+00 -0.00000000000E+00 -0.45593999997E+02  0.45594000000E+02  0.51100000000E-03 0. -1.
    9900012    2    1    2    0    0 -0.20145993952E+00 -0.75011955889E+00 -0.88865174436E+00  0.90007759608E+02  0.90000021235E+02 0.  0.
        -12    1    1    2    0    0  0.20145993952E+00  0.75011955889E+00  0.88865174436E+00  0.11802403919E+01  0.00000000000E+00 0.  1.
         11    1    3    3    0    0  0.30635962195E+02 -0.18699750891E+02 -0.18443112785E+02  0.40353330376E+02  0.51100000000E-03 0. -1.
        -11    1    3    3    0    0 -0.36593260961E+01 -0.77630235553E+01  0.60904032543E+01  0.10523697746E+02  0.51100000000E-03 0.  1.
        -12    1    3    3    0    0 -0.27178096038E+02  0.25712654888E+02  0.11464057786E+02  0.39130731485E+02  0.00000000000E+00 0.  1.
</event>
<event>
 7    1  0.4555057E-015  0.9000669E+02  0.7816164E-02  0.1186341E+00
        -11   -1    0    0    0    0  0.00000000000E+00  0.00000000000E+00  0.45593999997E+02  0.45594000000E+02  0.51100000000E-03 0.  1.
         11   -1    0    0    0    0 -0.00000000000E+00 -0.00000000000E+00 -0.45593999997E+02  0.45594000000E+02  0.51100000000E-03 0. -1.
    9900012    2    1    2    0    0 -0.25755958912E+00  0.47557445029E+00 -0.10502322077E+01  0.90006688995E+02  0.89998936484E+02 0.  0.
        -12    1    1    2    0    0  0.25755958912E+00 -0.47557445029E+00  0.10502322077E+01  0.11813110047E+01  0.00000000000E+00 0.  1.
         11    1    3    3    0    0 -0.13419574570E+02 -0.26089677670E+02  0.26721302841E+00  0.29339864786E+02  0.51100000000E-03 0. -1.
        -11    1    3    3    0    0 -0.86088589172E+01 -0.80394578915E+01  0.12818416268E+02  0.17408536151E+02  0.51100000000E-03 0.  1.
        -12    1    3    3    0    0  0.21770873899E+02  0.34604710012E+02 -0.14135861504E+02  0.43258288059E+02  0.00000000000E+00 0.  1.
</event>
<event>
 7    1  0.4555057E-015  0.9000773E+02  0.7816164E-02  0.1186339E+00
        -11   -1    0    0    0    0  0.00000000000E+00  0.00000000000E+00  0.45593999997E+02  0.45594000000E+02  0.51100000000E-03 0. -1.
         11   -1    0    0    0    0 -0.00000000000E+00 -0.00000000000E+00 -0.45593999997E+02  0.45594000000E+02  0.51100000000E-03 0.  1.
    9900012    2    1    2    0    0  0.16653378529E+00 -0.84264502018E+00  0.80947595553E+00  0.90007730770E+02  0.89999992017E+02 0.  0.
        -12    1    1    2    0    0 -0.16653378529E+00  0.84264502018E+00 -0.80947595553E+00  0.11802692296E+01  0.00000000000E+00 0.  1.
         11    1    3    3    0    0 -0.37287374131E+01 -0.28261621972E+01  0.69228566842E+01  0.83556340509E+01  0.51100000000E-03 0. -1.
        -11    1    3    3    0    0  0.20331462017E+01  0.32771218120E+02  0.22319829729E+02  0.39702156364E+02  0.51100000000E-03 0.  1.
         12    1    3    3    0    0  0.18621249967E+01 -0.30787700943E+02 -0.28433210458E+02  0.41949940355E+02  0.00000000000E+00 0. -1.
</event>
<event>
 7    1  0.4555057E-015  0.9000762E+02  0.7816164E-02  0.1186339E+00
        -11   -1    0    0    0    0  0.00000000000E+00  0.00000000000E+00  0.45593999997E+02  0.45594000000E+02  0.51100000000E-03 0. -1.
         11   -1    0    0    0    0 -0.00000000000E+00 -0.00000000000E+00 -0.45593999997E+02  0.45594000000E+02  0.51100000000E-03 0.  1.
    9900012    2    1    2    0    0 -0.36944811447E-01  0.10813541395E+01 -0.47181665269E+00  0.90007617584E+02  0.89999877336E+02 0.  0.
        -12    1    1    2    0    0  0.36944811447E-01 -0.10813541395E+01  0.47181665269E+00  0.11803824159E+01  0.00000000000E+00 0.  1.
         11    1    3    3    0    0  0.36260610902E+01  0.72461572764E+01 -0.48899272624E+01  0.94639581147E+01  0.51100000000E-03 0. -1.
        -11    1    3    3    0    0 -0.24346239272E+02 -0.35479871425E+02 -0.53485704367E+01  0.43360902309E+02  0.51100000000E-03 0.  1.
         12    1    3    3    0    0  0.20683233370E+02  0.29315068289E+02  0.97666810464E+01  0.37182757161E+02  0.00000000000E+00 0. -1.
</event>
<event>
 7    1  0.4555057E-015  0.9000770E+02  0.7816164E-02  0.1186339E+00
        -11   -1    0    0    0    0  0.00000000000E+00  0.00000000000E+00  0.45593999997E+02  0.45594000000E+02  0.51100000000E-03 0.  1.
         11   -1    0    0    0    0 -0.00000000000E+00 -0.00000000000E+00 -0.45593999997E+02  0.45594000000E+02  0.51100000000E-03 0. -1.
    9900012    2    1    2    0    0 -0.23300428893E+00  0.10131015265E+01 -0.55896985764E+00  0.90007697919E+02  0.89999958731E+02 0.  0.
        -12    1    1    2    0    0  0.23300428893E+00 -0.10131015265E+01  0.55896985764E+00  0.11803020814E+01  0.00000000000E+00 0.  1.
         11    1    3    3    0    0 -0.18801211633E+01  0.10260676099E+02 -0.10248357891E+01  0.10481727827E+02  0.51100000000E-03 0. -1.
        -11    1    3    3    0    0  0.39660811722E+02  0.21849182716E+01 -0.18388659291E+01  0.39763491829E+02  0.51100000000E-03 0.  1.
         12    1    3    3    0    0 -0.38013694848E+02 -0.11432492844E+02  0.23047318606E+01  0.39762478262E+02  0.00000000000E+00 0. -1.
</event>
<event>
 7    1  0.4555057E-015  0.9000781E+02  0.7816164E-02  0.1186339E+00
        -11   -1    0    0    0    0  0.00000000000E+00  0.00000000000E+00  0.45593999997E+02  0.45594000000E+02  0.51100000000E-03 0.  1.
         11   -1    0    0    0    0 -0.00000000000E+00 -0.00000000000E+00 -0.45593999997E+02  0.45594000000E+02  0.51100000000E-03 0. -1.
    9900012    2    1    2    0    0  0.49108229352E+00  0.30922635624E+00 -0.10276462613E+01  0.90007813745E+02  0.90000076086E+02 0.  0.
        -12    1    1    2    0    0 -0.49108229352E+00 -0.30922635624E+00  0.10276462613E+01  0.11801862551E+01  0.00000000000E+00 0.  1.
         11    1    3    3    0    0 -0.15877747849E+01 -0.28364963225E+01 -0.38795050210E+02  0.38930998718E+02  0.51100000000E-03 0. -1.
        -11    1    3    3    0    0  0.92573077921E+01 -0.50852858652E+01 -0.11793361090E+01  0.10627733239E+02  0.51100000000E-03 0.  1.
        -12    1    3    3    0    0 -0.71784507137E+01  0.82310085440E+01  0.38946740058E+02  0.40449081787E+02  0.00000000000E+00 0.  1.
</event>
<event>
 8    1  0.4555057E-015  0.9000774E+02  0.7816164E-02  0.1186339E+00
        -11   -1    0    0    0    0  0.00000000000E+00  0.00000000000E+00  0.45593999997E+02  0.45594000000E+02  0.51100000000E-03 0. -1.
         11   -1    0    0    0    0 -0.00000000000E+00 -0.00000000000E+00 -0.45593999997E+02  0.45594000000E+02  0.51100000000E-03 0.  1.
    9900012    2    1    2    0    0 -0.18568155880E-01  0.32245840606E+00  0.11352073788E+01  0.90007737320E+02  0.89999998653E+02 0.  0.
         23    2    3    3    0    0 -0.12735371209E+02  0.18497181615E+01 -0.12975795835E+02  0.70950717251E+02  0.68556705461E+02 0.  0.
        -12    1    1    2    0    0  0.18568155880E-01 -0.32245840606E+00 -0.11352073788E+01  0.11802626796E+01  0.00000000000E+00 0.  1.
         11    1    4    4    0    0  0.18176874984E+01 -0.26628299381E+02  0.13057716872E+02  0.29713200533E+02  0.51100000000E-03 0. -1.
        -11    1    4    4    0    0 -0.14553058707E+02  0.28478017543E+02 -0.26033512707E+02  0.41237516717E+02  0.51100000000E-03 0.  1.
         12    1    3    3    0    0  0.12716803053E+02 -0.15272597555E+01  0.14111003214E+02  0.19057020070E+02  0.00000000000E+00 0. -1.
</event>
<event>
 7    1  0.4555057E-015  0.9000773E+02  0.7816164E-02  0.1186339E+00
        -11   -1    0    0    0    0  0.00000000000E+00  0.00000000000E+00  0.45593999997E+02  0.45594000000E+02  0.51100000000E-03 0. -1.
         11   -1    0    0    0    0 -0.00000000000E+00 -0.00000000000E+00 -0.45593999997E+02  0.45594000000E+02  0.51100000000E-03 0.  1.
    9900012    2    1    2    0    0 -0.22796124542E+00  0.28938811958E+00  0.11213021630E+01  0.90007732931E+02  0.89999994206E+02 0.  0.
        -12    1    1    2    0    0  0.22796124542E+00 -0.28938811958E+00 -0.11213021630E+01  0.11802670689E+01  0.00000000000E+00 0.  1.
         11    1    3    3    0    0 -0.96385861134E+01 -0.35045805079E+02  0.40823832914E+00  0.36349380390E+02  0.51100000000E-03 0. -1.
        -11    1    3    3    0    0  0.23732225750E+01 -0.86917219183E+01 -0.81246876469E+00  0.90464535067E+01  0.51100000000E-03 0.  1.
        -12    1    3    3    0    0  0.70374022930E+01  0.44026915117E+02  0.15255325986E+01  0.44611899035E+02  0.00000000000E+00 0.  1.
</event>
<event>
 7    1  0.4555057E-015  0.9000769E+02  0.7816164E-02  0.1186339E+00
        -11   -1    0    0    0    0  0.00000000000E+00  0.00000000000E+00  0.45593999997E+02  0.45594000000E+02  0.51100000000E-03 0.  1.
         11   -1    0    0    0    0 -0.00000000000E+00 -0.00000000000E+00 -0.45593999997E+02  0.45594000000E+02  0.51100000000E-03 0. -1.
    9900012    2    1    2    0    0 -0.44333640996E+00 -0.18427189867E+00 -0.10782530725E+01  0.90007689450E+02  0.89999950151E+02 0.  0.
        -12    1    1    2    0    0  0.44333640996E+00  0.18427189867E+00  0.10782530725E+01  0.11803105495E+01  0.00000000000E+00 0.  1.
         11    1    3    3    0    0  0.11646653741E+01  0.44695925232E+01 -0.76966174338E+01  0.89761697255E+01  0.51100000000E-03 0. -1.
        -11    1    3    3    0    0 -0.24696455985E+02  0.19683079067E+02 -0.20707398501E+02  0.37764201206E+02  0.51100000000E-03 0.  1.
         12    1    3    3    0    0  0.23088454201E+02 -0.24336943489E+02  0.27325762863E+02  0.43267318519E+02  0.00000000000E+00 0. -1.
</event>
<event>
 7    1  0.4555057E-015  0.9000773E+02  0.7816164E-02  0.1186339E+00
        -11   -1    0    0    0    0  0.00000000000E+00  0.00000000000E+00  0.45593999997E+02  0.45594000000E+02  0.51100000000E-03 0.  1.
         11   -1    0    0    0    0 -0.00000000000E+00 -0.00000000000E+00 -0.45593999997E+02  0.45594000000E+02  0.51100000000E-03 0. -1.
    9900012    2    1    2    0    0 -0.97568349899E+00  0.66306854723E+00  0.37685195409E-01  0.90007729538E+02  0.89999990768E+02 0.  0.
        -12    1    1    2    0    0  0.97568349899E+00 -0.66306854723E+00 -0.37685195409E-01  0.11802704616E+01  0.00000000000E+00 0.  1.
         11    1    3    3    0    0  0.30104650638E+02 -0.21066313385E+02 -0.17294944426E+00  0.36743835693E+02  0.51100000000E-03 0. -1.
        -11    1    3    3    0    0 -0.19574948225E+01 -0.97718513952E+01  0.25908324442E+01  0.10297246170E+02  0.51100000000E-03 0.  1.
        -12    1    3    3    0    0 -0.29122839314E+02  0.31501233328E+02 -0.23801978045E+01  0.42966647676E+02  0.00000000000E+00 0.  1.
</event>
<event>
 7    1  0.4555057E-015  0.9000776E+02  0.7816164E-02  0.1186339E+00
        -11   -1    0    0    0    0  0.00000000000E+00  0.00000000000E+00  0.45593999997E+02  0.45594000000E+02  0.51100000000E-03 0.  1.
         11   -1    0    0    0    0 -0.00000000000E+00 -0.00000000000E+00 -0.45593999997E+02  0.45594000000E+02  0.51100000000E-03 0. -1.
    9900012    2    1    2    0    0 -0.17152225108E+00  0.11586306445E+01  0.14529278051E+00  0.90007764920E+02  0.90000026617E+02 0.  0.
        -12    1    1    2    0    0  0.17152225108E+00 -0.11586306445E+01 -0.14529278051E+00  0.11802350804E+01  0.00000000000E+00 0.  1.
         11    1    3    3    0    0 -0.37435411798E+01  0.39448802973E+01  0.78563626818E+01  0.95550309248E+01  0.51100000000E-03 0. -1.
        -11    1    3    3    0    0 -0.35542858235E+02  0.70428375145E+01  0.81086485935E+01  0.37130129464E+02  0.51100000000E-03 0.  1.
         12    1    3    3    0    0  0.39114877163E+02 -0.98290871674E+01 -0.15819718495E+02  0.43322604531E+02  0.00000000000E+00 0. -1.
</event>
<event>
 7    1  0.4555057E-015  0.9000782E+02  0.7816164E-02  0.1186339E+00
        -11   -1    0    0    0    0  0.00000000000E+00  0.00000000000E+00  0.45593999997E+02  0.45594000000E+02  0.51100000000E-03 0.  1.
         11   -1    0    0    0    0 -0.00000000000E+00 -0.00000000000E+00 -0.45593999997E+02  0.45594000000E+02  0.51100000000E-03 0. -1.
    9900012    2    1    2    0    0 -0.41904962725E+00  0.58790349733E+00 -0.93358713596E+00  0.90007822872E+02  0.90000085334E+02 0.  0.
        -12    1    1    2    0    0  0.41904962725E+00 -0.58790349733E+00  0.93358713596E+00  0.11801771277E+01  0.00000000000E+00 0.  1.
         11    1    3    3    0    0 -0.17867037156E+02  0.96414810295E+01 -0.30590444653E+02  0.36714635740E+02  0.51100000000E-03 0. -1.
        -11    1    3    3    0    0 -0.58915700884E+01  0.48618319937E+01 -0.50928193162E+01  0.91806762981E+01  0.51100000000E-03 0.  1.
        -12    1    3    3    0    0  0.23339557617E+02 -0.13915409526E+02  0.34749676834E+02  0.44112510834E+02  0.00000000000E+00 0.  1.
</event>
<event>
 7    1  0.4555057E-015  0.9000776E+02  0.7816164E-02  0.1186339E+00
        -11   -1    0    0    0    0  0.00000000000E+00  0.00000000000E+00  0.45593999997E+02  0.45594000000E+02  0.51100000000E-03 0.  1.
         11   -1    0    0    0    0 -0.00000000000E+00 -0.00000000000E+00 -0.45593999997E+02  0.45594000000E+02  0.51100000000E-03 0. -1.
    9900012    2    1    2    0    0 -0.21879643891E+00 -0.22751423545E+00 -0.11372473878E+01  0.90007760096E+02  0.90000021730E+02 0.  0.
        -12    1    1    2    0    0  0.21879643891E+00  0.22751423545E+00  0.11372473878E+01  0.11802399036E+01  0.00000000000E+00 0.  1.
         11    1    3    3    0    0  0.78270196317E+01  0.44795803849E+01 -0.42739689537E+01  0.99797639059E+01  0.51100000000E-03 0. -1.
        -11    1    3    3    0    0 -0.37240637810E+01  0.32791455370E+02 -0.17131547638E+02  0.37183842204E+02  0.51100000000E-03 0.  1.
         12    1    3    3    0    0 -0.43217522896E+01 -0.37498549991E+02  0.20268269204E+02  0.42844153986E+02  0.00000000000E+00 0. -1.
</event>
<event>
 7    1  0.4555057E-015  0.9000772E+02  0.7816164E-02  0.1186339E+00
        -11   -1    0    0    0    0  0.00000000000E+00  0.00000000000E+00  0.45593999997E+02  0.45594000000E+02  0.51100000000E-03 0.  1.
         11   -1    0    0    0    0 -0.00000000000E+00 -0.00000000000E+00 -0.45593999997E+02  0.45594000000E+02  0.51100000000E-03 0. -1.
    9900012    2    1    2    0    0 -0.93568197857E+00 -0.71517102995E+00 -0.78029151929E-01  0.90007720831E+02  0.89999981946E+02 0.  0.
        -12    1    1    2    0    0  0.93568197857E+00  0.71517102995E+00  0.78029151929E-01  0.11802791685E+01  0.00000000000E+00 0.  1.
         11    1    3    3    0    0 -0.17132204410E+02  0.17401421122E+02  0.29185698227E+02  0.38054262130E+02  0.51100000000E-03 0. -1.
        -11    1    3    3    0    0 -0.48496478669E+01  0.75471065254E+01 -0.24881569463E+01  0.93096093682E+01  0.51100000000E-03 0.  1.
        -12    1    3    3    0    0  0.21046170298E+02 -0.25663698677E+02 -0.26775570432E+02  0.42643849334E+02  0.00000000000E+00 0.  1.
</event>
<event>
 7    1  0.4555057E-015  0.9000777E+02  0.7816164E-02  0.1186339E+00
        -11   -1    0    0    0    0  0.00000000000E+00  0.00000000000E+00  0.45593999997E+02  0.45594000000E+02  0.51100000000E-03 0.  1.
         11   -1    0    0    0    0 -0.00000000000E+00 -0.00000000000E+00 -0.45593999997E+02  0.45594000000E+02  0.51100000000E-03 0. -1.
    9900012    2    1    2    0    0  0.53511511844E+00 -0.10487789783E+01  0.81606376087E-01  0.90007769033E+02  0.90000030784E+02 0.  0.
        -12    1    1    2    0    0 -0.53511511844E+00  0.10487789783E+01 -0.81606376087E-01  0.11802309672E+01  0.00000000000E+00 0.  1.
         11    1    3    3    0    0  0.19051382891E+02  0.16058057619E+02  0.15578651043E+02  0.29385553817E+02  0.51100000000E-03 0. -1.
        -11    1    3    3    0    0  0.16272347549E+00 -0.24348725924E+00  0.18401522562E+02  0.18403852799E+02  0.51100000000E-03 0.  1.
        -12    1    3    3    0    0 -0.18678991248E+02 -0.16863349338E+02 -0.33898567229E+02  0.42218362417E+02  0.00000000000E+00 0.  1.
</event>
<event>
 7    1  0.4555057E-015  0.9000773E+02  0.7816164E-02  0.1186339E+00
        -11   -1    0    0    0    0  0.00000000000E+00  0.00000000000E+00  0.45593999997E+02  0.45594000000E+02  0.51100000000E-03 0. -1.
         11   -1    0    0    0    0 -0.00000000000E+00 -0.00000000000E+00 -0.45593999997E+02  0.45594000000E+02  0.51100000000E-03 0.  1.
    9900012    2    1    2    0    0 -0.45072420614E+00  0.10233869814E+01 -0.37757255126E+00  0.90007731278E+02  0.89999992531E+02 0.  0.
        -12    1    1    2    0    0  0.45072420614E+00 -0.10233869814E+01  0.37757255126E+00  0.11802687216E+01  0.00000000000E+00 0.  1.
         11    1    3    3    0    0 -0.13259270045E+02  0.58634533835E+01  0.34473385953E+02  0.37397896559E+02  0.51100000000E-03 0. -1.
        -11    1    3    3    0    0  0.74962334953E+00  0.25183051822E+01  0.75095116104E+01  0.79559135896E+01  0.51100000000E-03 0.  1.
        -12    1    3    3    0    0  0.12058922489E+02 -0.73583715843E+01 -0.42360470114E+02  0.44653921130E+02  0.00000000000E+00 0.  1.
</event>
<event>
 7    1  0.4555057E-015  0.9000775E+02  0.7816164E-02  0.1186339E+00
        -11   -1    0    0    0    0  0.00000000000E+00  0.00000000000E+00  0.45593999997E+02  0.45594000000E+02  0.51100000000E-03 0. -1.
         11   -1    0    0    0    0 -0.00000000000E+00 -0.00000000000E+00 -0.45593999997E+02  0.45594000000E+02  0.51100000000E-03 0.  1.
    9900012    2    1    2    0    0 -0.11492120900E+01 -0.26864036669E+00  0.11987212711E-01  0.90007745889E+02  0.90000007334E+02 0.  0.
        -12    1    1    2    0    0  0.11492120900E+01  0.26864036669E+00 -0.11987212711E-01  0.11802541115E+01  0.00000000000E+00 0.  1.
         11    1    3    3    0    0 -0.11815152676E+02  0.12547067148E+02 -0.10495471134E+02  0.20178742313E+02  0.51100000000E-03 0. -1.
        -11    1    3    3    0    0 -0.15225241257E+02 -0.18130344380E+02 -0.18896467881E+02  0.30291811720E+02  0.51100000000E-03 0.  1.
         12    1    3    3    0    0  0.25891181842E+02  0.53146368652E+01  0.29403926227E+02  0.39537191855E+02  0.00000000000E+00 0. -1.
</event>
<event>
 7    1  0.4555057E-015  0.9000754E+02  0.7816164E-02  0.1186339E+00
        -11   -1    0    0    0    0  0.00000000000E+00  0.00000000000E+00  0.45593999997E+02  0.45594000000E+02  0.51100000000E-03 0. -1.
         11   -1    0    0    0    0 -0.00000000000E+00 -0.00000000000E+00 -0.45593999997E+02  0.45594000000E+02  0.51100000000E-03 0.  1.
    9900012    2    1    2    0    0  0.45515986692E+00  0.50921875386E+00  0.96281286866E+00  0.90007541249E+02  0.89999799993E+02 0.  0.
        -12    1    1    2    0    0 -0.45515986692E+00 -0.50921875386E+00 -0.96281286866E+00  0.11804587514E+01  0.00000000000E+00 0.  1.
         11    1    3    3    0    0  0.39281651366E+02 -0.57331627931E+01 -0.11496802581E+02  0.41329090959E+02  0.51100000000E-03 0. -1.
        -11    1    3    3    0    0  0.17225302356E+01  0.47233459246E+01  0.55991313895E+01  0.75251165914E+01  0.51100000000E-03 0.  1.
        -12    1    3    3    0    0 -0.40549021735E+02  0.15190356223E+01  0.68604840606E+01  0.41153333698E+02  0.00000000000E+00 0.  1.
</event>
<event>
 7    1  0.4555057E-015  0.9000760E+02  0.7816164E-02  0.1186339E+00
        -11   -1    0    0    0    0  0.00000000000E+00  0.00000000000E+00  0.45593999997E+02  0.45594000000E+02  0.51100000000E-03 0.  1.
         11   -1    0    0    0    0 -0.00000000000E+00 -0.00000000000E+00 -0.45593999997E+02  0.45594000000E+02  0.51100000000E-03 0. -1.
    9900012    2    1    2    0    0  0.91447678809E+00  0.95128735517E-01 -0.74029549248E+00  0.90007595540E+02  0.89999855001E+02 0.  0.
        -12    1    1    2    0    0 -0.91447678809E+00 -0.95128735517E-01  0.74029549248E+00  0.11804044597E+01  0.00000000000E+00 0.  1.
         11    1    3    3    0    0 -0.14585409732E+02  0.92921372562E+01 -0.16597482696E+02  0.23969864913E+02  0.51100000000E-03 0. -1.
        -11    1    3    3    0    0  0.28842923947E+02  0.10190344127E+02 -0.89202739436E+01  0.31864222300E+02  0.51100000000E-03 0.  1.
        -12    1    3    3    0    0 -0.13343037427E+02 -0.19387352648E+02  0.24777461147E+02  0.34173508327E+02  0.00000000000E+00 0.  1.
</event>
<event>
 7    1  0.4555057E-015  0.9000777E+02  0.7816164E-02  0.1186339E+00
        -11   -1    0    0    0    0  0.00000000000E+00  0.00000000000E+00  0.45593999997E+02  0.45594000000E+02  0.51100000000E-03 0. -1.
         11   -1    0    0    0    0 -0.00000000000E+00 -0.00000000000E+00 -0.45593999997E+02  0.45594000000E+02  0.51100000000E-03 0.  1.
    9900012    2    1    2    0    0 -0.33383037372E+00 -0.83573272557E+00  0.76357707830E+00  0.90007770420E+02  0.90000032190E+02 0.  0.
        -12    1    1    2    0    0  0.33383037372E+00  0.83573272557E+00 -0.76357707830E+00  0.11802295800E+01  0.00000000000E+00 0.  1.
         11    1    3    3    0    0 -0.32331449763E+02  0.14082368821E+02  0.72070467658E+01  0.35994128393E+02  0.51100000000E-03 0. -1.
        -11    1    3    3    0    0 -0.87575675273E+01 -0.36826826169E+00  0.37836285242E+01  0.95470652861E+01  0.51100000000E-03 0.  1.
        -12    1    3    3    0    0  0.40755186917E+02 -0.14549833285E+02 -0.10227098212E+02  0.44466576741E+02  0.00000000000E+00 0.  1.
</event>
<event>
 7    1  0.4555057E-015  0.9000765E+02  0.7816164E-02  0.1186339E+00
        -11   -1    0    0    0    0  0.00000000000E+00  0.00000000000E+00  0.45593999997E+02  0.45594000000E+02  0.51100000000E-03 0. -1.
         11   -1    0    0    0    0 -0.00000000000E+00 -0.00000000000E+00 -0.45593999997E+02  0.45594000000E+02  0.51100000000E-03 0.  1.
    9900012    2    1    2    0    0 -0.11141094357E+01 -0.34206849762E+00 -0.18704504193E+00  0.90007645587E+02  0.89999905709E+02 0.  0.
        -12    1    1    2    0    0  0.11141094357E+01  0.34206849762E+00  0.18704504193E+00  0.11803544127E+01  0.00000000000E+00 0.  1.
         11    1    3    3    0    0  0.54140531162E+01 -0.70629768963E+00  0.37407309210E+02  0.37803671914E+02  0.51100000000E-03 0. -1.
        -11    1    3    3    0    0 -0.85060360971E+00 -0.86095861372E+01  0.38145765302E+01  0.94551305819E+01  0.51100000000E-03 0.  1.
        -12    1    3    3    0    0 -0.56775589422E+01  0.89738153292E+01 -0.41408930782E+02  0.42748843091E+02  0.00000000000E+00 0.  1.
</event>
<event>
 7    1  0.4555057E-015  0.9000777E+02  0.7816164E-02  0.1186339E+00
        -11   -1    0    0    0    0  0.00000000000E+00  0.00000000000E+00  0.45593999997E+02  0.45594000000E+02  0.51100000000E-03 0.  1.
         11   -1    0    0    0    0 -0.00000000000E+00 -0.00000000000E+00 -0.45593999997E+02  0.45594000000E+02  0.51100000000E-03 0. -1.
    9900012    2    1    2    0    0  0.94384019498E+00  0.67656645529E+00  0.21064854826E+00  0.90007767272E+02  0.90000029000E+02 0.  0.
        -12    1    1    2    0    0 -0.94384019498E+00 -0.67656645529E+00 -0.21064854826E+00  0.11802327283E+01  0.00000000000E+00 0.  1.
         11    1    3    3    0    0 -0.20167844392E+02 -0.52771822255E+01  0.54757957431E+01  0.21554000532E+02  0.51100000000E-03 0. -1.
        -11    1    3    3    0    0 -0.18074547808E+02 -0.13834389344E+02  0.51485802323E+01  0.23336398301E+02  0.51100000000E-03 0.  1.
         12    1    3    3    0    0  0.39186232395E+02  0.19788138025E+02 -0.10413727427E+02  0.45117368438E+02  0.00000000000E+00 0. -1.
</event>
<event>
 7    1  0.4555057E-015  0.9000776E+02  0.7816164E-02  0.1186339E+00
        -11   -1    0    0    0    0  0.00000000000E+00  0.00000000000E+00  0.45593999997E+02  0.45594000000E+02  0.51100000000E-03 0.  1.
         11   -1    0    0    0    0 -0.00000000000E+00 -0.00000000000E+00 -0.45593999997E+02  0.45594000000E+02  0.51100000000E-03 0. -1.
    9900012    2    1    2    0    0 -0.94362292153E+00  0.32755439142E+00 -0.62868230491E+00  0.90007763779E+02  0.90000025461E+02 0.  0.
        -12    1    1    2    0    0  0.94362292153E+00 -0.32755439142E+00  0.62868230491E+00  0.11802362212E+01  0.00000000000E+00 0.  1.
         11    1    3    3    0    0  0.36838906384E+01  0.16725408639E+02 -0.37629396907E+02  0.41343462074E+02  0.51100000000E-03 0. -1.
        -11    1    3    3    0    0  0.62637676648E+01  0.36656960726E+01  0.33324403645E+01  0.79860673738E+01  0.51100000000E-03 0.  1.
        -12    1    3    3    0    0 -0.10891281225E+02 -0.20063550320E+02  0.33668274238E+02  0.40678234331E+02  0.00000000000E+00 0.  1.
</event>
<event>
 7    1  0.4555057E-015  0.9000774E+02  0.7816164E-02  0.1186339E+00
        -11   -1    0    0    0    0  0.00000000000E+00  0.00000000000E+00  0.45593999997E+02  0.45594000000E+02  0.51100000000E-03 0. -1.
         11   -1    0    0    0    0 -0.00000000000E+00 -0.00000000000E+00 -0.45593999997E+02  0.45594000000E+02  0.51100000000E-03 0.  1.
    9900012    2    1    2    0    0 -0.53792399486E+00  0.23300854660E+00 -0.10243873040E+01  0.90007735387E+02  0.89999996695E+02 0.  0.
        -12    1    1    2    0    0  0.53792399486E+00 -0.23300854660E+00  0.10243873040E+01  0.11802646125E+01  0.00000000000E+00 0.  1.
         11    1    3    3    0    0  0.52580550394E+01 -0.39375931312E+02  0.55540449186E+01  0.40111825247E+02  0.51100000000E-03 0. -1.
        -11    1    3    3    0    0 -0.69367224035E+01 -0.80461904870E+00 -0.63903179072E+01  0.94658170663E+01  0.51100000000E-03 0.  1.
        -12    1    3    3    0    0  0.11407433693E+01  0.40413558907E+02 -0.18811431535E+00  0.40430093074E+02  0.00000000000E+00 0.  1.
</event>
<event>
 7    1  0.4555057E-015  0.9000773E+02  0.7816164E-02  0.1186339E+00
        -11   -1    0    0    0    0  0.00000000000E+00  0.00000000000E+00  0.45593999997E+02  0.45594000000E+02  0.51100000000E-03 0.  1.
         11   -1    0    0    0    0 -0.00000000000E+00 -0.00000000000E+00 -0.45593999997E+02  0.45594000000E+02  0.51100000000E-03 0. -1.
    9900012    2    1    2    0    0 -0.88624237151E+00 -0.48519996583E+00 -0.61008363849E+00  0.90007726051E+02  0.89999987235E+02 0.  0.
        -12    1    1    2    0    0  0.88624237151E+00  0.48519996583E+00  0.61008363849E+00  0.11802739486E+01  0.00000000000E+00 0.  1.
         11    1    3    3    0    0 -0.44400246999E+01  0.21616190278E+02 -0.27975207706E+02  0.35631246791E+02  0.51100000000E-03 0. -1.
        -11    1    3    3    0    0 -0.99764779858E+01  0.59104928636E+01 -0.17997231516E+01  0.11734693970E+02  0.51100000000E-03 0.  1.
        -12    1    3    3    0    0  0.13530260314E+02 -0.28011883108E+02  0.29164847219E+02  0.42641785290E+02  0.00000000000E+00 0.  1.
</event>
<event>
 7    1  0.4555057E-015  0.9000772E+02  0.7816164E-02  0.1186339E+00
        -11   -1    0    0    0    0  0.00000000000E+00  0.00000000000E+00  0.45593999997E+02  0.45594000000E+02  0.51100000000E-03 0.  1.
         11   -1    0    0    0    0 -0.00000000000E+00 -0.00000000000E+00 -0.45593999997E+02  0.45594000000E+02  0.51100000000E-03 0. -1.
    9900012    2    1    2    0    0 -0.10632148663E+01 -0.30060733448E+00  0.41504663340E+00  0.90007722774E+02  0.89999983915E+02 0.  0.
        -12    1    1    2    0    0  0.10632148663E+01  0.30060733448E+00 -0.41504663340E+00  0.11802772256E+01  0.00000000000E+00 0.  1.
         11    1    3    3    0    0  0.35255104142E+01 -0.99731418658E+01 -0.12299354622E+01  0.10649202968E+02  0.51100000000E-03 0. -1.
        -11    1    3    3    0    0 -0.48205024441E+01 -0.19414111621E+02  0.31731321083E+02  0.37510288079E+02  0.51100000000E-03 0.  1.
         12    1    3    3    0    0  0.23177716355E+00  0.29086646152E+02 -0.30086338987E+02  0.41848231727E+02  0.00000000000E+00 0. -1.
</event>
<event>
 7    1  0.4555057E-015  0.9000774E+02  0.7816164E-02  0.1186339E+00
        -11   -1    0    0    0    0  0.00000000000E+00  0.00000000000E+00  0.45593999997E+02  0.45594000000E+02  0.51100000000E-03 0. -1.
         11   -1    0    0    0    0 -0.00000000000E+00 -0.00000000000E+00 -0.45593999997E+02  0.45594000000E+02  0.51100000000E-03 0.  1.
    9900012    2    1    2    0    0 -0.11372567641E+01  0.23689053105E+00  0.20868959992E+00  0.90007736716E+02  0.89999998040E+02 0.  0.
        -12    1    1    2    0    0  0.11372567641E+01 -0.23689053105E+00 -0.20868959992E+00  0.11802632843E+01  0.00000000000E+00 0.  1.
         11    1    3    3    0    0  0.85394515749E+01  0.25081302833E+01  0.17280887033E+01  0.90663797375E+01  0.51100000000E-03 0. -1.
        -11    1    3    3    0    0  0.33031573806E+02  0.12737445267E+02 -0.38598877863E+01  0.35612162445E+02  0.51100000000E-03 0.  1.
         12    1    3    3    0    0 -0.42708282145E+02 -0.15008685020E+02  0.23404886830E+01  0.45329194533E+02  0.00000000000E+00 0. -1.
</event>
<event>
 7    1  0.4555057E-015  0.9000778E+02  0.7816164E-02  0.1186339E+00
        -11   -1    0    0    0    0  0.00000000000E+00  0.00000000000E+00  0.45593999997E+02  0.45594000000E+02  0.51100000000E-03 0. -1.
         11   -1    0    0    0    0 -0.00000000000E+00 -0.00000000000E+00 -0.45593999997E+02  0.45594000000E+02  0.51100000000E-03 0.  1.
    9900012    2    1    2    0    0  0.80781175214E+00  0.84449688955E+00  0.16485619503E+00  0.90007782906E+02  0.90000044841E+02 0.  0.
        -12    1    1    2    0    0 -0.80781175214E+00 -0.84449688955E+00 -0.16485619503E+00  0.11802170938E+01  0.00000000000E+00 0.  1.
         11    1    3    3    0    0 -0.33296665726E+02 -0.35575573027E+01 -0.18034799277E+02  0.38033907867E+02  0.51100000000E-03 0. -1.
        -11    1    3    3    0    0  0.15194407233E+01 -0.11827532875E+02  0.18484001097E+01  0.12067137906E+02  0.51100000000E-03 0.  1.
        -12    1    3    3    0    0  0.32585036755E+02  0.16229587067E+02  0.16351255362E+02  0.39906737133E+02  0.00000000000E+00 0.  1.
</event>
<event>
 7    1  0.4555057E-015  0.9000772E+02  0.7816164E-02  0.1186339E+00
        -11   -1    0    0    0    0  0.00000000000E+00  0.00000000000E+00  0.45593999997E+02  0.45594000000E+02  0.51100000000E-03 0.  1.
         11   -1    0    0    0    0 -0.00000000000E+00 -0.00000000000E+00 -0.45593999997E+02  0.45594000000E+02  0.51100000000E-03 0. -1.
    9900012    2    1    2    0    0  0.59691400336E+00 -0.35840364356E+00 -0.95304683993E+00  0.90007721313E+02  0.89999982435E+02 0.  0.
        -12    1    1    2    0    0 -0.59691400336E+00  0.35840364356E+00  0.95304683993E+00  0.11802786867E+01  0.00000000000E+00 0.  1.
         11    1    3    3    0    0 -0.79020766349E+01  0.22853661651E+01 -0.41423980186E-01  0.82260215086E+01  0.51100000000E-03 0. -1.
        -11    1    3    3    0    0  0.10062013110E+02 -0.13663999247E+02  0.37836055940E+02  0.41467048516E+02  0.51100000000E-03 0.  1.
         12    1    3    3    0    0 -0.15630224719E+01  0.11020229439E+02 -0.38747678800E+02  0.40314651289E+02  0.00000000000E+00 0. -1.
</event>
<event>
 7    1  0.4555057E-015  0.9000756E+02  0.7816164E-02  0.1186339E+00
        -11   -1    0    0    0    0  0.00000000000E+00  0.00000000000E+00  0.45593999997E+02  0.45594000000E+02  0.51100000000E-03 0.  1.
         11   -1    0    0    0    0 -0.00000000000E+00 -0.00000000000E+00 -0.45593999997E+02  0.45594000000E+02  0.51100000000E-03 0. -1.
    9900012    2    1    2    0    0 -0.91124919682E+00  0.37803860744E+00 -0.64818330740E+00  0.90007563688E+02  0.89999822728E+02 0.  0.
        -12    1    1    2    0    0  0.91124919682E+00 -0.37803860744E+00  0.64818330740E+00  0.11804363123E+01  0.00000000000E+00 0.  1.
         11    1    3    3    0    0  0.85783839520E+01  0.36363106483E+01  0.14900019828E+01  0.94356522047E+01  0.51100000000E-03 0. -1.
        -11    1    3    3    0    0 -0.34742761829E+01 -0.35224306580E+02 -0.22738904766E+02  0.42069943656E+02  0.51100000000E-03 0.  1.
         12    1    3    3    0    0 -0.60153569659E+01  0.31966034539E+02  0.20600719476E+02  0.38501967826E+02  0.00000000000E+00 0. -1.
</event>
<event>
 7    1  0.4555057E-015  0.9000778E+02  0.7816164E-02  0.1186339E+00
        -11   -1    0    0    0    0  0.00000000000E+00  0.00000000000E+00  0.45593999997E+02  0.45594000000E+02  0.51100000000E-03 0.  1.
         11   -1    0    0    0    0 -0.00000000000E+00 -0.00000000000E+00 -0.45593999997E+02  0.45594000000E+02  0.51100000000E-03 0. -1.
    9900012    2    1    2    0    0 -0.18965373019E+00  0.52825233516E+00 -0.10382248584E+01  0.90007775477E+02  0.90000037314E+02 0.  0.
        -12    1    1    2    0    0  0.18965373019E+00 -0.52825233516E+00  0.10382248584E+01  0.11802245225E+01  0.00000000000E+00 0.  1.
         11    1    3    3    0    0  0.98111011513E+01  0.62975573937E+01  0.79803639855E+00  0.11685623530E+02  0.51100000000E-03 0. -1.
        -11    1    3    3    0    0  0.31034893229E+02  0.11665740158E+02  0.38388213040E+01  0.33376498325E+02  0.51100000000E-03 0.  1.
         12    1    3    3    0    0 -0.41035648110E+02 -0.17435045216E+02 -0.56750825609E+01  0.44945653623E+02  0.00000000000E+00 0. -1.
</event>
<event>
 7    1  0.4555057E-015  0.9000777E+02  0.7816164E-02  0.1186339E+00
        -11   -1    0    0    0    0  0.00000000000E+00  0.00000000000E+00  0.45593999997E+02  0.45594000000E+02  0.51100000000E-03 0.  1.
         11   -1    0    0    0    0 -0.00000000000E+00 -0.00000000000E+00 -0.45593999997E+02  0.45594000000E+02  0.51100000000E-03 0. -1.
    9900012    2    1    2    0    0  0.11170877556E+01 -0.15214471500E+00  0.34914613772E+00  0.90007772864E+02  0.90000034665E+02 0.  0.
        -12    1    1    2    0    0 -0.11170877556E+01  0.15214471500E+00 -0.34914613772E+00  0.11802271364E+01  0.00000000000E+00 0.  1.
         11    1    3    3    0    0 -0.16480127677E+02  0.26062038875E+02 -0.23771474911E+02  0.38934656776E+02  0.51100000000E-03 0. -1.
        -11    1    3    3    0    0 -0.71354635887E+01 -0.49077769620E+01 -0.24297726200E+01  0.89947157032E+01  0.51100000000E-03 0.  1.
        -12    1    3    3    0    0  0.24732679021E+02 -0.21306406628E+02  0.26550393669E+02  0.42078400384E+02  0.00000000000E+00 0.  1.
</event>
<event>
 7    1  0.4555057E-015  0.9000768E+02  0.7816164E-02  0.1186339E+00
        -11   -1    0    0    0    0  0.00000000000E+00  0.00000000000E+00  0.45593999997E+02  0.45594000000E+02  0.51100000000E-03 0.  1.
         11   -1    0    0    0    0 -0.00000000000E+00 -0.00000000000E+00 -0.45593999997E+02  0.45594000000E+02  0.51100000000E-03 0. -1.
    9900012    2    1    2    0    0  0.24727503930E+00  0.10926216329E+01 -0.37174098554E+00  0.90007678714E+02  0.89999939273E+02 0.  0.
        -12    1    1    2    0    0 -0.24727503930E+00 -0.10926216329E+01  0.37174098554E+00  0.11803212860E+01  0.00000000000E+00 0.  1.
         11    1    3    3    0    0 -0.17432923611E+02  0.26718404362E+02 -0.20734077004E+02  0.38048415299E+02  0.51100000000E-03 0. -1.
        -11    1    3    3    0    0  0.18640967938E+01 -0.28899988797E+01 -0.10170656789E+02  0.10736349946E+02  0.51100000000E-03 0.  1.
        -12    1    3    3    0    0  0.15816101856E+02 -0.22735783850E+02  0.30532992807E+02  0.41222913470E+02  0.00000000000E+00 0.  1.
</event>
<event>
 7    1  0.4555057E-015  0.9000769E+02  0.7816164E-02  0.1186339E+00
        -11   -1    0    0    0    0  0.00000000000E+00  0.00000000000E+00  0.45593999997E+02  0.45594000000E+02  0.51100000000E-03 0. -1.
         11   -1    0    0    0    0 -0.00000000000E+00 -0.00000000000E+00 -0.45593999997E+02  0.45594000000E+02  0.51100000000E-03 0.  1.
    9900012    2    1    2    0    0  0.31218533233E+00 -0.10685867727E+01  0.39215555846E+00  0.90007693534E+02  0.89999954288E+02 0.  0.
        -12    1    1    2    0    0 -0.31218533233E+00  0.10685867727E+01 -0.39215555846E+00  0.11803064664E+01  0.00000000000E+00 0.  1.
         11    1    3    3    0    0 -0.55700026481E+01 -0.32676518840E+02 -0.11682350238E+02  0.35146224838E+02  0.51100000000E-03 0. -1.
        -11    1    3    3    0    0 -0.43449557287E+01 -0.81057311144E+01 -0.49667798204E+01  0.10452292535E+02  0.51100000000E-03 0.  1.
        -12    1    3    3    0    0  0.10227143709E+02  0.39713663182E+02  0.17041285617E+02  0.44409176161E+02  0.00000000000E+00 0.  1.
</event>
<event>
 7    1  0.4555057E-015  0.9000746E+02  0.7816164E-02  0.1186340E+00
        -11   -1    0    0    0    0  0.00000000000E+00  0.00000000000E+00  0.45593999997E+02  0.45594000000E+02  0.51100000000E-03 0.  1.
         11   -1    0    0    0    0 -0.00000000000E+00 -0.00000000000E+00 -0.45593999997E+02  0.45594000000E+02  0.51100000000E-03 0. -1.
    9900012    2    1    2    0    0 -0.80485024357E+00 -0.85491237664E+00 -0.12254055505E+00  0.90007459753E+02  0.89999717422E+02 0.  0.
        -12    1    1    2    0    0  0.80485024357E+00  0.85491237664E+00  0.12254055505E+00  0.11805402466E+01  0.00000000000E+00 0.  1.
         11    1    3    3    0    0  0.61375241786E+01 -0.52397259006E+00  0.73841564735E+01  0.96161071856E+01  0.51100000000E-03 0. -1.
        -11    1    3    3    0    0 -0.18226603655E+02  0.46113317450E+01  0.33039927566E+02  0.38014606076E+02  0.51100000000E-03 0.  1.
         12    1    3    3    0    0  0.11284229233E+02 -0.49422715316E+01 -0.40546624594E+02  0.42376746492E+02  0.00000000000E+00 0. -1.
</event>
<event>
 7    1  0.4555057E-015  0.9000763E+02  0.7816164E-02  0.1186339E+00
        -11   -1    0    0    0    0  0.00000000000E+00  0.00000000000E+00  0.45593999997E+02  0.45594000000E+02  0.51100000000E-03 0. -1.
         11   -1    0    0    0    0 -0.00000000000E+00 -0.00000000000E+00 -0.45593999997E+02  0.45594000000E+02  0.51100000000E-03 0.  1.
    9900012    2    1    2    0    0  0.56160462462E+00 -0.97099833006E+00  0.36747152371E+00  0.90007630214E+02  0.89999890133E+02 0.  0.
        -12    1    1    2    0    0 -0.56160462462E+00  0.97099833006E+00 -0.36747152371E+00  0.11803697862E+01  0.00000000000E+00 0.  1.
         11    1    3    3    0    0 -0.81590886669E+01  0.69763336640E+01  0.39065948351E+01  0.11423722805E+02  0.51100000000E-03 0. -1.
        -11    1    3    3    0    0 -0.31907739705E+02 -0.68729645727E+01 -0.15618833701E+02  0.36184105095E+02  0.51100000000E-03 0.  1.
         12    1    3    3    0    0  0.40628432997E+02 -0.10743674213E+01  0.12079710389E+02  0.42399802313E+02  0.00000000000E+00 0. -1.
</event>
<event>
 7    1  0.4555057E-015  0.9000663E+02  0.7816164E-02  0.1186341E+00
        -11   -1    0    0    0    0  0.00000000000E+00  0.00000000000E+00  0.45593999997E+02  0.45594000000E+02  0.51100000000E-03 0.  1.
         11   -1    0    0    0    0 -0.00000000000E+00 -0.00000000000E+00 -0.45593999997E+02  0.45594000000E+02  0.51100000000E-03 0. -1.
    9900012    2    1    2    0    0 -0.26389320610E+00 -0.10983554703E+01  0.34584631191E+00  0.90006630441E+02  0.89998877156E+02 0.  0.
        -12    1    1    2    0    0  0.26389320610E+00  0.10983554703E+01 -0.34584631191E+00  0.11813695590E+01  0.00000000000E+00 0.  1.
         11    1    3    3    0    0 -0.27749150778E+02  0.17823747415E+02 -0.26229264667E+02  0.42138766783E+02  0.51100000000E-03 0. -1.
        -11    1    3    3    0    0  0.14632590933E+01  0.27377845429E+01  0.94087532850E+01  0.99076349355E+01  0.51100000000E-03 0.  1.
        -12    1    3    3    0    0  0.26021998478E+02 -0.21659887428E+02  0.17166357694E+02  0.37960228722E+02  0.00000000000E+00 0.  1.
</event>
<event>
 7    1  0.4555057E-015  0.9000752E+02  0.7816164E-02  0.1186339E+00
        -11   -1    0    0    0    0  0.00000000000E+00  0.00000000000E+00  0.45593999997E+02  0.45594000000E+02  0.51100000000E-03 0.  1.
         11   -1    0    0    0    0 -0.00000000000E+00 -0.00000000000E+00 -0.45593999997E+02  0.45594000000E+02  0.51100000000E-03 0. -1.
    9900012    2    1    2    0    0  0.67697716772E+00 -0.22775004148E+00 -0.93987886262E+00  0.90007516860E+02  0.89999775282E+02 0.  0.
        -12    1    1    2    0    0 -0.67697716772E+00  0.22775004148E+00  0.93987886262E+00  0.11804831398E+01  0.00000000000E+00 0.  1.
         11    1    3    3    0    0  0.12163264474E+02  0.32969681171E+02 -0.14321254508E+02  0.37947901261E+02  0.51100000000E-03 0. -1.
        -11    1    3    3    0    0 -0.17592484973E+00  0.55821893125E+01 -0.51677572436E+01  0.76090408241E+01  0.51100000000E-03 0.  1.
        -12    1    3    3    0    0 -0.11310362456E+02 -0.38779620525E+02  0.18549132889E+02  0.44450574775E+02  0.00000000000E+00 0.  1.
</event>
<event>
 7    1  0.4555057E-015  0.9000744E+02  0.7816164E-02  0.1186340E+00
        -11   -1    0    0    0    0  0.00000000000E+00  0.00000000000E+00  0.45593999997E+02  0.45594000000E+02  0.51100000000E-03 0. -1.
         11   -1    0    0    0    0 -0.00000000000E+00 -0.00000000000E+00 -0.45593999997E+02  0.45594000000E+02  0.51100000000E-03 0.  1.
    9900012    2    1    2    0    0 -0.97634329459E+00  0.10333653733E+00  0.65559226647E+00  0.90007438316E+02  0.89999695702E+02 0.  0.
        -12    1    1    2    0    0  0.97634329459E+00 -0.10333653733E+00 -0.65559226647E+00  0.11805616836E+01  0.00000000000E+00 0.  1.
         11    1    3    3    0    0 -0.17469814482E+02 -0.24585971505E+02  0.21721938345E+02  0.37168629495E+02  0.51100000000E-03 0. -1.
        -11    1    3    3    0    0  0.66707233073E+01 -0.73707502379E+01  0.42624423063E+01  0.10816419148E+02  0.51100000000E-03 0.  1.
        -12    1    3    3    0    0  0.98227478797E+01  0.32060058280E+02 -0.25328788384E+02  0.42022389673E+02  0.00000000000E+00 0.  1.
</event>
<event>
 7    1  0.4555057E-015  0.9000780E+02  0.7816164E-02  0.1186339E+00
        -11   -1    0    0    0    0  0.00000000000E+00  0.00000000000E+00  0.45593999997E+02  0.45594000000E+02  0.51100000000E-03 0. -1.
         11   -1    0    0    0    0 -0.00000000000E+00 -0.00000000000E+00 -0.45593999997E+02  0.45594000000E+02  0.51100000000E-03 0.  1.
    9900012    2    1    2    0    0  0.45017026368E-01 -0.46971173520E+00  0.10817600218E+01  0.90007804935E+02  0.90000067160E+02 0.  0.
        -12    1    1    2    0    0 -0.45017026368E-01  0.46971173520E+00 -0.10817600218E+01  0.11801950650E+01  0.00000000000E+00 0.  1.
         11    1    3    3    0    0 -0.33286086923E+02 -0.27183981555E+02 -0.15665965367E+01  0.43004495821E+02  0.51100000000E-03 0. -1.
        -11    1    3    3    0    0  0.82145642636E+01 -0.17026530645E+01 -0.24422872315E+01  0.87374401675E+01  0.51100000000E-03 0.  1.
        -12    1    3    3    0    0  0.25116539686E+02  0.28416922884E+02  0.50906437899E+01  0.38265868946E+02  0.00000000000E+00 0.  1.
</event>
<event>
 7    1  0.4555057E-015  0.9000776E+02  0.7816164E-02  0.1186339E+00
        -11   -1    0    0    0    0  0.00000000000E+00  0.00000000000E+00  0.45593999997E+02  0.45594000000E+02  0.51100000000E-03 0. -1.
         11   -1    0    0    0    0 -0.00000000000E+00 -0.00000000000E+00 -0.45593999997E+02  0.45594000000E+02  0.51100000000E-03 0.  1.
    9900012    2    1    2    0    0 -0.10246781099E+00  0.88742380824E+00  0.77132431003E+00  0.90007761948E+02  0.90000023606E+02 0.  0.
        -12    1    1    2    0    0  0.10246781099E+00 -0.88742380824E+00 -0.77132431003E+00  0.11802380518E+01  0.00000000000E+00 0.  1.
         11    1    3    3    0    0  0.54619721379E+01 -0.91118434083E+01 -0.64901585489E+01  0.12449136042E+02  0.51100000000E-03 0. -1.
        -11    1    3    3    0    0  0.30740912848E+02  0.20861902160E+02 -0.55337286244E+01  0.37561214533E+02  0.51100000000E-03 0.  1.
         12    1    3    3    0    0 -0.36305352797E+02 -0.10862634944E+02  0.12795211483E+02  0.39997411373E+02  0.00000000000E+00 0. -1.
</event>
<event>
 7    1  0.6274423E-015  0.9000774E+02  0.7816164E-02  0.1186339E+00
        -11   -1    0    0    0    0  0.00000000000E+00  0.00000000000E+00  0.45593999997E+02  0.45594000000E+02  0.51100000000E-03 0. -1.
         11   -1    0    0    0    0 -0.00000000000E+00 -0.00000000000E+00 -0.45593999997E+02  0.45594000000E+02  0.51100000000E-03 0.  1.
    9900012    2    1    2    0    0  0.42061696191E+00 -0.10521768002E+00  0.10977391803E+01  0.90007737022E+02  0.89999998351E+02 0.  0.
        -12    1    1    2    0    0 -0.42061696191E+00  0.10521768002E+00 -0.10977391803E+01  0.11802629778E+01  0.00000000000E+00 0.  1.
         11    1    3    3    0    0 -0.81163860003E+01  0.23239785852E+01 -0.57344435144E+01  0.10205902256E+02  0.51100000000E-03 0. -1.
        -11    1    3    3    0    0  0.30491268169E+02 -0.26330802408E+02 -0.12306688116E+02  0.42124614688E+02  0.51100000000E-03 0.  1.
         12    1    3    3    0    0 -0.21954265206E+02  0.23901606142E+02  0.19138870811E+02  0.37677220079E+02  0.00000000000E+00 0. -1.
</event>
<event>
 7    1  0.4555057E-015  0.9000775E+02  0.7816164E-02  0.1186339E+00
        -11   -1    0    0    0    0  0.00000000000E+00  0.00000000000E+00  0.45593999997E+02  0.45594000000E+02  0.51100000000E-03 0.  1.
         11   -1    0    0    0    0 -0.00000000000E+00 -0.00000000000E+00 -0.45593999997E+02  0.45594000000E+02  0.51100000000E-03 0. -1.
    9900012    2    1    2    0    0  0.80483789641E+00  0.30531714485E+00  0.80747250608E+00  0.90007748143E+02  0.90000009618E+02 0.  0.
        -12    1    1    2    0    0 -0.80483789641E+00 -0.30531714485E+00 -0.80747250608E+00  0.11802518572E+01  0.00000000000E+00 0.  1.
         11    1    3    3    0    0 -0.59904760337E-01  0.38174133587E+02 -0.14160168873E+02  0.40715825504E+02  0.51100000000E-03 0. -1.
        -11    1    3    3    0    0  0.99588652834E+01 -0.12602393608E+02 -0.38306247394E+01  0.16512813465E+02  0.51100000000E-03 0.  1.
        -12    1    3    3    0    0 -0.90941226266E+01 -0.25266422834E+02  0.18798266119E+02  0.32779109174E+02  0.00000000000E+00 0.  1.
</event>
<event>
 7    1  0.4555057E-015  0.9000770E+02  0.7816164E-02  0.1186339E+00
        -11   -1    0    0    0    0  0.00000000000E+00  0.00000000000E+00  0.45593999997E+02  0.45594000000E+02  0.51100000000E-03 0.  1.
         11   -1    0    0    0    0 -0.00000000000E+00 -0.00000000000E+00 -0.45593999997E+02  0.45594000000E+02  0.51100000000E-03 0. -1.
    9900012    2    1    2    0    0 -0.42065983243E-01  0.11795355353E+01  0.57995275407E-02  0.90007700351E+02  0.89999961196E+02 0.  0.
        -12    1    1    2    0    0  0.42065983243E-01 -0.11795355353E+01 -0.57995275407E-02  0.11802996486E+01  0.00000000000E+00 0.  1.
         11    1    3    3    0    0  0.27788745385E+02 -0.54522101756E+01 -0.12974436053E+02  0.31149268965E+02  0.51100000000E-03 0. -1.
        -11    1    3    3    0    0  0.14478171033E+02  0.39877491673E+01  0.35012532190E+01  0.15420063367E+02  0.51100000000E-03 0.  1.
        -12    1    3    3    0    0 -0.42308982402E+02  0.26439965437E+01  0.94789823614E+01  0.43438368019E+02  0.00000000000E+00 0.  1.
</event>
<event>
 7    1  0.4555057E-015  0.9000775E+02  0.7816164E-02  0.1186339E+00
        -11   -1    0    0    0    0  0.00000000000E+00  0.00000000000E+00  0.45593999997E+02  0.45594000000E+02  0.51100000000E-03 0. -1.
         11   -1    0    0    0    0 -0.00000000000E+00 -0.00000000000E+00 -0.45593999997E+02  0.45594000000E+02  0.51100000000E-03 0.  1.
    9900012    2    1    2    0    0  0.42115005298E+00  0.75158901627E+00  0.80668505827E+00  0.90007748247E+02  0.90000009724E+02 0.  0.
        -12    1    1    2    0    0 -0.42115005298E+00 -0.75158901627E+00 -0.80668505827E+00  0.11802517527E+01  0.00000000000E+00 0.  1.
         11    1    3    3    0    0 -0.10086595546E+02  0.25357850512E+01 -0.41160338443E+01  0.11185318520E+02  0.51100000000E-03 0. -1.
        -11    1    3    3    0    0  0.21526240642E+02 -0.33204663825E+02 -0.12162060158E+02  0.41398604366E+02  0.51100000000E-03 0.  1.
         12    1    3    3    0    0 -0.11018495043E+02  0.31420467790E+02  0.17084779060E+02  0.37423825361E+02  0.00000000000E+00 0. -1.
</event>
<event>
 7    1  0.4555057E-015  0.9000792E+02  0.7816164E-02  0.1186339E+00
        -11   -1    0    0    0    0  0.00000000000E+00  0.00000000000E+00  0.45593999997E+02  0.45594000000E+02  0.51100000000E-03 0.  1.
         11   -1    0    0    0    0 -0.00000000000E+00 -0.00000000000E+00 -0.45593999997E+02  0.45594000000E+02  0.51100000000E-03 0. -1.
    9900012    2    1    2    0    0 -0.60698416936E+00  0.97499176034E+00 -0.27121941174E+00  0.90007915815E+02  0.90000179503E+02 0.  0.
        -12    1    1    2    0    0  0.60698416936E+00 -0.97499176034E+00  0.27121941174E+00  0.11800841851E+01  0.00000000000E+00 0.  1.
         11    1    3    3    0    0 -0.44787411000E+01  0.27263722766E+02 -0.10388677623E+02  0.29517695098E+02  0.51100000000E-03 0. -1.
        -11    1    3    3    0    0  0.17813210173E+02  0.54162293315E+01 -0.92698389610E+01  0.20798459353E+02  0.51100000000E-03 0.  1.
        -12    1    3    3    0    0 -0.13941453243E+02 -0.31704960337E+02  0.19387297172E+02  0.39691761363E+02  0.00000000000E+00 0.  1.
</event>
<event>
 7    1  0.4555057E-015  0.9000775E+02  0.7816164E-02  0.1186339E+00
        -11   -1    0    0    0    0  0.00000000000E+00  0.00000000000E+00  0.45593999997E+02  0.45594000000E+02  0.51100000000E-03 0. -1.
         11   -1    0    0    0    0 -0.00000000000E+00 -0.00000000000E+00 -0.45593999997E+02  0.45594000000E+02  0.51100000000E-03 0.  1.
    9900012    2    1    2    0    0  0.34725323366E+00  0.11177963943E+01  0.15141778238E+00  0.90007753868E+02  0.90000015419E+02 0.  0.
        -12    1    1    2    0    0 -0.34725323366E+00 -0.11177963943E+01 -0.15141778238E+00  0.11802461321E+01  0.00000000000E+00 0.  1.
         11    1    3    3    0    0  0.99888270118E+01 -0.31435310935E+01  0.97549495879E+00  0.10517130953E+02  0.51100000000E-03 0. -1.
        -11    1    3    3    0    0  0.31271259617E+02 -0.11839213819E+02 -0.93165739033E+01  0.34711053160E+02  0.51100000000E-03 0.  1.
         12    1    3    3    0    0 -0.40912833395E+02  0.16100541307E+02  0.84924967269E+01  0.44779569755E+02  0.00000000000E+00 0. -1.
</event>
<event>
 7    1  0.4555057E-015  0.9000770E+02  0.7816164E-02  0.1186339E+00
        -11   -1    0    0    0    0  0.00000000000E+00  0.00000000000E+00  0.45593999997E+02  0.45594000000E+02  0.51100000000E-03 0.  1.
         11   -1    0    0    0    0 -0.00000000000E+00 -0.00000000000E+00 -0.45593999997E+02  0.45594000000E+02  0.51100000000E-03 0. -1.
    9900012    2    1    2    0    0  0.62994107323E+00 -0.58019353813E+00 -0.81219887161E+00  0.90007696097E+02  0.89999956885E+02 0.  0.
        -12    1    1    2    0    0 -0.62994107323E+00  0.58019353813E+00  0.81219887161E+00  0.11803039034E+01  0.00000000000E+00 0.  1.
         11    1    3    3    0    0 -0.22252726286E+02  0.96475153050E+01 -0.32033530436E+02  0.40179664647E+02  0.51100000000E-03 0. -1.
        -11    1    3    3    0    0 -0.52802447533E+01  0.45534058054E+01  0.46210511433E+01  0.83647237261E+01  0.51100000000E-03 0.  1.
        -12    1    3    3    0    0  0.28162912112E+02 -0.14781114648E+02  0.26600280421E+02  0.41463307723E+02  0.00000000000E+00 0.  1.
</event>
<event>
 7    1  0.4555057E-015  0.9000779E+02  0.7816164E-02  0.1186339E+00
        -11   -1    0    0    0    0  0.00000000000E+00  0.00000000000E+00  0.45593999997E+02  0.45594000000E+02  0.51100000000E-03 0. -1.
         11   -1    0    0    0    0 -0.00000000000E+00 -0.00000000000E+00 -0.45593999997E+02  0.45594000000E+02  0.51100000000E-03 0.  1.
    9900012    2    1    2    0    0 -0.24374949603E+00  0.10697598493E+01  0.43483913420E+00  0.90007794499E+02  0.90000056586E+02 0.  0.
        -12    1    1    2    0    0  0.24374949603E+00 -0.10697598493E+01 -0.43483913420E+00  0.11802055010E+01  0.00000000000E+00 0.  1.
         11    1    3    3    0    0 -0.29566203531E+02 -0.17866530649E+02  0.16920389875E+02  0.38466516641E+02  0.51100000000E-03 0. -1.
        -11    1    3    3    0    0  0.70540933849E+01 -0.68883362650E+01  0.51835284237E+01  0.11139047408E+02  0.51100000000E-03 0.  1.
        -12    1    3    3    0    0  0.22268360650E+02  0.25824626764E+02 -0.21669079164E+02  0.40402230450E+02  0.00000000000E+00 0.  1.
</event>
<event>
 7    1  0.4555057E-015  0.9000775E+02  0.7816164E-02  0.1186339E+00
        -11   -1    0    0    0    0  0.00000000000E+00  0.00000000000E+00  0.45593999997E+02  0.45594000000E+02  0.51100000000E-03 0. -1.
         11   -1    0    0    0    0 -0.00000000000E+00 -0.00000000000E+00 -0.45593999997E+02  0.45594000000E+02  0.51100000000E-03 0.  1.
    9900012    2    1    2    0    0  0.29626592445E+00 -0.65777625661E+00  0.93410560489E+00  0.90007747322E+02  0.90000008787E+02 0.  0.
        -12    1    1    2    0    0 -0.29626592445E+00  0.65777625661E+00 -0.93410560489E+00  0.11802526775E+01  0.00000000000E+00 0.  1.
         11    1    3    3    0    0 -0.80409509114E+01  0.32492289576E+02  0.16706418191E+02  0.37410027834E+02  0.51100000000E-03 0. -1.
        -11    1    3    3    0    0 -0.11303846705E+00  0.80820312294E+01 -0.28232308564E+01  0.85616960479E+01  0.51100000000E-03 0.  1.
        -12    1    3    3    0    0  0.84502553029E+01 -0.41232097062E+02 -0.12949081730E+02  0.44036023441E+02  0.00000000000E+00 0.  1.
</event>
<event>
 7    1  0.4555057E-015  0.9000763E+02  0.7816164E-02  0.1186339E+00
        -11   -1    0    0    0    0  0.00000000000E+00  0.00000000000E+00  0.45593999997E+02  0.45594000000E+02  0.51100000000E-03 0.  1.
         11   -1    0    0    0    0 -0.00000000000E+00 -0.00000000000E+00 -0.45593999997E+02  0.45594000000E+02  0.51100000000E-03 0. -1.
    9900012    2    1    2    0    0 -0.48354363153E+00  0.79288693741E+00 -0.72855463328E+00  0.90007628875E+02  0.89999888776E+02 0.  0.
        -12    1    1    2    0    0  0.48354363153E+00 -0.79288693741E+00  0.72855463328E+00  0.11803711250E+01  0.00000000000E+00 0.  1.
         11    1    3    3    0    0  0.49407896450E+01  0.96454509988E+01 -0.30664740872E+00  0.10841593987E+02  0.51100000000E-03 0. -1.
        -11    1    3    3    0    0 -0.24557821456E+02  0.17548754299E+02  0.23890371002E+02  0.38494093040E+02  0.51100000000E-03 0.  1.
         12    1    3    3    0    0  0.19133488179E+02 -0.26401318361E+02 -0.24312278227E+02  0.40671941848E+02  0.00000000000E+00 0. -1.
</event>
<event>
 7    1  0.4555057E-015  0.9000782E+02  0.7816164E-02  0.1186339E+00
        -11   -1    0    0    0    0  0.00000000000E+00  0.00000000000E+00  0.45593999997E+02  0.45594000000E+02  0.51100000000E-03 0.  1.
         11   -1    0    0    0    0 -0.00000000000E+00 -0.00000000000E+00 -0.45593999997E+02  0.45594000000E+02  0.51100000000E-03 0. -1.
    9900012    2    1    2    0    0 -0.57520904947E+00  0.36747757145E+00 -0.96277198132E+00  0.90007815648E+02  0.90000078015E+02 0.  0.
        -12    1    1    2    0    0  0.57520904947E+00 -0.36747757145E+00  0.96277198132E+00  0.11801843518E+01  0.00000000000E+00 0.  1.
         11    1    3    3    0    0  0.33456831576E+02 -0.48717561451E+01 -0.20137741978E+02  0.39352537901E+02  0.51100000000E-03 0. -1.
        -11    1    3    3    0    0  0.42951355171E+01 -0.49338473923E+01  0.59809831909E+01  0.88635884038E+01  0.51100000000E-03 0.  1.
        -12    1    3    3    0    0 -0.38327176143E+02  0.10173081109E+02  0.13193986805E+02  0.41791689343E+02  0.00000000000E+00 0.  1.
</event>
<event>
 7    1  0.4555057E-015  0.9000773E+02  0.7816164E-02  0.1186339E+00
        -11   -1    0    0    0    0  0.00000000000E+00  0.00000000000E+00  0.45593999997E+02  0.45594000000E+02  0.51100000000E-03 0.  1.
         11   -1    0    0    0    0 -0.00000000000E+00 -0.00000000000E+00 -0.45593999997E+02  0.45594000000E+02  0.51100000000E-03 0. -1.
    9900012    2    1    2    0    0  0.33712469871E+00  0.11133852134E+01 -0.19937688356E+00  0.90007732726E+02  0.89999993998E+02 0.  0.
        -12    1    1    2    0    0 -0.33712469871E+00 -0.11133852134E+01  0.19937688356E+00  0.11802672738E+01  0.00000000000E+00 0.  1.
         11    1    3    3    0    0 -0.49620562437E+01  0.57572217866E+01  0.22114183726E+01  0.79156791462E+01  0.51100000000E-03 0. -1.
        -11    1    3    3    0    0 -0.33473205516E+02  0.17034940381E+02  0.66251698596E+00  0.37564392851E+02  0.51100000000E-03 0.  1.
         12    1    3    3    0    0  0.38772386458E+02 -0.21678776954E+02 -0.30733122421E+01  0.44527660729E+02  0.00000000000E+00 0. -1.
</event>
<event>
 7    1  0.4555057E-015  0.9000788E+02  0.7816164E-02  0.1186339E+00
        -11   -1    0    0    0    0  0.00000000000E+00  0.00000000000E+00  0.45593999997E+02  0.45594000000E+02  0.51100000000E-03 0.  1.
         11   -1    0    0    0    0 -0.00000000000E+00 -0.00000000000E+00 -0.45593999997E+02  0.45594000000E+02  0.51100000000E-03 0. -1.
    9900012    2    1    2    0    0  0.83877654640E+00  0.73457774240E+00 -0.38670768287E+00  0.90007875690E+02  0.90000138849E+02 0.  0.
        -12    1    1    2    0    0 -0.83877654640E+00 -0.73457774240E+00  0.38670768287E+00  0.11801243097E+01  0.00000000000E+00 0.  1.
         11    1    3    3    0    0  0.10490183329E+02  0.36723055193E+01 -0.64121762486E+01  0.12831437122E+02  0.51100000000E-03 0. -1.
        -11    1    3    3    0    0  0.11614268690E+02  0.25939842965E+02  0.23873743639E+02  0.37117682118E+02  0.51100000000E-03 0.  1.
         12    1    3    3    0    0 -0.21265675472E+02 -0.28877570742E+02 -0.17848275073E+02  0.40058756450E+02  0.00000000000E+00 0. -1.
</event>
<event>
 7    1  0.4555057E-015  0.9000769E+02  0.7816164E-02  0.1186339E+00
        -11   -1    0    0    0    0  0.00000000000E+00  0.00000000000E+00  0.45593999997E+02  0.45594000000E+02  0.51100000000E-03 0. -1.
         11   -1    0    0    0    0 -0.00000000000E+00 -0.00000000000E+00 -0.45593999997E+02  0.45594000000E+02  0.51100000000E-03 0.  1.
    9900012    2    1    2    0    0 -0.80197836262E+00  0.82766892211E+00  0.25480625676E+00  0.90007690139E+02  0.89999950849E+02 0.  0.
        -12    1    1    2    0    0  0.80197836262E+00 -0.82766892211E+00 -0.25480625676E+00  0.11803098607E+01  0.00000000000E+00 0.  1.
         11    1    3    3    0    0 -0.23273139952E+02 -0.33588567240E+02  0.89079115454E+00  0.40873272460E+02  0.51100000000E-03 0. -1.
        -11    1    3    3    0    0  0.27927592667E+01  0.76264456432E+01 -0.11575087117E+02  0.14140184563E+02  0.51100000000E-03 0.  1.
        -12    1    3    3    0    0  0.19678402323E+02  0.26789790519E+02  0.10939102219E+02  0.34994233116E+02  0.00000000000E+00 0.  1.
</event>
<event>
 7    1  0.4555057E-015  0.9000753E+02  0.7816164E-02  0.1186339E+00
        -11   -1    0    0    0    0  0.00000000000E+00  0.00000000000E+00  0.45593999997E+02  0.45594000000E+02  0.51100000000E-03 0. -1.
         11   -1    0    0    0    0 -0.00000000000E+00 -0.00000000000E+00 -0.45593999997E+02  0.45594000000E+02  0.51100000000E-03 0.  1.
    9900012    2    1    2    0    0  0.14122508228E+00 -0.10915328188E+01  0.42674269963E+00  0.90007534943E+02  0.89999793604E+02 0.  0.
        -12    1    1    2    0    0 -0.14122508228E+00  0.10915328188E+01 -0.42674269963E+00  0.11804650566E+01  0.00000000000E+00 0.  1.
         11    1    3    3    0    0  0.35392117512E+02  0.54433330814E+01 -0.13621209700E+02  0.38311476231E+02  0.51100000000E-03 0. -1.
        -11    1    3    3    0    0  0.90278753573E+00  0.93304758054E+01  0.67355711508E+01  0.11542994546E+02  0.51100000000E-03 0.  1.
        -12    1    3    3    0    0 -0.36153679965E+02 -0.15865341706E+02  0.73123812493E+01  0.40153064167E+02  0.00000000000E+00 0.  1.
</event>
<event>
 7    1  0.4555057E-015  0.9000773E+02  0.7816164E-02  0.1186339E+00
        -11   -1    0    0    0    0  0.00000000000E+00  0.00000000000E+00  0.45593999997E+02  0.45594000000E+02  0.51100000000E-03 0.  1.
         11   -1    0    0    0    0 -0.00000000000E+00 -0.00000000000E+00 -0.45593999997E+02  0.45594000000E+02  0.51100000000E-03 0. -1.
    9900012    2    1    2    0    0  0.55016024113E-01 -0.11360607675E+01 -0.31525793469E+00  0.90007725288E+02  0.89999986462E+02 0.  0.
        -12    1    1    2    0    0 -0.55016024113E-01  0.11360607675E+01  0.31525793469E+00  0.11802747119E+01  0.00000000000E+00 0.  1.
         11    1    3    3    0    0  0.11465708754E+02 -0.39456219075E+02 -0.11601820130E+02  0.42694940351E+02  0.51100000000E-03 0. -1.
        -11    1    3    3    0    0  0.35697728747E+01  0.27946794023E+01  0.72452195557E+01  0.85467372728E+01  0.51100000000E-03 0.  1.
        -12    1    3    3    0    0 -0.14980465605E+02  0.35525478906E+02  0.40413426392E+01  0.38766047665E+02  0.00000000000E+00 0.  1.
</event>
<event>
 7    1  0.4555057E-015  0.9000789E+02  0.7816164E-02  0.1186339E+00
        -11   -1    0    0    0    0  0.00000000000E+00  0.00000000000E+00  0.45593999997E+02  0.45594000000E+02  0.51100000000E-03 0.  1.
         11   -1    0    0    0    0 -0.00000000000E+00 -0.00000000000E+00 -0.45593999997E+02  0.45594000000E+02  0.51100000000E-03 0. -1.
    9900012    2    1    2    0    0 -0.92568164244E+00 -0.58712220034E+00  0.43711816877E+00  0.90007885059E+02  0.90000148341E+02 0.  0.
        -12    1    1    2    0    0  0.92568164244E+00  0.58712220034E+00 -0.43711816877E+00  0.11801149413E+01  0.00000000000E+00 0.  1.
         11    1    3    3    0    0  0.26128591361E+02  0.18366194752E+02 -0.18299857521E+02  0.36809036686E+02  0.51100000000E-03 0. -1.
        -11    1    3    3    0    0  0.53237219078E+01  0.64868357594E+01  0.51127509481E+01  0.98265597052E+01  0.51100000000E-03 0.  1.
        -12    1    3    3    0    0 -0.32377994911E+02 -0.25440152712E+02  0.13624224742E+02  0.43372288668E+02  0.00000000000E+00 0.  1.
</event>
<event>
 7    1  0.4555057E-015  0.9000770E+02  0.7816164E-02  0.1186339E+00
        -11   -1    0    0    0    0  0.00000000000E+00  0.00000000000E+00  0.45593999997E+02  0.45594000000E+02  0.51100000000E-03 0.  1.
         11   -1    0    0    0    0 -0.00000000000E+00 -0.00000000000E+00 -0.45593999997E+02  0.45594000000E+02  0.51100000000E-03 0. -1.
    9900012    2    1    2    0    0 -0.89331442055E+00 -0.33158895435E-01 -0.77071535259E+00  0.90007698208E+02  0.89999959024E+02 0.  0.
        -12    1    1    2    0    0  0.89331442055E+00  0.33158895435E-01  0.77071535259E+00  0.11803017924E+01  0.00000000000E+00 0.  1.
         11    1    3    3    0    0 -0.43513398719E+01 -0.50979152530E+01  0.64566379028E+01  0.93065069643E+01  0.51100000000E-03 0. -1.
        -11    1    3    3    0    0 -0.23739947711E+02 -0.54235575454E+01  0.26588905046E+02  0.36055096250E+02  0.51100000000E-03 0.  1.
         12    1    3    3    0    0  0.27197973162E+02  0.10488313903E+02 -0.33816258302E+02  0.44646094994E+02  0.00000000000E+00 0. -1.
</event>
<event>
 7    1  0.4555057E-015  0.9000768E+02  0.7816164E-02  0.1186339E+00
        -11   -1    0    0    0    0  0.00000000000E+00  0.00000000000E+00  0.45593999997E+02  0.45594000000E+02  0.51100000000E-03 0. -1.
         11   -1    0    0    0    0 -0.00000000000E+00 -0.00000000000E+00 -0.45593999997E+02  0.45594000000E+02  0.51100000000E-03 0.  1.
    9900012    2    1    2    0    0  0.65384012374E+00 -0.96527455369E+00 -0.18407569602E+00  0.90007684054E+02  0.89999944683E+02 0.  0.
        -12    1    1    2    0    0 -0.65384012374E+00  0.96527455369E+00  0.18407569602E+00  0.11803159464E+01  0.00000000000E+00 0.  1.
         11    1    3    3    0    0  0.16848993829E+02  0.26166665404E+02  0.11026089281E+02  0.33017534985E+02  0.51100000000E-03 0. -1.
        -11    1    3    3    0    0  0.18938916168E+01  0.90817307321E+01  0.79379366607E+01  0.12209647711E+02  0.51100000000E-03 0.  1.
        -12    1    3    3    0    0 -0.18089045322E+02 -0.36213670690E+02 -0.19148101637E+02  0.44780501357E+02  0.00000000000E+00 0.  1.
</event>
<event>
 7    1  0.4555057E-015  0.9000775E+02  0.7816164E-02  0.1186339E+00
        -11   -1    0    0    0    0  0.00000000000E+00  0.00000000000E+00  0.45593999997E+02  0.45594000000E+02  0.51100000000E-03 0.  1.
         11   -1    0    0    0    0 -0.00000000000E+00 -0.00000000000E+00 -0.45593999997E+02  0.45594000000E+02  0.51100000000E-03 0. -1.
    9900012    2    1    2    0    0 -0.79257361986E+00 -0.72636548672E+00 -0.48704267219E+00  0.90007749888E+02  0.90000011386E+02 0.  0.
        -12    1    1    2    0    0  0.79257361986E+00  0.72636548672E+00  0.48704267219E+00  0.11802501124E+01  0.00000000000E+00 0.  1.
         11    1    3    3    0    0 -0.75536177183E+01  0.56784184836E+01 -0.26752794730E+01  0.98213388918E+01  0.51100000000E-03 0. -1.
        -11    1    3    3    0    0 -0.19896906046E+02 -0.30934872440E+02  0.17651643841E+02  0.40797472148E+02  0.51100000000E-03 0.  1.
         12    1    3    3    0    0  0.26657950145E+02  0.24530088470E+02 -0.15463407040E+02  0.39388938848E+02  0.00000000000E+00 0. -1.
</event>
<event>
 7    1  0.4555057E-015  0.9000772E+02  0.7816164E-02  0.1186339E+00
        -11   -1    0    0    0    0  0.00000000000E+00  0.00000000000E+00  0.45593999997E+02  0.45594000000E+02  0.51100000000E-03 0.  1.
         11   -1    0    0    0    0 -0.00000000000E+00 -0.00000000000E+00 -0.45593999997E+02  0.45594000000E+02  0.51100000000E-03 0. -1.
    9900012    2    1    2    0    0 -0.52690418419E+00 -0.59754097667E+00 -0.87084783063E+00  0.90007720719E+02  0.89999981832E+02 0.  0.
        -12    1    1    2    0    0  0.52690418419E+00  0.59754097667E+00  0.87084783063E+00  0.11802792815E+01  0.00000000000E+00 0.  1.
         11    1    3    3    0    0  0.31235217366E+02 -0.19536317034E+02 -0.16082850942E+02  0.40199061953E+02  0.51100000000E-03 0. -1.
        -11    1    3    3    0    0 -0.68422135959E+01 -0.43060633957E+01 -0.56397182268E+01  0.98572050196E+01  0.51100000000E-03 0.  1.
        -12    1    3    3    0    0 -0.24919907955E+02  0.23244839453E+02  0.20851721338E+02  0.39951453746E+02  0.00000000000E+00 0.  1.
</event>
<event>
 7    1  0.4555057E-015  0.9000779E+02  0.7816164E-02  0.1186339E+00
        -11   -1    0    0    0    0  0.00000000000E+00  0.00000000000E+00  0.45593999997E+02  0.45594000000E+02  0.51100000000E-03 0. -1.
         11   -1    0    0    0    0 -0.00000000000E+00 -0.00000000000E+00 -0.45593999997E+02  0.45594000000E+02  0.51100000000E-03 0.  1.
    9900012    2    1    2    0    0 -0.57807059801E+00  0.10091742454E+01 -0.20071367850E+00  0.90007794825E+02  0.90000056917E+02 0.  0.
        -12    1    1    2    0    0  0.57807059801E+00 -0.10091742454E+01  0.20071367850E+00  0.11802051748E+01  0.00000000000E+00 0.  1.
         11    1    3    3    0    0  0.23161277901E+01 -0.66191853788E+00  0.73990058266E+01  0.77812512859E+01  0.51100000000E-03 0. -1.
        -11    1    3    3    0    0 -0.28637031027E+02  0.14712931873E+02 -0.31285852581E+02  0.44892699655E+02  0.51100000000E-03 0.  1.
         12    1    3    3    0    0  0.25742832639E+02 -0.13041839090E+02  0.23686133076E+02  0.37333843884E+02  0.00000000000E+00 0. -1.
</event>
<event>
 7    1  0.4555057E-015  0.9000762E+02  0.7816164E-02  0.1186339E+00
        -11   -1    0    0    0    0  0.00000000000E+00  0.00000000000E+00  0.45593999997E+02  0.45594000000E+02  0.51100000000E-03 0.  1.
         11   -1    0    0    0    0 -0.00000000000E+00 -0.00000000000E+00 -0.45593999997E+02  0.45594000000E+02  0.51100000000E-03 0. -1.
    9900012    2    1    2    0    0 -0.81582010609E+00 -0.69315572416E+00 -0.49727371824E+00  0.90007615125E+02  0.89999874844E+02 0.  0.
        -12    1    1    2    0    0  0.81582010609E+00  0.69315572416E+00  0.49727371824E+00  0.11803848755E+01  0.00000000000E+00 0.  1.
         11    1    3    3    0    0  0.35930482650E+01 -0.35965211600E+01 -0.85625271190E+01  0.99580033749E+01  0.51100000000E-03 0. -1.
        -11    1    3    3    0    0  0.10677534040E+02 -0.36152818666E+02  0.55785283294E+01  0.38107164802E+02  0.51100000000E-03 0.  1.
         12    1    3    3    0    0 -0.15086402412E+02  0.39056184102E+02  0.24867250714E+01  0.41942446947E+02  0.00000000000E+00 0. -1.
</event>
<event>
 7    1  0.4555057E-015  0.9000773E+02  0.7816164E-02  0.1186339E+00
        -11   -1    0    0    0    0  0.00000000000E+00  0.00000000000E+00  0.45593999997E+02  0.45594000000E+02  0.51100000000E-03 0.  1.
         11   -1    0    0    0    0 -0.00000000000E+00 -0.00000000000E+00 -0.45593999997E+02  0.45594000000E+02  0.51100000000E-03 0. -1.
    9900012    2    1    2    0    0 -0.11634671978E+01  0.59171015827E-01  0.18941072946E+00  0.90007731576E+02  0.89999992832E+02 0.  0.
        -12    1    1    2    0    0  0.11634671978E+01 -0.59171015827E-01 -0.18941072946E+00  0.11802684245E+01  0.00000000000E+00 0.  1.
         11    1    3    3    0    0 -0.60418096391E+01  0.32713080736E+01 -0.33822868314E+02  0.34513639933E+02  0.51100000000E-03 0. -1.
        -11    1    3    3    0    0  0.80901270957E+01  0.37076666890E+01 -0.84978259595E+01  0.12304876879E+02  0.51100000000E-03 0.  1.
        -12    1    3    3    0    0 -0.32117846544E+01 -0.69198037468E+01  0.42510105003E+02  0.43189214764E+02  0.00000000000E+00 0.  1.
</event>
<event>
 7    1  0.4555057E-015  0.9000771E+02  0.7816164E-02  0.1186339E+00
        -11   -1    0    0    0    0  0.00000000000E+00  0.00000000000E+00  0.45593999997E+02  0.45594000000E+02  0.51100000000E-03 0. -1.
         11   -1    0    0    0    0 -0.00000000000E+00 -0.00000000000E+00 -0.45593999997E+02  0.45594000000E+02  0.51100000000E-03 0.  1.
    9900012    2    1    2    0    0 -0.83586571859E+00 -0.27926167126E+00  0.78512280760E+00  0.90007713423E+02  0.89999974440E+02 0.  0.
        -12    1    1    2    0    0  0.83586571859E+00  0.27926167126E+00 -0.78512280760E+00  0.11802865769E+01  0.00000000000E+00 0.  1.
         11    1    3    3    0    0  0.10621822375E+02 -0.10934477959E+02  0.16763849077E+02  0.22658608848E+02  0.51100000000E-03 0. -1.
        -11    1    3    3    0    0  0.13252537397E+02 -0.20867636084E+01  0.18629075743E+02  0.22957064122E+02  0.51100000000E-03 0.  1.
        -12    1    3    3    0    0 -0.24710225490E+02  0.12741979896E+02 -0.34607802012E+02  0.44392040453E+02  0.00000000000E+00 0.  1.
</event>
<event>
 7    1  0.4555057E-015  0.9000763E+02  0.7816164E-02  0.1186339E+00
        -11   -1    0    0    0    0  0.00000000000E+00  0.00000000000E+00  0.45593999997E+02  0.45594000000E+02  0.51100000000E-03 0. -1.
         11   -1    0    0    0    0 -0.00000000000E+00 -0.00000000000E+00 -0.45593999997E+02  0.45594000000E+02  0.51100000000E-03 0.  1.
    9900012    2    1    2    0    0  0.41169676402E+00  0.10936201123E+00  0.11008212607E+01  0.90007634920E+02  0.89999894900E+02 0.  0.
        -12    1    1    2    0    0 -0.41169676402E+00 -0.10936201123E+00 -0.11008212607E+01  0.11803650804E+01  0.00000000000E+00 0.  1.
         11    1    3    3    0    0 -0.91657624124E+01 -0.68663131078E+01 -0.85337929431E+00  0.11484150503E+02  0.51100000000E-03 0. -1.
        -11    1    3    3    0    0 -0.31842501915E+02 -0.68693351691E+01 -0.83991354774E+01  0.33640424654E+02  0.51100000000E-03 0.  1.
         12    1    3    3    0    0  0.41419961091E+02  0.13845010288E+02  0.10353336032E+02  0.44883059763E+02  0.00000000000E+00 0. -1.
</event>
<event>
 7    1  0.4555057E-015  0.9000864E+02  0.7816164E-02  0.1186337E+00
        -11   -1    0    0    0    0  0.00000000000E+00  0.00000000000E+00  0.45593999997E+02  0.45594000000E+02  0.51100000000E-03 0. -1.
         11   -1    0    0    0    0 -0.00000000000E+00 -0.00000000000E+00 -0.45593999997E+02  0.45594000000E+02  0.51100000000E-03 0.  1.
    9900012    2    1    2    0    0 -0.24002239980E+00 -0.75258019055E+00  0.87572461850E+00  0.90008643691E+02  0.90000916983E+02 0.  0.
        -12    1    1    2    0    0  0.24002239980E+00  0.75258019055E+00 -0.87572461850E+00  0.11793563088E+01  0.00000000000E+00 0.  1.
         11    1    3    3    0    0 -0.35923486285E+01  0.32410310107E+02 -0.13858394024E+02  0.35431458551E+02  0.51100000000E-03 0. -1.
        -11    1    3    3    0    0 -0.93976464716E+01  0.55625540380E+01  0.72969565183E+01  0.13134052738E+02  0.51100000000E-03 0.  1.
        -12    1    3    3    0    0  0.12749972700E+02 -0.38725444335E+02  0.74371621243E+01  0.41443132402E+02  0.00000000000E+00 0.  1.
</event>
<event>
 7    1  0.4555057E-015  0.9000773E+02  0.7816164E-02  0.1186339E+00
        -11   -1    0    0    0    0  0.00000000000E+00  0.00000000000E+00  0.45593999997E+02  0.45594000000E+02  0.51100000000E-03 0.  1.
         11   -1    0    0    0    0 -0.00000000000E+00 -0.00000000000E+00 -0.45593999997E+02  0.45594000000E+02  0.51100000000E-03 0. -1.
    9900012    2    1    2    0    0  0.69931850013E-01  0.11779000155E+01  0.26344460792E-01  0.90007731835E+02  0.89999993095E+02 0.  0.
        -12    1    1    2    0    0 -0.69931850013E-01 -0.11779000155E+01 -0.26344460792E-01  0.11802681647E+01  0.00000000000E+00 0.  1.
         11    1    3    3    0    0 -0.61039177676E+01  0.72767082947E+00 -0.74358201843E+01  0.96477323254E+01  0.51100000000E-03 0. -1.
        -11    1    3    3    0    0  0.32565512457E+01  0.28475378268E+02  0.32027000458E+02  0.42978844239E+02  0.51100000000E-03 0.  1.
         12    1    3    3    0    0  0.29172983719E+01 -0.28025149082E+02 -0.24564835813E+02  0.37381155271E+02  0.00000000000E+00 0. -1.
</event>
<event>
 7    1  0.4555057E-015  0.9000774E+02  0.7816164E-02  0.1186339E+00
        -11   -1    0    0    0    0  0.00000000000E+00  0.00000000000E+00  0.45593999997E+02  0.45594000000E+02  0.51100000000E-03 0. -1.
         11   -1    0    0    0    0 -0.00000000000E+00 -0.00000000000E+00 -0.45593999997E+02  0.45594000000E+02  0.51100000000E-03 0.  1.
    9900012    2    1    2    0    0 -0.37786183525E+00  0.52725580038E-01  0.11168985484E+01  0.90007736504E+02  0.89999997826E+02 0.  0.
        -12    1    1    2    0    0  0.37786183525E+00 -0.52725580038E-01 -0.11168985484E+01  0.11802634963E+01  0.00000000000E+00 0.  1.
         11    1    3    3    0    0 -0.36497757290E+00  0.25005395726E+02  0.32815032817E+02  0.41258082882E+02  0.51100000000E-03 0. -1.
        -11    1    3    3    0    0  0.42011647047E+01  0.51453809031E+01 -0.54503658481E+01  0.85925093921E+01  0.51100000000E-03 0.  1.
        -12    1    3    3    0    0 -0.42140489671E+01 -0.30098051049E+02 -0.26247768420E+02  0.40157144230E+02  0.00000000000E+00 0.  1.
</event>
<event>
 7    1  0.4555057E-015  0.9000774E+02  0.7816164E-02  0.1186339E+00
        -11   -1    0    0    0    0  0.00000000000E+00  0.00000000000E+00  0.45593999997E+02  0.45594000000E+02  0.51100000000E-03 0. -1.
         11   -1    0    0    0    0 -0.00000000000E+00 -0.00000000000E+00 -0.45593999997E+02  0.45594000000E+02  0.51100000000E-03 0.  1.
    9900012    2    1    2    0    0 -0.13095529762E+00  0.62298906371E+00  0.99385467972E+00  0.90007740796E+02  0.90000002175E+02 0.  0.
        -12    1    1    2    0    0  0.13095529762E+00 -0.62298906371E+00 -0.99385467972E+00  0.11802592037E+01  0.00000000000E+00 0.  1.
         11    1    3    3    0    0 -0.27510316785E+02 -0.89822244599E+01  0.25584898325E+02  0.38627514914E+02  0.51100000000E-03 0. -1.
        -11    1    3    3    0    0  0.33918925218E+01  0.32992320215E+00  0.86817086797E+01  0.93266205058E+01  0.51100000000E-03 0.  1.
        -12    1    3    3    0    0  0.23987468966E+02  0.92752903215E+01 -0.33272752325E+02  0.42053605377E+02  0.00000000000E+00 0.  1.
</event>
<event>
 7    1  0.4555057E-015  0.9000776E+02  0.7816164E-02  0.1186339E+00
        -11   -1    0    0    0    0  0.00000000000E+00  0.00000000000E+00  0.45593999997E+02  0.45594000000E+02  0.51100000000E-03 0. -1.
         11   -1    0    0    0    0 -0.00000000000E+00 -0.00000000000E+00 -0.45593999997E+02  0.45594000000E+02  0.51100000000E-03 0.  1.
    9900012    2    1    2    0    0  0.98117589258E+00 -0.61380824978E+00 -0.23130511419E+00  0.90007759027E+02  0.90000020646E+02 0.  0.
        -12    1    1    2    0    0 -0.98117589258E+00  0.61380824978E+00  0.23130511419E+00  0.11802409735E+01  0.00000000000E+00 0.  1.
         11    1    3    3    0    0 -0.25916223261E+02  0.33994022779E+02  0.24706635713E+01  0.42817617771E+02  0.51100000000E-03 0. -1.
        -11    1    3    3    0    0  0.14721977683E+01 -0.73692267279E+01 -0.62314227821E+01  0.97623510993E+01  0.51100000000E-03 0.  1.
        -12    1    3    3    0    0  0.25425201386E+02 -0.27238604301E+02  0.35294540966E+01  0.37427790156E+02  0.00000000000E+00 0.  1.
</event>
<event>
 7    1  0.4555057E-015  0.9000773E+02  0.7816164E-02  0.1186339E+00
        -11   -1    0    0    0    0  0.00000000000E+00  0.00000000000E+00  0.45593999997E+02  0.45594000000E+02  0.51100000000E-03 0.  1.
         11   -1    0    0    0    0 -0.00000000000E+00 -0.00000000000E+00 -0.45593999997E+02  0.45594000000E+02  0.51100000000E-03 0. -1.
    9900012    2    1    2    0    0 -0.91693704606E+00  0.50439662247E+00 -0.54574916022E+00  0.90007732384E+02  0.89999993652E+02 0.  0.
        -12    1    1    2    0    0  0.91693704606E+00 -0.50439662247E+00  0.54574916022E+00  0.11802676159E+01  0.00000000000E+00 0.  1.
         11    1    3    3    0    0 -0.34083977923E+01  0.98038509611E+01  0.29032692873E+01  0.10777831043E+02  0.51100000000E-03 0. -1.
        -11    1    3    3    0    0  0.12126402235E+02  0.32082213310E+02  0.80158356967E+01  0.35221749875E+02  0.51100000000E-03 0.  1.
         12    1    3    3    0    0 -0.96349414893E+01 -0.41381667649E+02 -0.11464854144E+02  0.44008151466E+02  0.00000000000E+00 0. -1.
</event>
<event>
 7    1  0.4555057E-015  0.9000768E+02  0.7816164E-02  0.1186339E+00
        -11   -1    0    0    0    0  0.00000000000E+00  0.00000000000E+00  0.45593999997E+02  0.45594000000E+02  0.51100000000E-03 0.  1.
         11   -1    0    0    0    0 -0.00000000000E+00 -0.00000000000E+00 -0.45593999997E+02  0.45594000000E+02  0.51100000000E-03 0. -1.
    9900012    2    1    2    0    0  0.78713575833E+00 -0.87136872288E+00  0.11948834449E+00  0.90007684950E+02  0.89999945591E+02 0.  0.
        -12    1    1    2    0    0 -0.78713575833E+00  0.87136872288E+00 -0.11948834449E+00  0.11803150502E+01  0.00000000000E+00 0.  1.
         11    1    3    3    0    0 -0.12111107429E+02  0.26554673662E+02  0.23860723822E+02  0.37698325666E+02  0.51100000000E-03 0. -1.
        -11    1    3    3    0    0 -0.77781433753E+01  0.41496407937E+01 -0.54853280897E+01  0.10383056274E+02  0.51100000000E-03 0.  1.
        -12    1    3    3    0    0  0.20676386563E+02 -0.31575683178E+02 -0.18255907388E+02  0.41926303009E+02  0.00000000000E+00 0.  1.
</event>
<event>
 7    1  0.4555057E-015  0.9000654E+02  0.7816164E-02  0.1186341E+00
        -11   -1    0    0    0    0  0.00000000000E+00  0.00000000000E+00  0.45593999997E+02  0.45594000000E+02  0.51100000000E-03 0.  1.
         11   -1    0    0    0    0 -0.00000000000E+00 -0.00000000000E+00 -0.45593999997E+02  0.45594000000E+02  0.51100000000E-03 0. -1.
    9900012    2    1    2    0    0  0.53781980338E+00  0.46861552520E+00 -0.94180783146E+00  0.90006537922E+02  0.89998783414E+02 0.  0.
        -12    1    1    2    0    0 -0.53781980338E+00 -0.46861552520E+00  0.94180783146E+00  0.11814620784E+01  0.00000000000E+00 0.  1.
         11    1    3    3    0    0  0.46759555477E+01  0.89201240735E+01  0.52708483966E-01  0.10071541700E+02  0.51100000000E-03 0. -1.
        -11    1    3    3    0    0 -0.24089215136E+02  0.75026148790E+01  0.30370337231E+02  0.39483374978E+02  0.51100000000E-03 0.  1.
         12    1    3    3    0    0  0.19951079392E+02 -0.15954123427E+02 -0.31364853546E+02  0.40451621243E+02  0.00000000000E+00 0. -1.
</event>
<event>
 7    1  0.4555057E-015  0.9000769E+02  0.7816164E-02  0.1186339E+00
        -11   -1    0    0    0    0  0.00000000000E+00  0.00000000000E+00  0.45593999997E+02  0.45594000000E+02  0.51100000000E-03 0.  1.
         11   -1    0    0    0    0 -0.00000000000E+00 -0.00000000000E+00 -0.45593999997E+02  0.45594000000E+02  0.51100000000E-03 0. -1.
    9900012    2    1    2    0    0  0.83961565169E+00 -0.82101548348E+00 -0.11878231807E+00  0.90007690674E+02  0.89999951391E+02 0.  0.
        -12    1    1    2    0    0 -0.83961565169E+00  0.82101548348E+00  0.11878231807E+00  0.11803093263E+01  0.00000000000E+00 0.  1.
         11    1    3    3    0    0  0.49931843819E+01  0.54642829522E+01  0.60728414761E+01  0.95744285630E+01  0.51100000000E-03 0. -1.
        -11    1    3    3    0    0 -0.14272597535E+02  0.11364744933E+02 -0.38299054691E+02  0.42422659726E+02  0.51100000000E-03 0.  1.
         12    1    3    3    0    0  0.10119028804E+02 -0.17650043369E+02  0.32107430897E+02  0.38010602385E+02  0.00000000000E+00 0. -1.
</event>
<event>
 7    1  0.4555057E-015  0.9000782E+02  0.7816164E-02  0.1186339E+00
        -11   -1    0    0    0    0  0.00000000000E+00  0.00000000000E+00  0.45593999997E+02  0.45594000000E+02  0.51100000000E-03 0.  1.
         11   -1    0    0    0    0 -0.00000000000E+00 -0.00000000000E+00 -0.45593999997E+02  0.45594000000E+02  0.51100000000E-03 0. -1.
    9900012    2    1    2    0    0  0.44456740907E+00 -0.30433576663E+00 -0.10500254341E+01  0.90007824652E+02  0.90000087137E+02 0.  0.
        -12    1    1    2    0    0 -0.44456740907E+00  0.30433576663E+00  0.10500254341E+01  0.11801753482E+01  0.00000000000E+00 0.  1.
         11    1    3    3    0    0 -0.35259475126E+01 -0.29480877293E+02  0.44185462459E+01  0.30017961007E+02  0.51100000000E-03 0. -1.
        -11    1    3    3    0    0 -0.63719577848E+00 -0.14907975133E+02  0.19507049246E+01  0.15048554448E+02  0.51100000000E-03 0.  1.
        -12    1    3    3    0    0  0.46077107001E+01  0.44084516659E+02 -0.74192766046E+01  0.44941309197E+02  0.00000000000E+00 0.  1.
</event>
<event>
 7    1  0.4555057E-015  0.9000764E+02  0.7816164E-02  0.1186339E+00
        -11   -1    0    0    0    0  0.00000000000E+00  0.00000000000E+00  0.45593999997E+02  0.45594000000E+02  0.51100000000E-03 0. -1.
         11   -1    0    0    0    0 -0.00000000000E+00 -0.00000000000E+00 -0.45593999997E+02  0.45594000000E+02  0.51100000000E-03 0.  1.
    9900012    2    1    2    0    0 -0.99263952070E+00  0.88501568146E-01  0.63252557646E+00  0.90007638043E+02  0.89999898065E+02 0.  0.
        -12    1    1    2    0    0  0.99263952070E+00 -0.88501568146E-01 -0.63252557646E+00  0.11803619574E+01  0.00000000000E+00 0.  1.
         11    1    3    3    0    0  0.77131756589E+01 -0.14682828859E+00 -0.44823076464E+01  0.89222037295E+01  0.51100000000E-03 0. -1.
        -11    1    3    3    0    0 -0.31862874251E+02  0.74890303247E+01 -0.25876197476E+02  0.41724164782E+02  0.51100000000E-03 0.  1.
         12    1    3    3    0    0  0.23157059071E+02 -0.72537004680E+01  0.30991030698E+02  0.39361269531E+02  0.00000000000E+00 0. -1.
</event>
<event>
 7    1  0.5059829E-015  0.9000774E+02  0.7816164E-02  0.1186339E+00
        -11   -1    0    0    0    0  0.00000000000E+00  0.00000000000E+00  0.45593999997E+02  0.45594000000E+02  0.51100000000E-03 0.  1.
         11   -1    0    0    0    0 -0.00000000000E+00 -0.00000000000E+00 -0.45593999997E+02  0.45594000000E+02  0.51100000000E-03 0. -1.
    9900012    2    1    2    0    0  0.56120223361E+00 -0.92795821222E+00  0.46577945193E+00  0.90007743719E+02  0.90000005136E+02 0.  0.
        -12    1    1    2    0    0 -0.56120223361E+00  0.92795821222E+00 -0.46577945193E+00  0.11802562808E+01  0.00000000000E+00 0.  1.
         11    1    3    3    0    0  0.15299053431E+01  0.95476582471E+01  0.47527595173E+00  0.96811298852E+01  0.51100000000E-03 0. -1.
        -11    1    3    3    0    0 -0.21551794899E+02  0.23346614238E+02  0.18341840674E+02  0.36687428083E+02  0.51100000000E-03 0.  1.
         12    1    3    3    0    0  0.20583091789E+02 -0.33822230698E+02 -0.18351337174E+02  0.43639185751E+02  0.00000000000E+00 0. -1.
</event>
<event>
 7    1  0.4555057E-015  0.9000784E+02  0.7816164E-02  0.1186339E+00
        -11   -1    0    0    0    0  0.00000000000E+00  0.00000000000E+00  0.45593999997E+02  0.45594000000E+02  0.51100000000E-03 0.  1.
         11   -1    0    0    0    0 -0.00000000000E+00 -0.00000000000E+00 -0.45593999997E+02  0.45594000000E+02  0.51100000000E-03 0. -1.
    9900012    2    1    2    0    0  0.66601255514E+00  0.60164623737E-01 -0.97241207052E+00  0.90007839951E+02  0.90000102639E+02 0.  0.
        -12    1    1    2    0    0 -0.66601255514E+00 -0.60164623737E-01  0.97241207052E+00  0.11801600487E+01  0.00000000000E+00 0.  1.
         11    1    3    3    0    0 -0.78623677682E+01  0.35346871658E+01 -0.36369687886E+02  0.37377333204E+02  0.51100000000E-03 0. -1.
        -11    1    3    3    0    0 -0.72224818504E+01  0.18693612528E+00 -0.52194852937E+01  0.89130363057E+01  0.51100000000E-03 0.  1.
        -12    1    3    3    0    0  0.15750862174E+02 -0.36614586674E+01  0.40616761109E+02  0.43717470441E+02  0.00000000000E+00 0.  1.
</event>
<event>
 7    1  0.4555057E-015  0.9000772E+02  0.7816164E-02  0.1186339E+00
        -11   -1    0    0    0    0  0.00000000000E+00  0.00000000000E+00  0.45593999997E+02  0.45594000000E+02  0.51100000000E-03 0.  1.
         11   -1    0    0    0    0 -0.00000000000E+00 -0.00000000000E+00 -0.45593999997E+02  0.45594000000E+02  0.51100000000E-03 0. -1.
    9900012    2    1    2    0    0 -0.71392894158E+00 -0.93871048568E+00 -0.46693354535E-01  0.90007723685E+02  0.89999984838E+02 0.  0.
        -12    1    1    2    0    0  0.71392894158E+00  0.93871048568E+00  0.46693354535E-01  0.11802763146E+01  0.00000000000E+00 0.  1.
         11    1    3    3    0    0 -0.98282446749E+00  0.86896493321E+01  0.28226366446E+01  0.91892996108E+01  0.51100000000E-03 0. -1.
        -11    1    3    3    0    0 -0.38276192380E+02 -0.53653069057E+01  0.10062810849E+02  0.39938873090E+02  0.51100000000E-03 0.  1.
         12    1    3    3    0    0  0.38545087906E+02 -0.42630529120E+01 -0.12932140848E+02  0.40879550984E+02  0.00000000000E+00 0. -1.
</event>
<event>
 7    1  0.4555057E-015  0.9000775E+02  0.7816164E-02  0.1186339E+00
        -11   -1    0    0    0    0  0.00000000000E+00  0.00000000000E+00  0.45593999997E+02  0.45594000000E+02  0.51100000000E-03 0. -1.
         11   -1    0    0    0    0 -0.00000000000E+00 -0.00000000000E+00 -0.45593999997E+02  0.45594000000E+02  0.51100000000E-03 0.  1.
    9900012    2    1    2    0    0 -0.64496849535E-01  0.10812955400E+01 -0.46864808341E+00  0.90007749639E+02  0.90000011134E+02 0.  0.
        -12    1    1    2    0    0  0.64496849535E-01 -0.10812955400E+01  0.46864808341E+00  0.11802503609E+01  0.00000000000E+00 0.  1.
         11    1    3    3    0    0  0.34358907349E+01  0.91326097849E+01 -0.11877781130E+01  0.98295841078E+01  0.51100000000E-03 0. -1.
        -11    1    3    3    0    0 -0.29729619789E+02  0.24380739859E+02  0.11354469319E+01  0.38465049186E+02  0.51100000000E-03 0.  1.
         12    1    3    3    0    0  0.26229232204E+02 -0.32432054104E+02 -0.41631690231E+00  0.41713116345E+02  0.00000000000E+00 0. -1.
</event>
<event>
 7    1  0.8261696E-015  0.9000771E+02  0.7816164E-02  0.1186339E+00
        -11   -1    0    0    0    0  0.00000000000E+00  0.00000000000E+00  0.45593999997E+02  0.45594000000E+02  0.51100000000E-03 0.  1.
         11   -1    0    0    0    0 -0.00000000000E+00 -0.00000000000E+00 -0.45593999997E+02  0.45594000000E+02  0.51100000000E-03 0. -1.
    9900012    2    1    2    0    0 -0.93769742377E+00  0.57675276724E+00 -0.42563726115E+00  0.90007708811E+02  0.89999969767E+02 0.  0.
        -12    1    1    2    0    0  0.93769742377E+00 -0.57675276724E+00  0.42563726115E+00  0.11802911891E+01  0.00000000000E+00 0.  1.
         11    1    3    3    0    0  0.35515631720E+01  0.73750557886E+01  0.57947204929E+01  0.10029149251E+02  0.51100000000E-03 0. -1.
        -11    1    3    3    0    0 -0.38124851359E+02 -0.10051364594E+02  0.12481568185E+02  0.41356060813E+02  0.51100000000E-03 0.  1.
         12    1    3    3    0    0  0.33635590764E+02  0.32530615729E+01 -0.18701925939E+02  0.38622498747E+02  0.00000000000E+00 0. -1.
</event>
<event>
 7    1  0.4555057E-015  0.9000778E+02  0.7816164E-02  0.1186339E+00
        -11   -1    0    0    0    0  0.00000000000E+00  0.00000000000E+00  0.45593999997E+02  0.45594000000E+02  0.51100000000E-03 0. -1.
         11   -1    0    0    0    0 -0.00000000000E+00 -0.00000000000E+00 -0.45593999997E+02  0.45594000000E+02  0.51100000000E-03 0.  1.
    9900012    2    1    2    0    0  0.38115371596E+00  0.10319461441E+01  0.42747382551E+00  0.90007777618E+02  0.90000039483E+02 0.  0.
        -12    1    1    2    0    0 -0.38115371596E+00 -0.10319461441E+01 -0.42747382551E+00  0.11802223820E+01  0.00000000000E+00 0.  1.
         11    1    3    3    0    0  0.13963548754E+02 -0.18479277571E+02  0.28205151522E+02  0.36496506216E+02  0.51100000000E-03 0. -1.
        -11    1    3    3    0    0  0.77620574780E+00 -0.65161124640E+01  0.57350671771E+01  0.87151140436E+01  0.51100000000E-03 0.  1.
        -12    1    3    3    0    0 -0.14358600785E+02  0.26027336180E+02 -0.33512744873E+02  0.44796157358E+02  0.00000000000E+00 0.  1.
</event>
<event>
 7    1  0.4555057E-015  0.9000779E+02  0.7816164E-02  0.1186339E+00
        -11   -1    0    0    0    0  0.00000000000E+00  0.00000000000E+00  0.45593999997E+02  0.45594000000E+02  0.51100000000E-03 0.  1.
         11   -1    0    0    0    0 -0.00000000000E+00 -0.00000000000E+00 -0.45593999997E+02  0.45594000000E+02  0.51100000000E-03 0. -1.
    9900012    2    1    2    0    0  0.11322271248E+01 -0.30698368549E+00  0.12929748022E+00  0.90007790237E+02  0.90000052269E+02 0.  0.
        -12    1    1    2    0    0 -0.11322271248E+01  0.30698368549E+00 -0.12929748022E+00  0.11802097626E+01  0.00000000000E+00 0.  1.
         11    1    3    3    0    0 -0.99867550791E+01 -0.54241174148E+01  0.57460674130E+01  0.12734740583E+02  0.51100000000E-03 0. -1.
        -11    1    3    3    0    0  0.16516006306E+02  0.27595732796E+02 -0.29781041921E+02  0.43831648280E+02  0.51100000000E-03 0.  1.
         12    1    3    3    0    0 -0.53970241022E+01 -0.22478599067E+02  0.24164271988E+02  0.33441401374E+02  0.00000000000E+00 0. -1.
</event>
<event>
 7    1  0.4555057E-015  0.9000787E+02  0.7816164E-02  0.1186339E+00
        -11   -1    0    0    0    0  0.00000000000E+00  0.00000000000E+00  0.45593999997E+02  0.45594000000E+02  0.51100000000E-03 0.  1.
         11   -1    0    0    0    0 -0.00000000000E+00 -0.00000000000E+00 -0.45593999997E+02  0.45594000000E+02  0.51100000000E-03 0. -1.
    9900012    2    1    2    0    0 -0.72077335455E+00 -0.84037057145E+00 -0.40861957662E+00  0.90007869971E+02  0.90000133055E+02 0.  0.
        -12    1    1    2    0    0  0.72077335455E+00  0.84037057145E+00  0.40861957662E+00  0.11801300286E+01  0.00000000000E+00 0.  1.
         11    1    3    3    0    0  0.24822253729E+02  0.31088932290E+02 -0.38735074008E+01  0.39970865026E+02  0.51100000000E-03 0. -1.
        -11    1    3    3    0    0 -0.40593607983E+01  0.16089511250E+01  0.88275030958E+01  0.98484488617E+01  0.51100000000E-03 0.  1.
        -12    1    3    3    0    0 -0.21483666285E+02 -0.33538253987E+02 -0.53626152716E+01  0.40188556083E+02  0.00000000000E+00 0.  1.
</event>
<event>
 7    1  0.4555057E-015  0.9000771E+02  0.7816164E-02  0.1186339E+00
        -11   -1    0    0    0    0  0.00000000000E+00  0.00000000000E+00  0.45593999997E+02  0.45594000000E+02  0.51100000000E-03 0. -1.
         11   -1    0    0    0    0 -0.00000000000E+00 -0.00000000000E+00 -0.45593999997E+02  0.45594000000E+02  0.51100000000E-03 0.  1.
    9900012    2    1    2    0    0 -0.72986483139E+00  0.29029089261E+00 -0.88097418492E+00  0.90007708939E+02  0.89999969897E+02 0.  0.
        -12    1    1    2    0    0  0.72986483139E+00 -0.29029089261E+00  0.88097418492E+00  0.11802910611E+01  0.00000000000E+00 0.  1.
         11    1    3    3    0    0  0.75789580776E+00 -0.87132949508E+01  0.24749180510E+01  0.90896168552E+01  0.51100000000E-03 0. -1.
        -11    1    3    3    0    0 -0.92617903428E+01 -0.31216261231E+02  0.15215247045E+02  0.35940777238E+02  0.51100000000E-03 0.  1.
         12    1    3    3    0    0  0.77740297036E+01  0.40219847074E+02 -0.18571139281E+02  0.44977314845E+02  0.00000000000E+00 0. -1.
</event>
<event>
 7    1  0.4555057E-015  0.9000775E+02  0.7816164E-02  0.1186339E+00
        -11   -1    0    0    0    0  0.00000000000E+00  0.00000000000E+00  0.45593999997E+02  0.45594000000E+02  0.51100000000E-03 0.  1.
         11   -1    0    0    0    0 -0.00000000000E+00 -0.00000000000E+00 -0.45593999997E+02  0.45594000000E+02  0.51100000000E-03 0. -1.
    9900012    2    1    2    0    0 -0.37419183536E+00  0.81459085515E+00 -0.76772431987E+00  0.90007754931E+02  0.90000016496E+02 0.  0.
        -12    1    1    2    0    0  0.37419183536E+00 -0.81459085515E+00  0.76772431987E+00  0.11802450687E+01  0.00000000000E+00 0.  1.
         11    1    3    3    0    0  0.27734917437E+01 -0.13463152409E+01  0.86833025301E+01  0.92143672746E+01  0.51100000000E-03 0. -1.
        -11    1    3    3    0    0  0.55426267971E+01  0.40294272941E+02 -0.91072035660E+01  0.41680814540E+02  0.51100000000E-03 0.  1.
         12    1    3    3    0    0 -0.86903103762E+01 -0.38133366845E+02 -0.34382328398E+00  0.39112573117E+02  0.00000000000E+00 0. -1.
</event>
<event>
 7    1  0.4555057E-015  0.9000842E+02  0.7816164E-02  0.1186338E+00
        -11   -1    0    0    0    0  0.00000000000E+00  0.00000000000E+00  0.45593999997E+02  0.45594000000E+02  0.51100000000E-03 0. -1.
         11   -1    0    0    0    0 -0.00000000000E+00 -0.00000000000E+00 -0.45593999997E+02  0.45594000000E+02  0.51100000000E-03 0.  1.
    9900012    2    1    2    0    0 -0.56126200865E+00 -0.31394381784E+00  0.98886024887E+00  0.90008415177E+02  0.90000685455E+02 0.  0.
        -12    1    1    2    0    0  0.56126200865E+00  0.31394381784E+00 -0.98886024887E+00  0.11795848231E+01  0.00000000000E+00 0.  1.
         11    1    3    3    0    0  0.10804840044E+02 -0.47696306526E+01 -0.45341897760E+00  0.11819455739E+02  0.51100000000E-03 0. -1.
        -11    1    3    3    0    0 -0.21346718128E+02 -0.71777811700E+01 -0.33308569344E+02  0.40207756831E+02  0.51100000000E-03 0.  1.
         12    1    3    3    0    0  0.99806160759E+01  0.11633468005E+02  0.34750848571E+02  0.37981202607E+02  0.00000000000E+00 0. -1.
</event>
<event>
 7    1  0.4555057E-015  0.9000774E+02  0.7816164E-02  0.1186339E+00
        -11   -1    0    0    0    0  0.00000000000E+00  0.00000000000E+00  0.45593999997E+02  0.45594000000E+02  0.51100000000E-03 0.  1.
         11   -1    0    0    0    0 -0.00000000000E+00 -0.00000000000E+00 -0.45593999997E+02  0.45594000000E+02  0.51100000000E-03 0. -1.
    9900012    2    1    2    0    0  0.88714518867E+00 -0.60902786134E+00 -0.48483973732E+00  0.90007741091E+02  0.90000002473E+02 0.  0.
        -12    1    1    2    0    0 -0.88714518867E+00  0.60902786134E+00  0.48483973732E+00  0.11802589091E+01  0.00000000000E+00 0.  1.
         11    1    3    3    0    0 -0.29526447809E+01  0.10058057782E+02  0.79691996200E+00  0.10512740805E+02  0.51100000000E-03 0. -1.
        -11    1    3    3    0    0  0.28588771332E+01  0.34106604511E+02 -0.48522845001E+01  0.34568458382E+02  0.51100000000E-03 0.  1.
         12    1    3    3    0    0  0.98091283642E+00 -0.44773690155E+02  0.35705248008E+01  0.44926541904E+02  0.00000000000E+00 0. -1.
</event>
<event>
 7    1  0.4555057E-015  0.9000772E+02  0.7816164E-02  0.1186339E+00
        -11   -1    0    0    0    0  0.00000000000E+00  0.00000000000E+00  0.45593999997E+02  0.45594000000E+02  0.51100000000E-03 0. -1.
         11   -1    0    0    0    0 -0.00000000000E+00 -0.00000000000E+00 -0.45593999997E+02  0.45594000000E+02  0.51100000000E-03 0.  1.
    9900012    2    1    2    0    0  0.11457624250E+01  0.25823339198E+00  0.11665740496E+00  0.90007718267E+02  0.89999979348E+02 0.  0.
        -12    1    1    2    0    0 -0.11457624250E+01 -0.25823339198E+00 -0.11665740496E+00  0.11802817331E+01  0.00000000000E+00 0.  1.
         11    1    3    3    0    0 -0.29029266609E+02  0.92129508742E+01 -0.25776416700E+02  0.39899880223E+02  0.51100000000E-03 0. -1.
        -11    1    3    3    0    0  0.71241164017E+01  0.86201979273E+01 -0.85581976410E-01  0.11183388187E+02  0.51100000000E-03 0.  1.
        -12    1    3    3    0    0  0.23050912632E+02 -0.17574915410E+02  0.25978656082E+02  0.38924449857E+02  0.00000000000E+00 0.  1.
</event>
<event>
 7    1  0.4555057E-015  0.9000769E+02  0.7816164E-02  0.1186339E+00
        -11   -1    0    0    0    0  0.00000000000E+00  0.00000000000E+00  0.45593999997E+02  0.45594000000E+02  0.51100000000E-03 0.  1.
         11   -1    0    0    0    0 -0.00000000000E+00 -0.00000000000E+00 -0.45593999997E+02  0.45594000000E+02  0.51100000000E-03 0. -1.
    9900012    2    1    2    0    0  0.95303353744E+00  0.22091167317E+00 -0.66033763256E+00  0.90007694667E+02  0.89999955436E+02 0.  0.
        -12    1    1    2    0    0 -0.95303353744E+00 -0.22091167317E+00  0.66033763256E+00  0.11803053333E+01  0.00000000000E+00 0.  1.
         11    1    3    3    0    0 -0.22084733860E+01  0.90253368914E+01  0.34121717609E+00  0.92978755704E+01  0.51100000000E-03 0. -1.
        -11    1    3    3    0    0 -0.58353267172E+01  0.33615135580E+02  0.10769841415E+02  0.35777337272E+02  0.51100000000E-03 0.  1.
         12    1    3    3    0    0  0.89968336406E+01 -0.42419560798E+02 -0.11771396223E+02  0.44932481824E+02  0.00000000000E+00 0. -1.
</event>
<event>
 7    1  0.4555057E-015  0.9000778E+02  0.7816164E-02  0.1186339E+00
        -11   -1    0    0    0    0  0.00000000000E+00  0.00000000000E+00  0.45593999997E+02  0.45594000000E+02  0.51100000000E-03 0.  1.
         11   -1    0    0    0    0 -0.00000000000E+00 -0.00000000000E+00 -0.45593999997E+02  0.45594000000E+02  0.51100000000E-03 0. -1.
    9900012    2    1    2    0    0  0.40837614613E+00  0.45726497552E+00 -0.10084969682E+01  0.90007776093E+02  0.90000037938E+02 0.  0.
        -12    1    1    2    0    0 -0.40837614613E+00 -0.45726497552E+00  0.10084969682E+01  0.11802239065E+01  0.00000000000E+00 0.  1.
         11    1    3    3    0    0  0.33426207262E+01  0.93246914624E+01 -0.42415752900E+00  0.99147815941E+01  0.51100000000E-03 0. -1.
        -11    1    3    3    0    0  0.84293081084E+01  0.34340017470E+02  0.12109590226E+01  0.35380170393E+02  0.51100000000E-03 0.  1.
         12    1    3    3    0    0 -0.11363552688E+02 -0.43207443957E+02 -0.17952984619E+01  0.44712824106E+02  0.00000000000E+00 0. -1.
</event>
<event>
 7    1  0.4555057E-015  0.9000765E+02  0.7816164E-02  0.1186339E+00
        -11   -1    0    0    0    0  0.00000000000E+00  0.00000000000E+00  0.45593999997E+02  0.45594000000E+02  0.51100000000E-03 0.  1.
         11   -1    0    0    0    0 -0.00000000000E+00 -0.00000000000E+00 -0.45593999997E+02  0.45594000000E+02  0.51100000000E-03 0. -1.
    9900012    2    1    2    0    0  0.82264175564E+00 -0.82733099034E-01  0.84239618977E+00  0.90007654472E+02  0.89999914711E+02 0.  0.
        -12    1    1    2    0    0 -0.82264175564E+00  0.82733099034E-01 -0.84239618977E+00  0.11803455275E+01  0.00000000000E+00 0.  1.
         11    1    3    3    0    0  0.24656286380E+02 -0.75992864876E+00 -0.30543828803E+02  0.39261118525E+02  0.51100000000E-03 0. -1.
        -11    1    3    3    0    0  0.31041840239E+01 -0.19411860253E+01 -0.44982874382E+01  0.57998923936E+01  0.51100000000E-03 0.  1.
        -12    1    3    3    0    0 -0.26937828648E+02  0.26183815750E+01  0.35884512431E+02  0.44946643554E+02  0.00000000000E+00 0.  1.
</event>
<event>
 7    1  0.4555057E-015  0.9000748E+02  0.7816164E-02  0.1186340E+00
        -11   -1    0    0    0    0  0.00000000000E+00  0.00000000000E+00  0.45593999997E+02  0.45594000000E+02  0.51100000000E-03 0. -1.
         11   -1    0    0    0    0 -0.00000000000E+00 -0.00000000000E+00 -0.45593999997E+02  0.45594000000E+02  0.51100000000E-03 0.  1.
    9900012    2    1    2    0    0  0.46818189461E+00  0.20387408806E+00  0.10643614336E+01  0.90007481389E+02  0.89999739343E+02 0.  0.
        -12    1    1    2    0    0 -0.46818189461E+00 -0.20387408806E+00 -0.10643614336E+01  0.11805186113E+01  0.00000000000E+00 0.  1.
         11    1    3    3    0    0  0.14368311346E+01  0.32108577938E+01  0.78491785083E+01  0.86013775058E+01  0.51100000000E-03 0. -1.
        -11    1    3    3    0    0  0.99702167906E+01 -0.40561054391E+02 -0.37859501824E+00  0.41770177048E+02  0.51100000000E-03 0.  1.
         12    1    3    3    0    0 -0.10938866031E+02  0.37554070685E+02 -0.64062220564E+01  0.39635926835E+02  0.00000000000E+00 0. -1.
</event>
<event>
 7    1  0.4555057E-015  0.9000764E+02  0.7816164E-02  0.1186339E+00
        -11   -1    0    0    0    0  0.00000000000E+00  0.00000000000E+00  0.45593999997E+02  0.45594000000E+02  0.51100000000E-03 0.  1.
         11   -1    0    0    0    0 -0.00000000000E+00 -0.00000000000E+00 -0.45593999997E+02  0.45594000000E+02  0.51100000000E-03 0. -1.
    9900012    2    1    2    0    0 -0.56767785979E+00  0.10261765772E+01 -0.13397262434E+00  0.90007641925E+02  0.89999901999E+02 0.  0.
        -12    1    1    2    0    0  0.56767785979E+00 -0.10261765772E+01  0.13397262434E+00  0.11803580746E+01  0.00000000000E+00 0.  1.
         11    1    3    3    0    0  0.37472612927E+01 -0.43443382477E+01  0.66823288059E+01  0.88073129011E+01  0.51100000000E-03 0. -1.
        -11    1    3    3    0    0  0.30309123721E+02 -0.21432273870E+02 -0.36398127495E+01  0.37299243707E+02  0.51100000000E-03 0.  1.
         12    1    3    3    0    0 -0.34624062874E+02  0.26802788695E+02 -0.31764886807E+01  0.43901085317E+02  0.00000000000E+00 0. -1.
</event>
<event>
 7    1  0.4555057E-015  0.9000783E+02  0.7816164E-02  0.1186339E+00
        -11   -1    0    0    0    0  0.00000000000E+00  0.00000000000E+00  0.45593999997E+02  0.45594000000E+02  0.51100000000E-03 0.  1.
         11   -1    0    0    0    0 -0.00000000000E+00 -0.00000000000E+00 -0.45593999997E+02  0.45594000000E+02  0.51100000000E-03 0. -1.
    9900012    2    1    2    0    0  0.97417720175E-01 -0.92475094475E+00 -0.72674428831E+00  0.90007825529E+02  0.90000088026E+02 0.  0.
        -12    1    1    2    0    0 -0.97417720175E-01  0.92475094475E+00  0.72674428831E+00  0.11801744713E+01  0.00000000000E+00 0.  1.
         11    1    3    3    0    0  0.27636458496E+02  0.27176163237E+02  0.15080002885E+01  0.38789067424E+02  0.51100000000E-03 0. -1.
        -11    1    3    3    0    0 -0.32083982256E+01  0.60888726081E+01 -0.59411506418E+01  0.90920547744E+01  0.51100000000E-03 0.  1.
        -12    1    3    3    0    0 -0.24330642550E+02 -0.34189786790E+02  0.37064060649E+01  0.42126703331E+02  0.00000000000E+00 0.  1.
</event>
<event>
 7    1  0.4555057E-015  0.9000740E+02  0.7816164E-02  0.1186340E+00
        -11   -1    0    0    0    0  0.00000000000E+00  0.00000000000E+00  0.45593999997E+02  0.45594000000E+02  0.51100000000E-03 0. -1.
         11   -1    0    0    0    0 -0.00000000000E+00 -0.00000000000E+00 -0.45593999997E+02  0.45594000000E+02  0.51100000000E-03 0.  1.
    9900012    2    1    2    0    0  0.95839954242E+00  0.64947835708E+00 -0.23122168712E+00  0.90007400454E+02  0.89999657339E+02 0.  0.
        -12    1    1    2    0    0 -0.95839954242E+00 -0.64947835708E+00  0.23122168712E+00  0.11805995459E+01  0.00000000000E+00 0.  1.
         11    1    3    3    0    0 -0.19504983438E+02 -0.26509039850E+02 -0.63950924728E+01  0.33527164818E+02  0.51100000000E-03 0. -1.
        -11    1    3    3    0    0 -0.12038034440E+02 -0.22796784396E+01  0.47361744649E+00  0.12261138639E+02  0.51100000000E-03 0.  1.
        -12    1    3    3    0    0  0.32501417421E+02  0.29438196647E+02  0.56902533392E+01  0.44219096997E+02  0.00000000000E+00 0.  1.
</event>
<event>
 7    1  0.4555057E-015  0.9000773E+02  0.7816164E-02  0.1186339E+00
        -11   -1    0    0    0    0  0.00000000000E+00  0.00000000000E+00  0.45593999997E+02  0.45594000000E+02  0.51100000000E-03 0.  1.
         11   -1    0    0    0    0 -0.00000000000E+00 -0.00000000000E+00 -0.45593999997E+02  0.45594000000E+02  0.51100000000E-03 0. -1.
    9900012    2    1    2    0    0 -0.66967014359E+00 -0.95896767186E+00  0.15795464192E+00  0.90007734451E+02  0.89999995746E+02 0.  0.
        -12    1    1    2    0    0  0.66967014359E+00  0.95896767186E+00 -0.15795464192E+00  0.11802655488E+01  0.00000000000E+00 0.  1.
         11    1    3    3    0    0 -0.26801649645E+02 -0.69047576658E+01  0.27659070628E+02  0.39128356602E+02  0.51100000000E-03 0. -1.
        -11    1    3    3    0    0 -0.55345931136E+01 -0.56687245883E+01 -0.10366762649E+02  0.13047449079E+02  0.51100000000E-03 0.  1.
        -12    1    3    3    0    0  0.31666572615E+02  0.11614514582E+02 -0.17134353337E+02  0.37831928770E+02  0.00000000000E+00 0.  1.
</event>
<event>
 7    1  0.4555057E-015  0.9000723E+02  0.7816164E-02  0.1186340E+00
        -11   -1    0    0    0    0  0.00000000000E+00  0.00000000000E+00  0.45593999997E+02  0.45594000000E+02  0.51100000000E-03 0. -1.
         11   -1    0    0    0    0 -0.00000000000E+00 -0.00000000000E+00 -0.45593999997E+02  0.45594000000E+02  0.51100000000E-03 0.  1.
    9900012    2    1    2    0    0 -0.97775643761E+00  0.66188891932E+00  0.10722935388E-01  0.90007229246E+02  0.89999483870E+02 0.  0.
        -12    1    1    2    0    0  0.97775643761E+00 -0.66188891932E+00 -0.10722935388E-01  0.11807707543E+01  0.00000000000E+00 0.  1.
         11    1    3    3    0    0 -0.39921001879E+01  0.38356049136E+01  0.86172132525E+01  0.10242318754E+02  0.51100000000E-03 0. -1.
        -11    1    3    3    0    0  0.49929440152E+01  0.16582489905E+02 -0.39449702646E+02  0.43083494525E+02  0.51100000000E-03 0.  1.
         12    1    3    3    0    0 -0.19786002649E+01 -0.19756205899E+02  0.30843212329E+02  0.36681415966E+02  0.00000000000E+00 0. -1.
</event>
<event>
 7    1  0.4745412E-015  0.9000775E+02  0.7816164E-02  0.1186339E+00
        -11   -1    0    0    0    0  0.00000000000E+00  0.00000000000E+00  0.45593999997E+02  0.45594000000E+02  0.51100000000E-03 0. -1.
         11   -1    0    0    0    0 -0.00000000000E+00 -0.00000000000E+00 -0.45593999997E+02  0.45594000000E+02  0.51100000000E-03 0.  1.
    9900012    2    1    2    0    0  0.10411062307E+01 -0.86177489754E-01  0.54924769347E+00  0.90007745039E+02  0.90000006474E+02 0.  0.
        -12    1    1    2    0    0 -0.10411062307E+01  0.86177489754E-01 -0.54924769347E+00  0.11802549607E+01  0.00000000000E+00 0.  1.
         11    1    3    3    0    0 -0.36144583383E+01  0.61738863453E+01 -0.69804881157E+01  0.99954187645E+01  0.51100000000E-03 0. -1.
        -11    1    3    3    0    0  0.60721060435E+01 -0.88798363167E+01 -0.35390280120E+02  0.36989105045E+02  0.51100000000E-03 0.  1.
         12    1    3    3    0    0 -0.14165414745E+01  0.26197724817E+01  0.42920015929E+02  0.43023221230E+02  0.00000000000E+00 0. -1.
</event>
<event>
 7    1  0.4555057E-015  0.9000773E+02  0.7816164E-02  0.1186339E+00
        -11   -1    0    0    0    0  0.00000000000E+00  0.00000000000E+00  0.45593999997E+02  0.45594000000E+02  0.51100000000E-03 0. -1.
         11   -1    0    0    0    0 -0.00000000000E+00 -0.00000000000E+00 -0.45593999997E+02  0.45594000000E+02  0.51100000000E-03 0.  1.
    9900012    2    1    2    0    0 -0.90667399924E+00  0.73571949923E+00 -0.17231286085E+00  0.90007731961E+02  0.89999993223E+02 0.  0.
        -12    1    1    2    0    0  0.90667399924E+00 -0.73571949923E+00  0.17231286085E+00  0.11802680392E+01  0.00000000000E+00 0.  1.
         11    1    3    3    0    0  0.29383629546E+02 -0.21732697561E+02 -0.66279069795E+01  0.37143464833E+02  0.51100000000E-03 0. -1.
        -11    1    3    3    0    0  0.58657702061E+01 -0.41318020454E+01 -0.13582945722E+01  0.73023292626E+01  0.51100000000E-03 0.  1.
        -12    1    3    3    0    0 -0.36156073752E+02  0.26600219105E+02  0.78138886908E+01  0.45561937866E+02  0.00000000000E+00 0.  1.
</event>
<event>
 7    1  0.4555057E-015  0.9000776E+02  0.7816164E-02  0.1186339E+00
        -11   -1    0    0    0    0  0.00000000000E+00  0.00000000000E+00  0.45593999997E+02  0.45594000000E+02  0.51100000000E-03 0. -1.
         11   -1    0    0    0    0 -0.00000000000E+00 -0.00000000000E+00 -0.45593999997E+02  0.45594000000E+02  0.51100000000E-03 0.  1.
    9900012    2    1    2    0    0  0.74941754381E+00 -0.90962411420E+00  0.62584043993E-01  0.90007762970E+02  0.90000024641E+02 0.  0.
        -12    1    1    2    0    0 -0.74941754381E+00  0.90962411420E+00 -0.62584043993E-01  0.11802370299E+01  0.00000000000E+00 0.  1.
         11    1    3    3    0    0 -0.24549500979E+01 -0.75837840293E+01 -0.73828210663E+01  0.10864925556E+02  0.51100000000E-03 0. -1.
        -11    1    3    3    0    0 -0.11172734166E+02  0.22987339057E+02 -0.27778566265E+02  0.37747801123E+02  0.51100000000E-03 0.  1.
         12    1    3    3    0    0  0.14377101807E+02 -0.16313179142E+02  0.35223971375E+02  0.41395036291E+02  0.00000000000E+00 0. -1.
</event>
<event>
 7    1  0.4820061E-015  0.9000811E+02  0.7816164E-02  0.1186338E+00
        -11   -1    0    0    0    0  0.00000000000E+00  0.00000000000E+00  0.45593999997E+02  0.45594000000E+02  0.51100000000E-03 0. -1.
         11   -1    0    0    0    0 -0.00000000000E+00 -0.00000000000E+00 -0.45593999997E+02  0.45594000000E+02  0.51100000000E-03 0.  1.
    9900012    2    1    2    0    0 -0.86981706661E-01 -0.20562409839E+00  0.11585719435E+01  0.90008111855E+02  0.90000378130E+02 0.  0.
        -12    1    1    2    0    0  0.86981706661E-01  0.20562409839E+00 -0.11585719435E+01  0.11798881453E+01  0.00000000000E+00 0.  1.
         11    1    3    3    0    0  0.89564019934E+01 -0.61004879850E+00  0.16250513275E-01  0.89771688491E+01  0.51100000000E-03 0. -1.
        -11    1    3    3    0    0  0.81828858146E+01  0.36770251769E+02  0.11671917550E+02  0.39436590814E+02  0.51100000000E-03 0.  1.
         12    1    3    3    0    0 -0.17226269515E+02 -0.36365827069E+02 -0.10529596120E+02  0.41594352192E+02  0.00000000000E+00 0. -1.
</event>
<event>
 7    1  0.4555057E-015  0.9000772E+02  0.7816164E-02  0.1186339E+00
        -11   -1    0    0    0    0  0.00000000000E+00  0.00000000000E+00  0.45593999997E+02  0.45594000000E+02  0.51100000000E-03 0. -1.
         11   -1    0    0    0    0 -0.00000000000E+00 -0.00000000000E+00 -0.45593999997E+02  0.45594000000E+02  0.51100000000E-03 0.  1.
    9900012    2    1    2    0    0  0.10962003549E+01 -0.27472355120E+00 -0.34047344011E+00  0.90007724434E+02  0.89999985597E+02 0.  0.
        -12    1    1    2    0    0 -0.10962003549E+01  0.27472355120E+00  0.34047344011E+00  0.11802755657E+01  0.00000000000E+00 0.  1.
         11    1    3    3    0    0  0.29458538405E+01 -0.17736866353E+02  0.30155650742E+02  0.35108941237E+02  0.51100000000E-03 0. -1.
        -11    1    3    3    0    0 -0.87752749982E+01  0.62737658631E+01  0.85055764243E+01  0.13737191124E+02  0.51100000000E-03 0.  1.
        -12    1    3    3    0    0  0.69256215126E+01  0.11188376939E+02 -0.39001700606E+02  0.41161592073E+02  0.00000000000E+00 0.  1.
</event>
<event>
 7    1  0.4555057E-015  0.9000788E+02  0.7816164E-02  0.1186339E+00
        -11   -1    0    0    0    0  0.00000000000E+00  0.00000000000E+00  0.45593999997E+02  0.45594000000E+02  0.51100000000E-03 0.  1.
         11   -1    0    0    0    0 -0.00000000000E+00 -0.00000000000E+00 -0.45593999997E+02  0.45594000000E+02  0.51100000000E-03 0. -1.
    9900012    2    1    2    0    0  0.67864745702E+00  0.94173015615E+00  0.21274226077E+00  0.90007882494E+02  0.90000145743E+02 0.  0.
        -12    1    1    2    0    0 -0.67864745702E+00 -0.94173015615E+00 -0.21274226077E+00  0.11801175058E+01  0.00000000000E+00 0.  1.
         11    1    3    3    0    0  0.25039462064E+01 -0.42791742643E+01 -0.81418780799E+01  0.95326417071E+01  0.51100000000E-03 0. -1.
        -11    1    3    3    0    0  0.25089538440E+01  0.39347935605E+02 -0.11091547708E+02  0.40958238690E+02  0.51100000000E-03 0.  1.
         12    1    3    3    0    0 -0.43342525934E+01 -0.34127031184E+02  0.19446168049E+02  0.39517002097E+02  0.00000000000E+00 0. -1.
</event>
<event>
 7    1  0.4555057E-015  0.9000773E+02  0.7816164E-02  0.1186339E+00
        -11   -1    0    0    0    0  0.00000000000E+00  0.00000000000E+00  0.45593999997E+02  0.45594000000E+02  0.51100000000E-03 0. -1.
         11   -1    0    0    0    0 -0.00000000000E+00 -0.00000000000E+00 -0.45593999997E+02  0.45594000000E+02  0.51100000000E-03 0.  1.
    9900012    2    1    2    0    0 -0.77192313616E+00 -0.88992918181E+00 -0.72098876721E-01  0.90007729893E+02  0.89999991128E+02 0.  0.
        -12    1    1    2    0    0  0.77192313616E+00  0.88992918181E+00  0.72098876721E-01  0.11802701067E+01  0.00000000000E+00 0.  1.
         11    1    3    3    0    0  0.67928626269E+01 -0.54595362224E-02 -0.68038725664E+01  0.96143483729E+01  0.51100000000E-03 0. -1.
        -11    1    3    3    0    0  0.26815398507E+02 -0.10272957508E+02 -0.20717219764E+02  0.35409072963E+02  0.51100000000E-03 0.  1.
         12    1    3    3    0    0 -0.34380184270E+02  0.93884878627E+01  0.27448993454E+02  0.44984308558E+02  0.00000000000E+00 0. -1.
</event>
<event>
 7    1  0.4555057E-015  0.9000764E+02  0.7816164E-02  0.1186339E+00
        -11   -1    0    0    0    0  0.00000000000E+00  0.00000000000E+00  0.45593999997E+02  0.45594000000E+02  0.51100000000E-03 0.  1.
         11   -1    0    0    0    0 -0.00000000000E+00 -0.00000000000E+00 -0.45593999997E+02  0.45594000000E+02  0.51100000000E-03 0. -1.
    9900012    2    1    2    0    0 -0.14950283165E+00  0.10357493842E+01  0.54600385463E+00  0.90007640693E+02  0.89999900750E+02 0.  0.
        -12    1    1    2    0    0  0.14950283165E+00 -0.10357493842E+01 -0.54600385463E+00  0.11803593067E+01  0.00000000000E+00 0.  1.
         11    1    3    3    0    0 -0.15490779878E+01  0.28240277164E+02 -0.23631976024E+02  0.36856250324E+02  0.51100000000E-03 0. -1.
        -11    1    3    3    0    0 -0.88403146707E+00  0.82029985177E+01 -0.26541331772E+01  0.86668979168E+01  0.51100000000E-03 0.  1.
        -12    1    3    3    0    0  0.22836066232E+01 -0.35407526297E+02  0.26832113056E+02  0.44484492452E+02  0.00000000000E+00 0.  1.
</event>
<event>
 7    1  0.4555057E-015  0.9000773E+02  0.7816164E-02  0.1186339E+00
        -11   -1    0    0    0    0  0.00000000000E+00  0.00000000000E+00  0.45593999997E+02  0.45594000000E+02  0.51100000000E-03 0. -1.
         11   -1    0    0    0    0 -0.00000000000E+00 -0.00000000000E+00 -0.45593999997E+02  0.45594000000E+02  0.51100000000E-03 0.  1.
    9900012    2    1    2    0    0  0.43024848600E+00 -0.25135845203E-01  0.10987632831E+01  0.90007734639E+02  0.89999995936E+02 0.  0.
        -12    1    1    2    0    0 -0.43024848600E+00  0.25135845203E-01 -0.10987632831E+01  0.11802653611E+01  0.00000000000E+00 0.  1.
         11    1    3    3    0    0  0.10432481687E+01  0.30373339344E+02  0.14683084105E+02  0.33752349085E+02  0.51100000000E-03 0. -1.
        -11    1    3    3    0    0  0.37439623346E+01  0.10058833440E+02  0.46107179883E+01  0.11681442752E+02  0.51100000000E-03 0.  1.
        -12    1    3    3    0    0 -0.43569620173E+01 -0.40457308630E+02 -0.18195038810E+02  0.44573942802E+02  0.00000000000E+00 0.  1.
</event>
<event>
 7    1  0.4555057E-015  0.9000777E+02  0.7816164E-02  0.1186339E+00
        -11   -1    0    0    0    0  0.00000000000E+00  0.00000000000E+00  0.45593999997E+02  0.45594000000E+02  0.51100000000E-03 0.  1.
         11   -1    0    0    0    0 -0.00000000000E+00 -0.00000000000E+00 -0.45593999997E+02  0.45594000000E+02  0.51100000000E-03 0. -1.
    9900012    2    1    2    0    0 -0.56445231216E+00 -0.63616058915E+00 -0.81831286961E+00  0.90007770082E+02  0.90000031847E+02 0.  0.
        -12    1    1    2    0    0  0.56445231216E+00  0.63616058915E+00  0.81831286961E+00  0.11802299185E+01  0.00000000000E+00 0.  1.
         11    1    3    3    0    0 -0.16455991471E+02 -0.63989852179E+01 -0.30904131156E+02  0.35592302397E+02  0.51100000000E-03 0. -1.
        -11    1    3    3    0    0 -0.85077029888E+01  0.78140176673E+00 -0.60936763311E+01  0.10494021648E+02  0.51100000000E-03 0.  1.
        -12    1    3    3    0    0  0.24399242148E+02  0.49814228620E+01  0.36179494618E+02  0.43921446036E+02  0.00000000000E+00 0.  1.
</event>
<event>
 7    1  0.4555057E-015  0.9000775E+02  0.7816164E-02  0.1186339E+00
        -11   -1    0    0    0    0  0.00000000000E+00  0.00000000000E+00  0.45593999997E+02  0.45594000000E+02  0.51100000000E-03 0.  1.
         11   -1    0    0    0    0 -0.00000000000E+00 -0.00000000000E+00 -0.45593999997E+02  0.45594000000E+02  0.51100000000E-03 0. -1.
    9900012    2    1    2    0    0 -0.59190732486E+00 -0.17248336035E+00 -0.10064268277E+01  0.90007745896E+02  0.90000007342E+02 0.  0.
        -12    1    1    2    0    0  0.59190732486E+00  0.17248336035E+00  0.10064268277E+01  0.11802541042E+01  0.00000000000E+00 0.  1.
         11    1    3    3    0    0  0.10411134013E+02  0.32860359915E+01 -0.43594109086E+01  0.11755603247E+02  0.51100000000E-03 0. -1.
        -11    1    3    3    0    0  0.26884626388E+02  0.19892597846E+02 -0.15333188363E+01  0.33479092760E+02  0.51100000000E-03 0.  1.
         12    1    3    3    0    0 -0.37887667726E+02 -0.23351117198E+02  0.48863029172E+01  0.44773049889E+02  0.00000000000E+00 0. -1.
</event>
<event>
 7    1  0.4555057E-015  0.9000781E+02  0.7816164E-02  0.1186339E+00
        -11   -1    0    0    0    0  0.00000000000E+00  0.00000000000E+00  0.45593999997E+02  0.45594000000E+02  0.51100000000E-03 0. -1.
         11   -1    0    0    0    0 -0.00000000000E+00 -0.00000000000E+00 -0.45593999997E+02  0.45594000000E+02  0.51100000000E-03 0.  1.
    9900012    2    1    2    0    0  0.34708562231E+00 -0.80585967770E+00  0.78928447222E+00  0.90007810088E+02  0.90000072382E+02 0.  0.
        -12    1    1    2    0    0 -0.34708562231E+00  0.80585967770E+00 -0.78928447222E+00  0.11801899116E+01  0.00000000000E+00 0.  1.
         11    1    3    3    0    0 -0.94544773221E+01  0.59386494009E+01 -0.30491559678E+01  0.11573765615E+02  0.51100000000E-03 0. -1.
        -11    1    3    3    0    0 -0.25559413638E+01  0.25222028566E+01 -0.35754756040E+02  0.35934620121E+02  0.51100000000E-03 0.  1.
         12    1    3    3    0    0  0.12357504308E+02 -0.92667119353E+01  0.39593196480E+02  0.42499424352E+02  0.00000000000E+00 0. -1.
</event>
<event>
 7    1  0.4555057E-015  0.9000777E+02  0.7816164E-02  0.1186339E+00
        -11   -1    0    0    0    0  0.00000000000E+00  0.00000000000E+00  0.45593999997E+02  0.45594000000E+02  0.51100000000E-03 0. -1.
         11   -1    0    0    0    0 -0.00000000000E+00 -0.00000000000E+00 -0.45593999997E+02  0.45594000000E+02  0.51100000000E-03 0.  1.
    9900012    2    1    2    0    0 -0.95702389515E+00 -0.24436621834E+00 -0.64602010560E+00  0.90007766311E+02  0.90000028026E+02 0.  0.
        -12    1    1    2    0    0  0.95702389515E+00  0.24436621834E+00  0.64602010560E+00  0.11802336893E+01  0.00000000000E+00 0.  1.
         11    1    3    3    0    0 -0.25170031046E+02  0.23368303481E+02  0.15521245718E+02  0.37689748465E+02  0.51100000000E-03 0. -1.
        -11    1    3    3    0    0 -0.25916367794E+01  0.63494409341E+01  0.33456311299E+01  0.76305458056E+01  0.51100000000E-03 0.  1.
        -12    1    3    3    0    0  0.26804643931E+02 -0.29962110633E+02 -0.19512896953E+02  0.44687472040E+02  0.00000000000E+00 0.  1.
</event>
<event>
 7    1  0.4555057E-015  0.9000775E+02  0.7816164E-02  0.1186339E+00
        -11   -1    0    0    0    0  0.00000000000E+00  0.00000000000E+00  0.45593999997E+02  0.45594000000E+02  0.51100000000E-03 0.  1.
         11   -1    0    0    0    0 -0.00000000000E+00 -0.00000000000E+00 -0.45593999997E+02  0.45594000000E+02  0.51100000000E-03 0. -1.
    9900012    2    1    2    0    0 -0.49276248273E+00 -0.92987533939E+00 -0.53433807165E+00  0.90007745711E+02  0.90000007155E+02 0.  0.
        -12    1    1    2    0    0  0.49276248273E+00  0.92987533939E+00  0.53433807165E+00  0.11802542887E+01  0.00000000000E+00 0.  1.
         11    1    3    3    0    0 -0.31402500343E+02 -0.20400038886E+02 -0.12593826770E+02  0.39508012951E+02  0.51100000000E-03 0. -1.
        -11    1    3    3    0    0 -0.20741003818E+01 -0.46199482695E+01  0.79811159894E+01  0.94521969459E+01  0.51100000000E-03 0.  1.
        -12    1    3    3    0    0  0.32983838242E+02  0.24090111816E+02  0.40783727090E+01  0.41047535815E+02  0.00000000000E+00 0.  1.
</event>
<event>
 7    1  0.4555057E-015  0.9000786E+02  0.7816164E-02  0.1186339E+00
        -11   -1    0    0    0    0  0.00000000000E+00  0.00000000000E+00  0.45593999997E+02  0.45594000000E+02  0.51100000000E-03 0. -1.
         11   -1    0    0    0    0 -0.00000000000E+00 -0.00000000000E+00 -0.45593999997E+02  0.45594000000E+02  0.51100000000E-03 0.  1.
    9900012    2    1    2    0    0  0.10797861252E+01 -0.34176517781E+00 -0.33163857365E+00  0.90007862018E+02  0.90000124997E+02 0.  0.
        -12    1    1    2    0    0 -0.10797861252E+01  0.34176517781E+00  0.33163857365E+00  0.11801379820E+01  0.00000000000E+00 0.  1.
         11    1    3    3    0    0  0.39786068524E+01 -0.40871576850E+01 -0.80018769937E+01  0.98267088138E+01  0.51100000000E-03 0. -1.
        -11    1    3    3    0    0 -0.29871103896E+02  0.28062158089E+02 -0.59114868866E+01  0.41409096127E+02  0.51100000000E-03 0.  1.
         12    1    3    3    0    0  0.26972283169E+02 -0.24316765581E+02  0.13581725307E+02  0.38772057077E+02  0.00000000000E+00 0. -1.
</event>
<event>
 7    1  0.4555057E-015  0.9000777E+02  0.7816164E-02  0.1186339E+00
        -11   -1    0    0    0    0  0.00000000000E+00  0.00000000000E+00  0.45593999997E+02  0.45594000000E+02  0.51100000000E-03 0.  1.
         11   -1    0    0    0    0 -0.00000000000E+00 -0.00000000000E+00 -0.45593999997E+02  0.45594000000E+02  0.51100000000E-03 0. -1.
    9900012    2    1    2    0    0  0.44989230999E+00  0.22926461781E+00 -0.10667595606E+01  0.90007770651E+02  0.90000032424E+02 0.  0.
        -12    1    1    2    0    0 -0.44989230999E+00 -0.22926461781E+00  0.10667595606E+01  0.11802293487E+01  0.00000000000E+00 0.  1.
         11    1    3    3    0    0 -0.19925728264E+00  0.35303656612E+00 -0.96065683872E+01  0.96151180295E+01  0.51100000000E-03 0. -1.
        -11    1    3    3    0    0 -0.13691398326E+02  0.24740729104E+02  0.32445442992E+02  0.43037946465E+02  0.51100000000E-03 0.  1.
         12    1    3    3    0    0  0.14340547919E+02 -0.24864501052E+02 -0.23905634166E+02  0.37354706157E+02  0.00000000000E+00 0. -1.
</event>
<event>
 7    1  0.4555057E-015  0.9000760E+02  0.7816164E-02  0.1186339E+00
        -11   -1    0    0    0    0  0.00000000000E+00  0.00000000000E+00  0.45593999997E+02  0.45594000000E+02  0.51100000000E-03 0. -1.
         11   -1    0    0    0    0 -0.00000000000E+00 -0.00000000000E+00 -0.45593999997E+02  0.45594000000E+02  0.51100000000E-03 0.  1.
    9900012    2    1    2    0    0  0.31788118970E+00  0.73209832153E+00  0.86967586878E+00  0.90007596459E+02  0.89999855932E+02 0.  0.
        -12    1    1    2    0    0 -0.31788118970E+00 -0.73209832153E+00 -0.86967586878E+00  0.11804035411E+01  0.00000000000E+00 0.  1.
         11    1    3    3    0    0 -0.22103898002E+01  0.27497864048E+01 -0.11240984531E+02  0.11781633241E+02  0.51100000000E-03 0. -1.
        -11    1    3    3    0    0  0.26200728221E+02  0.19290983266E+02 -0.15531405141E+02  0.36053359630E+02  0.51100000000E-03 0.  1.
         12    1    3    3    0    0 -0.23672457231E+02 -0.21308671350E+02  0.27642065541E+02  0.42172603588E+02  0.00000000000E+00 0. -1.
</event>
<event>
 7    1  0.4555057E-015  0.9000773E+02  0.7816164E-02  0.1186339E+00
        -11   -1    0    0    0    0  0.00000000000E+00  0.00000000000E+00  0.45593999997E+02  0.45594000000E+02  0.51100000000E-03 0.  1.
         11   -1    0    0    0    0 -0.00000000000E+00 -0.00000000000E+00 -0.45593999997E+02  0.45594000000E+02  0.51100000000E-03 0. -1.
    9900012    2    1    2    0    0  0.51746914492E+00 -0.42654166034E+00 -0.97124563818E+00  0.90007732999E+02  0.89999994275E+02 0.  0.
        -12    1    1    2    0    0 -0.51746914492E+00  0.42654166034E+00  0.97124563818E+00  0.11802670010E+01  0.00000000000E+00 0.  1.
         11    1    3    3    0    0  0.25268532496E+01 -0.40693003213E+01 -0.61648226181E+01  0.78069988231E+01  0.51100000000E-03 0. -1.
        -11    1    3    3    0    0  0.21911252412E+02 -0.24642833549E+02 -0.18902775729E+02  0.38009040478E+02  0.51100000000E-03 0.  1.
         12    1    3    3    0    0 -0.23920636516E+02  0.28285592210E+02  0.24096352708E+02  0.44191693698E+02  0.00000000000E+00 0. -1.
</event>
<event>
 7    1  0.4555057E-015  0.9000776E+02  0.7816164E-02  0.1186339E+00
        -11   -1    0    0    0    0  0.00000000000E+00  0.00000000000E+00  0.45593999997E+02  0.45594000000E+02  0.51100000000E-03 0. -1.
         11   -1    0    0    0    0 -0.00000000000E+00 -0.00000000000E+00 -0.45593999997E+02  0.45594000000E+02  0.51100000000E-03 0.  1.
    9900012    2    1    2    0    0 -0.34785087466E+00  0.15140157761E+00  0.11176022643E+01  0.90007763799E+02  0.90000025481E+02 0.  0.
        -12    1    1    2    0    0  0.34785087466E+00 -0.15140157761E+00 -0.11176022643E+01  0.11802362009E+01  0.00000000000E+00 0.  1.
         11    1    3    3    0    0 -0.30590002311E+02  0.11728789230E+02  0.15377708678E+02  0.36190974878E+02  0.51100000000E-03 0. -1.
        -11    1    3    3    0    0 -0.57692132266E+01  0.28330685523E+01  0.70669201862E+01  0.95525629993E+01  0.51100000000E-03 0.  1.
        -12    1    3    3    0    0  0.36011364662E+02 -0.14410456205E+02 -0.21327026600E+02  0.44264225922E+02  0.00000000000E+00 0.  1.
</event>
<event>
 7    1  0.4555057E-015  0.9000773E+02  0.7816164E-02  0.1186339E+00
        -11   -1    0    0    0    0  0.00000000000E+00  0.00000000000E+00  0.45593999997E+02  0.45594000000E+02  0.51100000000E-03 0.  1.
         11   -1    0    0    0    0 -0.00000000000E+00 -0.00000000000E+00 -0.45593999997E+02  0.45594000000E+02  0.51100000000E-03 0. -1.
    9900012    2    1    2    0    0 -0.26175951651E+00  0.10380266063E+01  0.49702169089E+00  0.90007725523E+02  0.89999986700E+02 0.  0.
        -12    1    1    2    0    0  0.26175951651E+00 -0.10380266063E+01 -0.49702169089E+00  0.11802744770E+01  0.00000000000E+00 0.  1.
         11    1    3    3    0    0  0.43862875593E+00 -0.91091128311E+01  0.88196256352E+00  0.91622153423E+01  0.51100000000E-03 0. -1.
        -11    1    3    3    0    0  0.11500646147E+02  0.28112091255E+02  0.30529934931E+02  0.43065432353E+02  0.51100000000E-03 0.  1.
         12    1    3    3    0    0 -0.12201034420E+02 -0.17964951818E+02 -0.30914875804E+02  0.37780077828E+02  0.00000000000E+00 0. -1.
</event>
<event>
 7    1  0.4555057E-015  0.9000769E+02  0.7816164E-02  0.1186339E+00
        -11   -1    0    0    0    0  0.00000000000E+00  0.00000000000E+00  0.45593999997E+02  0.45594000000E+02  0.51100000000E-03 0. -1.
         11   -1    0    0    0    0 -0.00000000000E+00 -0.00000000000E+00 -0.45593999997E+02  0.45594000000E+02  0.51100000000E-03 0.  1.
    9900012    2    1    2    0    0  0.37096799768E+00  0.22171595831E+00  0.10983377509E+01  0.90007694516E+02  0.89999955283E+02 0.  0.
        -12    1    1    2    0    0 -0.37096799768E+00 -0.22171595831E+00 -0.10983377509E+01  0.11803054844E+01  0.00000000000E+00 0.  1.
         11    1    3    3    0    0  0.60710148247E+01 -0.50931166805E+01 -0.36480280628E+01  0.87238275735E+01  0.51100000000E-03 0. -1.
        -11    1    3    3    0    0 -0.17027230571E+00 -0.34151218020E+02  0.18852214796E+02  0.39009494843E+02  0.51100000000E-03 0.  1.
         12    1    3    3    0    0 -0.55297745213E+01  0.39466050659E+02 -0.14105848983E+02  0.42274372099E+02  0.00000000000E+00 0. -1.
</event>
<event>
 7    1  0.4555057E-015  0.9000771E+02  0.7816164E-02  0.1186339E+00
        -11   -1    0    0    0    0  0.00000000000E+00  0.00000000000E+00  0.45593999997E+02  0.45594000000E+02  0.51100000000E-03 0.  1.
         11   -1    0    0    0    0 -0.00000000000E+00 -0.00000000000E+00 -0.45593999997E+02  0.45594000000E+02  0.51100000000E-03 0. -1.
    9900012    2    1    2    0    0 -0.11191091199E+00 -0.11482232421E+01 -0.24930492536E+00  0.90007706133E+02  0.89999967054E+02 0.  0.
        -12    1    1    2    0    0  0.11191091199E+00  0.11482232421E+01  0.24930492536E+00  0.11802938667E+01  0.00000000000E+00 0.  1.
         11    1    3    3    0    0  0.57166513976E+01  0.18126074868E+02  0.14943121186E+02  0.24177087590E+02  0.51100000000E-03 0. -1.
        -11    1    3    3    0    0  0.41661596559E+01  0.21563936975E+02 -0.64184496470E+01  0.22881362728E+02  0.51100000000E-03 0.  1.
         12    1    3    3    0    0 -0.99947219656E+01 -0.40838235085E+02 -0.87739764645E+01  0.42949255815E+02  0.00000000000E+00 0. -1.
</event>
<event>
 7    1  0.4555057E-015  0.9000775E+02  0.7816164E-02  0.1186339E+00
        -11   -1    0    0    0    0  0.00000000000E+00  0.00000000000E+00  0.45593999997E+02  0.45594000000E+02  0.51100000000E-03 0.  1.
         11   -1    0    0    0    0 -0.00000000000E+00 -0.00000000000E+00 -0.45593999997E+02  0.45594000000E+02  0.51100000000E-03 0. -1.
    9900012    2    1    2    0    0 -0.61578185755E+00 -0.26305219312E+00 -0.97191102905E+00  0.90007747993E+02  0.90000009466E+02 0.  0.
        -12    1    1    2    0    0  0.61578185755E+00  0.26305219312E+00  0.97191102905E+00  0.11802520073E+01  0.00000000000E+00 0.  1.
         11    1    3    3    0    0  0.20684095002E+01 -0.82073686864E+01 -0.35548368353E+02  0.36542108744E+02  0.51100000000E-03 0. -1.
        -11    1    3    3    0    0 -0.22092052584E+01  0.87071183772E+00 -0.90042227515E+01  0.93120757406E+01  0.51100000000E-03 0.  1.
        -12    1    3    3    0    0 -0.47498609935E+00  0.70736046556E+01  0.43580680076E+02  0.44153563508E+02  0.00000000000E+00 0.  1.
</event>
<event>
 7    1  0.4555057E-015  0.9000802E+02  0.7816164E-02  0.1186338E+00
        -11   -1    0    0    0    0  0.00000000000E+00  0.00000000000E+00  0.45593999997E+02  0.45594000000E+02  0.51100000000E-03 0.  1.
         11   -1    0    0    0    0 -0.00000000000E+00 -0.00000000000E+00 -0.45593999997E+02  0.45594000000E+02  0.51100000000E-03 0. -1.
    9900012    2    1    2    0    0  0.10230506822E+00 -0.98148257195E+00 -0.64696965636E+00  0.90008023686E+02  0.90000288798E+02 0.  0.
        -12    1    1    2    0    0 -0.10230506822E+00  0.98148257195E+00  0.64696965636E+00  0.11799763143E+01  0.00000000000E+00 0.  1.
         11    1    3    3    0    0 -0.21576034257E+01 -0.39105425816E+02 -0.63669175951E+01  0.39679052669E+02  0.51100000000E-03 0. -1.
        -11    1    3    3    0    0  0.44621599634E+00 -0.22137366263E+01  0.95086926721E+01  0.97731763086E+01  0.51100000000E-03 0.  1.
        -12    1    3    3    0    0  0.18136924975E+01  0.40337679870E+02 -0.37887447333E+01  0.40555794708E+02  0.00000000000E+00 0.  1.
</event>
<event>
 7    1  0.4555057E-015  0.9000895E+02  0.7816164E-02  0.1186337E+00
        -11   -1    0    0    0    0  0.00000000000E+00  0.00000000000E+00  0.45593999997E+02  0.45594000000E+02  0.51100000000E-03 0. -1.
         11   -1    0    0    0    0 -0.00000000000E+00 -0.00000000000E+00 -0.45593999997E+02  0.45594000000E+02  0.51100000000E-03 0.  1.
    9900012    2    1    2    0    0  0.92582720805E+00 -0.60213308412E+00  0.41284511519E+00  0.90008948958E+02  0.90001226276E+02 0.  0.
        -12    1    1    2    0    0 -0.92582720805E+00  0.60213308412E+00 -0.41284511519E+00  0.11790510419E+01  0.00000000000E+00 0.  1.
         11    1    3    3    0    0  0.41752050666E+01 -0.20555025660E+01 -0.88901338206E+01  0.10034535752E+02  0.51100000000E-03 0. -1.
        -11    1    3    3    0    0 -0.19990976093E+02  0.13973460807E+02 -0.28048815074E+02  0.37170320948E+02  0.51100000000E-03 0.  1.
         12    1    3    3    0    0  0.16741598235E+02 -0.12520091325E+02  0.37351794010E+02  0.42804092258E+02  0.00000000000E+00 0. -1.
</event>
<event>
 7    1  0.4555057E-015  0.9000781E+02  0.7816164E-02  0.1186339E+00
        -11   -1    0    0    0    0  0.00000000000E+00  0.00000000000E+00  0.45593999997E+02  0.45594000000E+02  0.51100000000E-03 0.  1.
         11   -1    0    0    0    0 -0.00000000000E+00 -0.00000000000E+00 -0.45593999997E+02  0.45594000000E+02  0.51100000000E-03 0. -1.
    9900012    2    1    2    0    0 -0.11019734266E+01 -0.15740038701E+00 -0.39208933487E+00  0.90007807490E+02  0.90000069749E+02 0.  0.
        -12    1    1    2    0    0  0.11019734266E+01  0.15740038701E+00  0.39208933487E+00  0.11801925103E+01  0.00000000000E+00 0.  1.
         11    1    3    3    0    0 -0.32657817456E+02  0.10028409743E+02 -0.19931403035E+02  0.39552027384E+02  0.51100000000E-03 0. -1.
        -11    1    3    3    0    0 -0.62653362427E+01 -0.39128528747E+01  0.68456063829E+01  0.10071106338E+02  0.51100000000E-03 0.  1.
        -12    1    3    3    0    0  0.37821180272E+02 -0.62729572548E+01  0.12693707317E+02  0.40384673768E+02  0.00000000000E+00 0.  1.
</event>
<event>
 7    1  0.4555057E-015  0.9000848E+02  0.7816164E-02  0.1186338E+00
        -11   -1    0    0    0    0  0.00000000000E+00  0.00000000000E+00  0.45593999997E+02  0.45594000000E+02  0.51100000000E-03 0. -1.
         11   -1    0    0    0    0 -0.00000000000E+00 -0.00000000000E+00 -0.45593999997E+02  0.45594000000E+02  0.51100000000E-03 0.  1.
    9900012    2    1    2    0    0  0.43856480378E+00 -0.10431534828E+01 -0.33279447405E+00  0.90008482964E+02  0.90000754136E+02 0.  0.
        -12    1    1    2    0    0 -0.43856480378E+00  0.10431534828E+01  0.33279447405E+00  0.11795170358E+01  0.00000000000E+00 0.  1.
         11    1    3    3    0    0 -0.82337715745E+01  0.34303035667E+02  0.88279016157E+01  0.36365163240E+02  0.51100000000E-03 0. -1.
        -11    1    3    3    0    0 -0.10618298623E+01  0.48021734927E+00  0.11227696297E+02  0.11288013809E+02  0.51100000000E-03 0.  1.
        -12    1    3    3    0    0  0.97341662405E+01 -0.35826406499E+02 -0.20388392387E+02  0.42355305915E+02  0.00000000000E+00 0.  1.
</event>
<event>
 7    1  0.4555057E-015  0.9000766E+02  0.7816164E-02  0.1186339E+00
        -11   -1    0    0    0    0  0.00000000000E+00  0.00000000000E+00  0.45593999997E+02  0.45594000000E+02  0.51100000000E-03 0.  1.
         11   -1    0    0    0    0 -0.00000000000E+00 -0.00000000000E+00 -0.45593999997E+02  0.45594000000E+02  0.51100000000E-03 0. -1.
    9900012    2    1    2    0    0 -0.19015440943E+00 -0.20001169083E+00 -0.11476228029E+01  0.90007660441E+02  0.89999920759E+02 0.  0.
        -12    1    1    2    0    0  0.19015440943E+00  0.20001169083E+00  0.11476228029E+01  0.11803395587E+01  0.00000000000E+00 0.  1.
         11    1    3    3    0    0 -0.37815979196E+02 -0.16760673554E+01 -0.10010044872E+02  0.39154290735E+02  0.51100000000E-03 0. -1.
        -11    1    3    3    0    0 -0.35843949740E+01 -0.26467581805E+00  0.89086765018E+01  0.96063758980E+01  0.51100000000E-03 0.  1.
        -12    1    3    3    0    0  0.41210219760E+02  0.17407314827E+01 -0.46254432399E-01  0.41246993809E+02  0.00000000000E+00 0.  1.
</event>
<event>
 7    1  0.4555057E-015  0.9000771E+02  0.7816164E-02  0.1186339E+00
        -11   -1    0    0    0    0  0.00000000000E+00  0.00000000000E+00  0.45593999997E+02  0.45594000000E+02  0.51100000000E-03 0.  1.
         11   -1    0    0    0    0 -0.00000000000E+00 -0.00000000000E+00 -0.45593999997E+02  0.45594000000E+02  0.51100000000E-03 0. -1.
    9900012    2    1    2    0    0  0.89860912598E-01 -0.55552272106E+00 -0.10374938475E+01  0.90007714458E+02  0.89999975489E+02 0.  0.
        -12    1    1    2    0    0 -0.89860912598E-01  0.55552272106E+00  0.10374938475E+01  0.11802855421E+01  0.00000000000E+00 0.  1.
         11    1    3    3    0    0 -0.91122959614E+01  0.36366712674E+01  0.46071983926E+01  0.10839077123E+02  0.51100000000E-03 0. -1.
        -11    1    3    3    0    0 -0.11834524942E+02 -0.20332575841E+02  0.27845159868E+02  0.36453018383E+02  0.51100000000E-03 0.  1.
         12    1    3    3    0    0  0.21036681816E+02  0.16140381853E+02 -0.33489852108E+02  0.42715618951E+02  0.00000000000E+00 0. -1.
</event>
<event>
 7    1  0.4555057E-015  0.9000787E+02  0.7816164E-02  0.1186339E+00
        -11   -1    0    0    0    0  0.00000000000E+00  0.00000000000E+00  0.45593999997E+02  0.45594000000E+02  0.51100000000E-03 0.  1.
         11   -1    0    0    0    0 -0.00000000000E+00 -0.00000000000E+00 -0.45593999997E+02  0.45594000000E+02  0.51100000000E-03 0. -1.
    9900012    2    1    2    0    0 -0.10159400006E+01 -0.34540890363E+00 -0.49118494495E+00  0.90007871174E+02  0.90000134274E+02 0.  0.
        -12    1    1    2    0    0  0.10159400006E+01  0.34540890363E+00  0.49118494495E+00  0.11801288259E+01  0.00000000000E+00 0.  1.
         11    1    3    3    0    0  0.11030345612E+02  0.11418151067E+02 -0.20386469967E+02  0.25838940692E+02  0.51100000000E-03 0. -1.
        -11    1    3    3    0    0  0.25071092264E+01  0.21936096475E+02  0.15975378948E+02  0.27252351422E+02  0.51100000000E-03 0.  1.
         12    1    3    3    0    0 -0.14553394838E+02 -0.33699656446E+02  0.39199060740E+01  0.36916579060E+02  0.00000000000E+00 0. -1.
</event>
<event>
 7    1  0.4555057E-015  0.9000753E+02  0.7816164E-02  0.1186339E+00
        -11   -1    0    0    0    0  0.00000000000E+00  0.00000000000E+00  0.45593999997E+02  0.45594000000E+02  0.51100000000E-03 0.  1.
         11   -1    0    0    0    0 -0.00000000000E+00 -0.00000000000E+00 -0.45593999997E+02  0.45594000000E+02  0.51100000000E-03 0. -1.
    9900012    2    1    2    0    0 -0.68961670364E+00 -0.55587327396E+00 -0.78034693319E+00  0.90007530758E+02  0.89999789364E+02 0.  0.
        -12    1    1    2    0    0  0.68961670364E+00  0.55587327396E+00  0.78034693319E+00  0.11804692418E+01  0.00000000000E+00 0.  1.
         11    1    3    3    0    0  0.38046825656E+02 -0.87006117086E+00  0.69217095717E+01  0.38681106662E+02  0.51100000000E-03 0. -1.
        -11    1    3    3    0    0 -0.17776876226E+01 -0.10145703108E+02  0.41860588670E+01  0.11118388100E+02  0.51100000000E-03 0.  1.
        -12    1    3    3    0    0 -0.36958754737E+02  0.10459891005E+02 -0.11888115372E+02  0.40208035996E+02  0.00000000000E+00 0.  1.
</event>
<event>
 7    1  0.4555057E-015  0.9000779E+02  0.7816164E-02  0.1186339E+00
        -11   -1    0    0    0    0  0.00000000000E+00  0.00000000000E+00  0.45593999997E+02  0.45594000000E+02  0.51100000000E-03 0. -1.
         11   -1    0    0    0    0 -0.00000000000E+00 -0.00000000000E+00 -0.45593999997E+02  0.45594000000E+02  0.51100000000E-03 0.  1.
    9900012    2    1    2    0    0  0.11043202076E+01 -0.41631456410E+00 -0.74398143354E-02  0.90007789727E+02  0.90000051752E+02 0.  0.
        -12    1    1    2    0    0 -0.11043202076E+01  0.41631456410E+00  0.74398143354E-02  0.11802102728E+01  0.00000000000E+00 0.  1.
         11    1    3    3    0    0  0.28663423275E+01  0.33801058515E+01  0.34755944441E+02  0.35037361604E+02  0.51100000000E-03 0. -1.
        -11    1    3    3    0    0 -0.23439814731E+01 -0.56118637802E-01  0.98863244955E+01  0.10160551695E+02  0.51100000000E-03 0.  1.
        -12    1    3    3    0    0  0.58195935318E+00 -0.37403017778E+01 -0.44649708751E+02  0.44809876429E+02  0.00000000000E+00 0.  1.
</event>
<event>
 7    1  0.4555057E-015  0.9000772E+02  0.7816164E-02  0.1186339E+00
        -11   -1    0    0    0    0  0.00000000000E+00  0.00000000000E+00  0.45593999997E+02  0.45594000000E+02  0.51100000000E-03 0. -1.
         11   -1    0    0    0    0 -0.00000000000E+00 -0.00000000000E+00 -0.45593999997E+02  0.45594000000E+02  0.51100000000E-03 0.  1.
    9900012    2    1    2    0    0  0.74357339962E+00 -0.35805391271E+00 -0.84378122037E+00  0.90007715817E+02  0.89999976866E+02 0.  0.
        -12    1    1    2    0    0 -0.74357339962E+00  0.35805391271E+00  0.84378122037E+00  0.11802841831E+01  0.00000000000E+00 0.  1.
         11    1    3    3    0    0  0.15200923619E+02  0.92742429862E+01 -0.81940423251E+01  0.19601581358E+02  0.51100000000E-03 0. -1.
        -11    1    3    3    0    0  0.96930686821E+01  0.28662387452E+01 -0.25694460572E+02  0.27611160957E+02  0.51100000000E-03 0.  1.
         12    1    3    3    0    0 -0.24150418902E+02 -0.12498535644E+02  0.33044721677E+02  0.42794973502E+02  0.00000000000E+00 0. -1.
</event>
<event>
 7    1  0.4555057E-015  0.9000774E+02  0.7816164E-02  0.1186339E+00
        -11   -1    0    0    0    0  0.00000000000E+00  0.00000000000E+00  0.45593999997E+02  0.45594000000E+02  0.51100000000E-03 0. -1.
         11   -1    0    0    0    0 -0.00000000000E+00 -0.00000000000E+00 -0.45593999997E+02  0.45594000000E+02  0.51100000000E-03 0.  1.
    9900012    2    1    2    0    0 -0.11731226458E+01 -0.90897947206E-01  0.92319450261E-01  0.90007744917E+02  0.90000006350E+02 0.  0.
        -12    1    1    2    0    0  0.11731226458E+01  0.90897947206E-01 -0.92319450261E-01  0.11802550825E+01  0.00000000000E+00 0.  1.
         11    1    3    3    0    0 -0.29167946656E+01  0.32683787083E+02 -0.13708354825E+02  0.35562010931E+02  0.51100000000E-03 0. -1.
        -11    1    3    3    0    0 -0.28744300410E+01  0.82246854409E+01 -0.39060471462E+01  0.95480366166E+01  0.51100000000E-03 0.  1.
        -12    1    3    3    0    0  0.46181020608E+01 -0.40999370471E+02  0.17706721421E+02  0.44897697370E+02  0.00000000000E+00 0.  1.
</event>
<event>
 7    1  0.4555057E-015  0.9000775E+02  0.7816164E-02  0.1186339E+00
        -11   -1    0    0    0    0  0.00000000000E+00  0.00000000000E+00  0.45593999997E+02  0.45594000000E+02  0.51100000000E-03 0.  1.
         11   -1    0    0    0    0 -0.00000000000E+00 -0.00000000000E+00 -0.45593999997E+02  0.45594000000E+02  0.51100000000E-03 0. -1.
    9900012    2    1    2    0    0 -0.21843688973E+00 -0.85252864057E+00 -0.78643190540E+00  0.90007747951E+02  0.90000009424E+02 0.  0.
        -12    1    1    2    0    0  0.21843688973E+00  0.85252864057E+00  0.78643190540E+00  0.11802520492E+01  0.00000000000E+00 0.  1.
         11    1    3    3    0    0 -0.68971688028E+01 -0.45825239546E+01  0.58261726574E+00  0.83011990958E+01  0.51100000000E-03 0. -1.
        -11    1    3    3    0    0  0.13803618427E+01  0.42037494036E+02 -0.69606201809E+01  0.42632224164E+02  0.51100000000E-03 0.  1.
         12    1    3    3    0    0  0.52983700703E+01 -0.38307498722E+02  0.55915710097E+01  0.39074324691E+02  0.00000000000E+00 0. -1.
</event>
<event>
 7    1  0.4555057E-015  0.9000768E+02  0.7816164E-02  0.1186339E+00
        -11   -1    0    0    0    0  0.00000000000E+00  0.00000000000E+00  0.45593999997E+02  0.45594000000E+02  0.51100000000E-03 0.  1.
         11   -1    0    0    0    0 -0.00000000000E+00 -0.00000000000E+00 -0.45593999997E+02  0.45594000000E+02  0.51100000000E-03 0. -1.
    9900012    2    1    2    0    0  0.92053638571E+00 -0.37966603784E+00 -0.63374054780E+00  0.90007677748E+02  0.89999938294E+02 0.  0.
        -12    1    1    2    0    0 -0.92053638571E+00  0.37966603784E+00  0.63374054780E+00  0.11803222525E+01  0.00000000000E+00 0.  1.
         11    1    3    3    0    0 -0.13759867818E+01 -0.88031221651E+01 -0.37593899884E+01  0.96706417999E+01  0.51100000000E-03 0. -1.
        -11    1    3    3    0    0  0.55821971226E+01 -0.31505244353E+02  0.19035167561E+02  0.37230081262E+02  0.51100000000E-03 0.  1.
         12    1    3    3    0    0 -0.32856739552E+01  0.39928700481E+02 -0.15909518120E+02  0.43106954685E+02  0.00000000000E+00 0. -1.
</event>
<event>
 7    1  0.4555057E-015  0.9000776E+02  0.7816164E-02  0.1186339E+00
        -11   -1    0    0    0    0  0.00000000000E+00  0.00000000000E+00  0.45593999997E+02  0.45594000000E+02  0.51100000000E-03 0.  1.
         11   -1    0    0    0    0 -0.00000000000E+00 -0.00000000000E+00 -0.45593999997E+02  0.45594000000E+02  0.51100000000E-03 0. -1.
    9900012    2    1    2    0    0  0.53845023963E+00 -0.11704530438E+00 -0.10437181202E+01  0.90007756051E+02  0.90000017631E+02 0.  0.
        -12    1    1    2    0    0 -0.53845023963E+00  0.11704530438E+00  0.10437181202E+01  0.11802439486E+01  0.00000000000E+00 0.  1.
         11    1    3    3    0    0  0.57486711790E+00  0.44158208749E+01 -0.48490460003E+01  0.65835547827E+01  0.51100000000E-03 0. -1.
        -11    1    3    3    0    0 -0.37154474114E+02  0.30214023059E+01 -0.16132719851E+02  0.40618326758E+02  0.51100000000E-03 0.  1.
         12    1    3    3    0    0  0.37118057236E+02 -0.75542684852E+01  0.19938047731E+02  0.42805874511E+02  0.00000000000E+00 0. -1.
</event>
<event>
 7    1  0.4555057E-015  0.9000787E+02  0.7816164E-02  0.1186339E+00
        -11   -1    0    0    0    0  0.00000000000E+00  0.00000000000E+00  0.45593999997E+02  0.45594000000E+02  0.51100000000E-03 0. -1.
         11   -1    0    0    0    0 -0.00000000000E+00 -0.00000000000E+00 -0.45593999997E+02  0.45594000000E+02  0.51100000000E-03 0.  1.
    9900012    2    1    2    0    0 -0.21159200786E+00  0.10702964218E+01 -0.44988400561E+00  0.90007872368E+02  0.90000135484E+02 0.  0.
        -12    1    1    2    0    0  0.21159200786E+00 -0.10702964218E+01  0.44988400561E+00  0.11801276316E+01  0.00000000000E+00 0.  1.
         11    1    3    3    0    0 -0.40147310705E+01 -0.60049165078E+01  0.65422770366E+01  0.97456901715E+01  0.51100000000E-03 0. -1.
        -11    1    3    3    0    0 -0.64074062779E+01 -0.15147557955E+02 -0.37625924692E+02  0.41063530979E+02  0.51100000000E-03 0.  1.
         12    1    3    3    0    0  0.10210545341E+02  0.22222770885E+02  0.30633763650E+02  0.39198651218E+02  0.00000000000E+00 0. -1.
</event>
<event>
 7    1  0.4555057E-015  0.9000780E+02  0.7816164E-02  0.1186339E+00
        -11   -1    0    0    0    0  0.00000000000E+00  0.00000000000E+00  0.45593999997E+02  0.45594000000E+02  0.51100000000E-03 0.  1.
         11   -1    0    0    0    0 -0.00000000000E+00 -0.00000000000E+00 -0.45593999997E+02  0.45594000000E+02  0.51100000000E-03 0. -1.
    9900012    2    1    2    0    0 -0.78690270087E+00  0.40725255916E+00  0.77962317291E+00  0.90007795442E+02  0.90000057542E+02 0.  0.
        -12    1    1    2    0    0  0.78690270087E+00 -0.40725255916E+00 -0.77962317291E+00  0.11802045582E+01  0.00000000000E+00 0.  1.
         11    1    3    3    0    0  0.27494877898E+02 -0.26398268738E+02 -0.72090609034E+01  0.38791847885E+02  0.51100000000E-03 0. -1.
        -11    1    3    3    0    0 -0.40835583006E+01 -0.55686383758E+01 -0.52611294457E+01  0.86812824548E+01  0.51100000000E-03 0.  1.
        -12    1    3    3    0    0 -0.24198222299E+02  0.32374159673E+02  0.13249813522E+02  0.42534665101E+02  0.00000000000E+00 0.  1.
</event>
<event>
 7    1  0.4555057E-015  0.9000773E+02  0.7816164E-02  0.1186339E+00
        -11   -1    0    0    0    0  0.00000000000E+00  0.00000000000E+00  0.45593999997E+02  0.45594000000E+02  0.51100000000E-03 0.  1.
         11   -1    0    0    0    0 -0.00000000000E+00 -0.00000000000E+00 -0.45593999997E+02  0.45594000000E+02  0.51100000000E-03 0. -1.
    9900012    2    1    2    0    0  0.30531348163E+00  0.11069319839E+01 -0.27297889291E+00  0.90007732143E+02  0.89999993407E+02 0.  0.
        -12    1    1    2    0    0 -0.30531348163E+00 -0.11069319839E+01  0.27297889291E+00  0.11802678573E+01  0.00000000000E+00 0.  1.
         11    1    3    3    0    0 -0.20012897224E+02 -0.18943318623E+02  0.31082310810E+02  0.41538842320E+02  0.51100000000E-03 0. -1.
        -11    1    3    3    0    0  0.39095526768E+01  0.61199743935E+01  0.30570950155E+01  0.78793730020E+01  0.51100000000E-03 0.  1.
        -12    1    3    3    0    0  0.16408658029E+02  0.13930276213E+02 -0.34412384719E+02  0.40589516820E+02  0.00000000000E+00 0.  1.
</event>
<event>
 7    1  0.4803950E-015  0.9000774E+02  0.7816164E-02  0.1186339E+00
        -11   -1    0    0    0    0  0.00000000000E+00  0.00000000000E+00  0.45593999997E+02  0.45594000000E+02  0.51100000000E-03 0. -1.
         11   -1    0    0    0    0 -0.00000000000E+00 -0.00000000000E+00 -0.45593999997E+02  0.45594000000E+02  0.51100000000E-03 0.  1.
    9900012    2    1    2    0    0 -0.99961031592E-01  0.50295959292E+00  0.10630410274E+01  0.90007738679E+02  0.90000000030E+02 0.  0.
        -12    1    1    2    0    0  0.99961031592E-01 -0.50295959292E+00 -0.10630410274E+01  0.11802613210E+01  0.00000000000E+00 0.  1.
         11    1    3    3    0    0 -0.71826412526E+01 -0.53225509171E+01 -0.17503333726E+00  0.89415054973E+01  0.51100000000E-03 0. -1.
        -11    1    3    3    0    0 -0.32993403164E+02  0.19200709795E+02 -0.44649303826E+01  0.38433936990E+02  0.51100000000E-03 0.  1.
         12    1    3    3    0    0  0.40076083385E+02 -0.13375199285E+02  0.57030047473E+01  0.42632296191E+02  0.00000000000E+00 0. -1.
</event>
<event>
 7    1  0.4555057E-015  0.9000768E+02  0.7816164E-02  0.1186339E+00
        -11   -1    0    0    0    0  0.00000000000E+00  0.00000000000E+00  0.45593999997E+02  0.45594000000E+02  0.51100000000E-03 0.  1.
         11   -1    0    0    0    0 -0.00000000000E+00 -0.00000000000E+00 -0.45593999997E+02  0.45594000000E+02  0.51100000000E-03 0. -1.
    9900012    2    1    2    0    0 -0.45338689825E+00 -0.94922505998E+00 -0.53532092629E+00  0.90007679540E+02  0.89999940110E+02 0.  0.
        -12    1    1    2    0    0  0.45338689825E+00  0.94922505998E+00  0.53532092629E+00  0.11803204599E+01  0.00000000000E+00 0.  1.
         11    1    3    3    0    0  0.67276850176E+01 -0.73607175527E+01 -0.13506841354E+01  0.10063113657E+02  0.51100000000E-03 0. -1.
        -11    1    3    3    0    0  0.22771487162E+02  0.74704463598E+00  0.30048321215E+02  0.37709419398E+02  0.51100000000E-03 0.  1.
         12    1    3    3    0    0 -0.29952559077E+02  0.56644478567E+01 -0.29232958006E+02  0.42235146485E+02  0.00000000000E+00 0. -1.
</event>
<event>
 7    1  0.4555057E-015  0.9000784E+02  0.7816164E-02  0.1186339E+00
        -11   -1    0    0    0    0  0.00000000000E+00  0.00000000000E+00  0.45593999997E+02  0.45594000000E+02  0.51100000000E-03 0.  1.
         11   -1    0    0    0    0 -0.00000000000E+00 -0.00000000000E+00 -0.45593999997E+02  0.45594000000E+02  0.51100000000E-03 0. -1.
    9900012    2    1    2    0    0  0.75432417421E+00  0.81102172999E+00 -0.40746467956E+00  0.90007835320E+02  0.90000097946E+02 0.  0.
        -12    1    1    2    0    0 -0.75432417421E+00 -0.81102172999E+00  0.40746467956E+00  0.11801646798E+01  0.00000000000E+00 0.  1.
         11    1    3    3    0    0  0.28551194580E+01 -0.16434768033E+01 -0.79533431736E+01  0.86086230618E+01  0.51100000000E-03 0. -1.
        -11    1    3    3    0    0 -0.24219401665E+01 -0.35696676957E+02  0.20342965476E+02  0.41157681963E+02  0.51100000000E-03 0.  1.
         12    1    3    3    0    0  0.32114488266E+00  0.38151175490E+02 -0.12797086982E+02  0.40241530296E+02  0.00000000000E+00 0. -1.
</event>
<event>
 7    1  0.4555057E-015  0.9000798E+02  0.7816164E-02  0.1186339E+00
        -11   -1    0    0    0    0  0.00000000000E+00  0.00000000000E+00  0.45593999997E+02  0.45594000000E+02  0.51100000000E-03 0.  1.
         11   -1    0    0    0    0 -0.00000000000E+00 -0.00000000000E+00 -0.45593999997E+02  0.45594000000E+02  0.51100000000E-03 0. -1.
    9900012    2    1    2    0    0  0.10053130734E+01  0.49358312983E+00 -0.37172176876E+00  0.90007976375E+02  0.90000240863E+02 0.  0.
        -12    1    1    2    0    0 -0.10053130734E+01 -0.49358312983E+00  0.37172176876E+00  0.11800236248E+01  0.00000000000E+00 0.  1.
         11    1    3    3    0    0 -0.76916005980E+01 -0.27843499679E+01  0.72897389213E+01  0.10956898206E+02  0.51100000000E-03 0. -1.
        -11    1    3    3    0    0 -0.25638216886E+02 -0.17500636814E+02  0.13303253694E+02  0.33772281728E+02  0.51100000000E-03 0.  1.
         12    1    3    3    0    0  0.34335130557E+02  0.20778569911E+02 -0.20964714384E+02  0.45278796441E+02  0.00000000000E+00 0. -1.
</event>
<event>
 7    1  0.4555057E-015  0.9000772E+02  0.7816164E-02  0.1186339E+00
        -11   -1    0    0    0    0  0.00000000000E+00  0.00000000000E+00  0.45593999997E+02  0.45594000000E+02  0.51100000000E-03 0. -1.
         11   -1    0    0    0    0 -0.00000000000E+00 -0.00000000000E+00 -0.45593999997E+02  0.45594000000E+02  0.51100000000E-03 0.  1.
    9900012    2    1    2    0    0 -0.33814577930E+00 -0.86359927598E+00  0.73001238942E+00  0.90007718522E+02  0.89999979607E+02 0.  0.
        -12    1    1    2    0    0  0.33814577930E+00  0.86359927598E+00 -0.73001238942E+00  0.11802814775E+01  0.00000000000E+00 0.  1.
         11    1    3    3    0    0 -0.86365719105E+01  0.23203481519E+01  0.15648075782E+01  0.90787120744E+01  0.51100000000E-03 0. -1.
        -11    1    3    3    0    0 -0.15867005664E+02  0.32940954240E+02  0.56111008669E+01  0.36991252860E+02  0.51100000000E-03 0.  1.
         12    1    3    3    0    0  0.24165431795E+02 -0.36124901668E+02 -0.64458960557E+01  0.43937753588E+02  0.00000000000E+00 0. -1.
</event>
<event>
 7    1  0.4555057E-015  0.9000770E+02  0.7816164E-02  0.1186339E+00
        -11   -1    0    0    0    0  0.00000000000E+00  0.00000000000E+00  0.45593999997E+02  0.45594000000E+02  0.51100000000E-03 0.  1.
         11   -1    0    0    0    0 -0.00000000000E+00 -0.00000000000E+00 -0.45593999997E+02  0.45594000000E+02  0.51100000000E-03 0. -1.
    9900012    2    1    2    0    0 -0.69628006786E+00 -0.75858769551E+00 -0.57692197276E+00  0.90007703348E+02  0.89999964232E+02 0.  0.
        -12    1    1    2    0    0  0.69628006786E+00  0.75858769551E+00  0.57692197276E+00  0.11802966523E+01  0.00000000000E+00 0.  1.
         11    1    3    3    0    0  0.21777096382E+02  0.25834750600E+02 -0.11597441737E+02  0.35723618525E+02  0.51100000000E-03 0. -1.
        -11    1    3    3    0    0  0.26474298707E+01  0.84442220039E+01 -0.23312920927E+01  0.91514312134E+01  0.51100000000E-03 0.  1.
        -12    1    3    3    0    0 -0.25120806321E+02 -0.35037560300E+02  0.13351811857E+02  0.45132653609E+02  0.00000000000E+00 0.  1.
</event>
<event>
 7    1  0.4555057E-015  0.9000773E+02  0.7816164E-02  0.1186339E+00
        -11   -1    0    0    0    0  0.00000000000E+00  0.00000000000E+00  0.45593999997E+02  0.45594000000E+02  0.51100000000E-03 0.  1.
         11   -1    0    0    0    0 -0.00000000000E+00 -0.00000000000E+00 -0.45593999997E+02  0.45594000000E+02  0.51100000000E-03 0. -1.
    9900012    2    1    2    0    0 -0.65801010211E+00  0.66950090248E+00 -0.71541498908E+00  0.90007734200E+02  0.89999995491E+02 0.  0.
        -12    1    1    2    0    0  0.65801010211E+00 -0.66950090248E+00  0.71541498908E+00  0.11802658004E+01  0.00000000000E+00 0.  1.
         11    1    3    3    0    0 -0.29919062706E+02 -0.28251199243E+02  0.11488861513E+02  0.42723231514E+02  0.51100000000E-03 0. -1.
        -11    1    3    3    0    0  0.70929282655E+01 -0.15415478427E+01  0.10759078137E+01  0.73378184098E+01  0.51100000000E-03 0.  1.
        -12    1    3    3    0    0  0.22168124338E+02  0.30462247988E+02 -0.13280184316E+02  0.39946684276E+02  0.00000000000E+00 0.  1.
</event>
<event>
 7    1  0.4555057E-015  0.9000774E+02  0.7816164E-02  0.1186339E+00
        -11   -1    0    0    0    0  0.00000000000E+00  0.00000000000E+00  0.45593999997E+02  0.45594000000E+02  0.51100000000E-03 0.  1.
         11   -1    0    0    0    0 -0.00000000000E+00 -0.00000000000E+00 -0.45593999997E+02  0.45594000000E+02  0.51100000000E-03 0. -1.
    9900012    2    1    2    0    0 -0.38568760388E+00 -0.10123697822E+01 -0.46836947303E+00  0.90007738390E+02  0.89999999737E+02 0.  0.
        -12    1    1    2    0    0  0.38568760388E+00  0.10123697822E+01  0.46836947303E+00  0.11802616095E+01  0.00000000000E+00 0.  1.
         11    1    3    3    0    0 -0.13552580046E+02  0.27061845952E+02 -0.17593473006E+02  0.35007802344E+02  0.51100000000E-03 0. -1.
        -11    1    3    3    0    0  0.58996636867E+00  0.84407157333E+01 -0.56406991593E+01  0.10169131215E+02  0.51100000000E-03 0.  1.
        -12    1    3    3    0    0  0.12576926074E+02 -0.36514931468E+02  0.22765802693E+02  0.44830804831E+02  0.00000000000E+00 0.  1.
</event>
<event>
 7    1  0.4555057E-015  0.9000767E+02  0.7816164E-02  0.1186339E+00
        -11   -1    0    0    0    0  0.00000000000E+00  0.00000000000E+00  0.45593999997E+02  0.45594000000E+02  0.51100000000E-03 0.  1.
         11   -1    0    0    0    0 -0.00000000000E+00 -0.00000000000E+00 -0.45593999997E+02  0.45594000000E+02  0.51100000000E-03 0. -1.
    9900012    2    1    2    0    0  0.68116225453E-01  0.83756537968E+00 -0.82887045107E+00  0.90007668771E+02  0.89999929199E+02 0.  0.
        -12    1    1    2    0    0 -0.68116225453E-01 -0.83756537968E+00  0.82887045107E+00  0.11803312290E+01  0.00000000000E+00 0.  1.
         11    1    3    3    0    0  0.12557511391E+01 -0.65439310914E+00 -0.12418256625E+02  0.12498729500E+02  0.51100000000E-03 0. -1.
        -11    1    3    3    0    0  0.13207854508E+02  0.35861543463E+02  0.12578434572E+02  0.40233254116E+02  0.51100000000E-03 0.  1.
         12    1    3    3    0    0 -0.14395489421E+02 -0.34369584974E+02 -0.98904839803E+00  0.37275685154E+02  0.00000000000E+00 0. -1.
</event>
<event>
 7    1  0.4555057E-015  0.9000778E+02  0.7816164E-02  0.1186339E+00
        -11   -1    0    0    0    0  0.00000000000E+00  0.00000000000E+00  0.45593999997E+02  0.45594000000E+02  0.51100000000E-03 0.  1.
         11   -1    0    0    0    0 -0.00000000000E+00 -0.00000000000E+00 -0.45593999997E+02  0.45594000000E+02  0.51100000000E-03 0. -1.
    9900012    2    1    2    0    0  0.20081656192E+00  0.11510147941E+01  0.16658984042E+00  0.90007782002E+02  0.90000043924E+02 0.  0.
        -12    1    1    2    0    0 -0.20081656192E+00 -0.11510147941E+01 -0.16658984042E+00  0.11802179979E+01  0.00000000000E+00 0.  1.
         11    1    3    3    0    0 -0.42720411165E+01 -0.61243054667E+01  0.85245696188E+01  0.11332508116E+02  0.51100000000E-03 0. -1.
        -11    1    3    3    0    0  0.25248788632E+01 -0.12314256796E+02  0.31667122372E+02  0.34070846383E+02  0.51100000000E-03 0.  1.
         12    1    3    3    0    0  0.19479788153E+01  0.19589577056E+02 -0.40025102150E+02  0.44604427503E+02  0.00000000000E+00 0. -1.
</event>
<event>
 7    1  0.4555057E-015  0.9000756E+02  0.7816164E-02  0.1186339E+00
        -11   -1    0    0    0    0  0.00000000000E+00  0.00000000000E+00  0.45593999997E+02  0.45594000000E+02  0.51100000000E-03 0.  1.
         11   -1    0    0    0    0 -0.00000000000E+00 -0.00000000000E+00 -0.45593999997E+02  0.45594000000E+02  0.51100000000E-03 0. -1.
    9900012    2    1    2    0    0 -0.46572243169E+00 -0.75764030951E+00 -0.77621655032E+00  0.90007564337E+02  0.89999823386E+02 0.  0.
        -12    1    1    2    0    0  0.46572243169E+00  0.75764030951E+00  0.77621655032E+00  0.11804356632E+01  0.00000000000E+00 0.  1.
         11    1    3    3    0    0  0.46679616015E+01 -0.43260851883E+00 -0.89805754692E+01  0.10130535606E+02  0.51100000000E-03 0. -1.
        -11    1    3    3    0    0  0.13724294497E+02  0.26926499855E+02  0.28063106436E+02  0.41242339859E+02  0.51100000000E-03 0.  1.
         12    1    3    3    0    0 -0.18857978530E+02 -0.27251531646E+02 -0.19858747518E+02  0.38634688872E+02  0.00000000000E+00 0. -1.
</event>
<event>
 7    1  0.4555057E-015  0.9000771E+02  0.7816164E-02  0.1186339E+00
        -11   -1    0    0    0    0  0.00000000000E+00  0.00000000000E+00  0.45593999997E+02  0.45594000000E+02  0.51100000000E-03 0. -1.
         11   -1    0    0    0    0 -0.00000000000E+00 -0.00000000000E+00 -0.45593999997E+02  0.45594000000E+02  0.51100000000E-03 0.  1.
    9900012    2    1    2    0    0  0.11644314789E+01 -0.25507549694E-01 -0.19113057607E+00  0.90007710967E+02  0.89999971952E+02 0.  0.
        -12    1    1    2    0    0 -0.11644314789E+01  0.25507549694E-01  0.19113057607E+00  0.11802890330E+01  0.00000000000E+00 0.  1.
         11    1    3    3    0    0 -0.26268642122E+02 -0.22893989281E+02  0.66984622302E+01  0.35483033983E+02  0.51100000000E-03 0. -1.
        -11    1    3    3    0    0 -0.71052282285E+01 -0.57582239247E+01 -0.23040363892E+01  0.94313304941E+01  0.51100000000E-03 0.  1.
        -12    1    3    3    0    0  0.34538301830E+02  0.28626705656E+02 -0.45855564171E+01  0.45093346490E+02  0.00000000000E+00 0.  1.
</event>
<event>
 7    1  0.4555057E-015  0.9000762E+02  0.7816164E-02  0.1186339E+00
        -11   -1    0    0    0    0  0.00000000000E+00  0.00000000000E+00  0.45593999997E+02  0.45594000000E+02  0.51100000000E-03 0.  1.
         11   -1    0    0    0    0 -0.00000000000E+00 -0.00000000000E+00 -0.45593999997E+02  0.45594000000E+02  0.51100000000E-03 0. -1.
    9900012    2    1    2    0    0  0.41622702368E+00  0.77711170669E+00 -0.78495747698E+00  0.90007616257E+02  0.89999875992E+02 0.  0.
        -12    1    1    2    0    0 -0.41622702368E+00 -0.77711170669E+00  0.78495747698E+00  0.11803837429E+01  0.00000000000E+00 0.  1.
         11    1    3    3    0    0 -0.69948200293E+00 -0.21402298745E+02  0.36716317597E+02  0.42504536756E+02  0.51100000000E-03 0. -1.
        -11    1    3    3    0    0 -0.64453678293E+01  0.10823918586E+01 -0.11010896956E+02  0.12804459795E+02  0.51100000000E-03 0.  1.
        -12    1    3    3    0    0  0.75610768559E+01  0.21097018593E+02 -0.26490378118E+02  0.34698619707E+02  0.00000000000E+00 0.  1.
</event>
<event>
 7    1  0.4555057E-015  0.9000838E+02  0.7816164E-02  0.1186338E+00
        -11   -1    0    0    0    0  0.00000000000E+00  0.00000000000E+00  0.45593999997E+02  0.45594000000E+02  0.51100000000E-03 0. -1.
         11   -1    0    0    0    0 -0.00000000000E+00 -0.00000000000E+00 -0.45593999997E+02  0.45594000000E+02  0.51100000000E-03 0.  1.
    9900012    2    1    2    0    0  0.92846948022E+00  0.66285632699E+00  0.30012513362E+00  0.90008377526E+02  0.90000647307E+02 0.  0.
        -12    1    1    2    0    0 -0.92846948022E+00 -0.66285632699E+00 -0.30012513362E+00  0.11796224743E+01  0.00000000000E+00 0.  1.
         11    1    3    3    0    0  0.27977775347E+01  0.85291707593E+00  0.92813246510E+01  0.97312904699E+01  0.51100000000E-03 0. -1.
        -11    1    3    3    0    0 -0.21108684197E+02  0.18991151785E+02  0.24259627760E+02  0.37346618776E+02  0.51100000000E-03 0.  1.
         12    1    3    3    0    0  0.19239376143E+02 -0.19181212534E+02 -0.33240827278E+02  0.42930468280E+02  0.00000000000E+00 0. -1.
</event>
<event>
 7    1  0.4555057E-015  0.9000800E+02  0.7816164E-02  0.1186339E+00
        -11   -1    0    0    0    0  0.00000000000E+00  0.00000000000E+00  0.45593999997E+02  0.45594000000E+02  0.51100000000E-03 0.  1.
         11   -1    0    0    0    0 -0.00000000000E+00 -0.00000000000E+00 -0.45593999997E+02  0.45594000000E+02  0.51100000000E-03 0. -1.
    9900012    2    1    2    0    0 -0.38494898068E+00  0.10895642190E+01 -0.23888713189E+00  0.90007998743E+02  0.90000263526E+02 0.  0.
        -12    1    1    2    0    0  0.38494898068E+00 -0.10895642190E+01  0.23888713189E+00  0.11800012571E+01  0.00000000000E+00 0.  1.
         11    1    3    3    0    0  0.31288054968E+02 -0.26880014145E+02 -0.50007238162E+00  0.41252001367E+02  0.51100000000E-03 0. -1.
        -11    1    3    3    0    0  0.22365996721E+01  0.41504564727E+01 -0.51300661210E+01  0.69675135947E+01  0.51100000000E-03 0.  1.
        -12    1    3    3    0    0 -0.33909603621E+02  0.23819121892E+02  0.53912513707E+01  0.41788483781E+02  0.00000000000E+00 0.  1.
</event>
<event>
 7    1  0.4555057E-015  0.9000791E+02  0.7816164E-02  0.1186339E+00
        -11   -1    0    0    0    0  0.00000000000E+00  0.00000000000E+00  0.45593999997E+02  0.45594000000E+02  0.51100000000E-03 0.  1.
         11   -1    0    0    0    0 -0.00000000000E+00 -0.00000000000E+00 -0.45593999997E+02  0.45594000000E+02  0.51100000000E-03 0. -1.
    9900012    2    1    2    0    0  0.10745860934E+01 -0.48735733524E+00 -0.18998032726E-01  0.90007909593E+02  0.90000173199E+02 0.  0.
        -12    1    1    2    0    0 -0.10745860934E+01  0.48735733524E+00  0.18998032726E-01  0.11800904074E+01  0.00000000000E+00 0.  1.
         11    1    3    3    0    0  0.95782576046E+01 -0.16332717766E+02 -0.29162547663E+02  0.34770028399E+02  0.51100000000E-03 0. -1.
        -11    1    3    3    0    0  0.91092539506E+00 -0.38531061474E+01 -0.98123938960E+01  0.10581081527E+02  0.51100000000E-03 0.  1.
        -12    1    3    3    0    0 -0.94145969062E+01  0.19698466578E+02  0.38955943526E+02  0.44656799667E+02  0.00000000000E+00 0.  1.
</event>
<event>
 7    1  0.5320420E-015  0.9000744E+02  0.7816164E-02  0.1186340E+00
        -11   -1    0    0    0    0  0.00000000000E+00  0.00000000000E+00  0.45593999997E+02  0.45594000000E+02  0.51100000000E-03 0. -1.
         11   -1    0    0    0    0 -0.00000000000E+00 -0.00000000000E+00 -0.45593999997E+02  0.45594000000E+02  0.51100000000E-03 0.  1.
    9900012    2    1    2    0    0 -0.51570352748E-01 -0.12026454581E+00  0.11732830991E+01  0.90007442381E+02  0.89999699819E+02 0.  0.
        -12    1    1    2    0    0  0.51570352748E-01  0.12026454581E+00 -0.11732830991E+01  0.11805576194E+01  0.00000000000E+00 0.  1.
         11    1    3    3    0    0 -0.62231134135E+01 -0.29309904511E+01  0.57138257796E+01  0.89423515298E+01  0.51100000000E-03 0. -1.
        -11    1    3    3    0    0 -0.26160160661E+02  0.93094188518E+01 -0.28890758437E+02  0.40071126869E+02  0.51100000000E-03 0.  1.
         12    1    3    3    0    0  0.32331703722E+02 -0.64986929465E+01  0.24350215757E+02  0.40993963982E+02  0.00000000000E+00 0. -1.
</event>
<event>
 7    1  0.4555057E-015  0.9000772E+02  0.7816164E-02  0.1186339E+00
        -11   -1    0    0    0    0  0.00000000000E+00  0.00000000000E+00  0.45593999997E+02  0.45594000000E+02  0.51100000000E-03 0. -1.
         11   -1    0    0    0    0 -0.00000000000E+00 -0.00000000000E+00 -0.45593999997E+02  0.45594000000E+02  0.51100000000E-03 0.  1.
    9900012    2    1    2    0    0 -0.80481446588E+00 -0.73966073069E+00  0.44523865068E+00  0.90007719619E+02  0.89999980718E+02 0.  0.
        -12    1    1    2    0    0  0.80481446588E+00  0.73966073069E+00 -0.44523865068E+00  0.11802803807E+01  0.00000000000E+00 0.  1.
         11    1    3    3    0    0 -0.21249126987E+01 -0.43798969954E+01  0.92496120962E+01  0.10452467453E+02  0.51100000000E-03 0. -1.
        -11    1    3    3    0    0 -0.30912243791E+02 -0.20159315165E+02 -0.13319651084E+02  0.39234906772E+02  0.51100000000E-03 0.  1.
         12    1    3    3    0    0  0.32232342023E+02  0.23799551430E+02  0.45152776388E+01  0.40320345395E+02  0.00000000000E+00 0. -1.
</event>
<event>
 7    1  0.4555057E-015  0.9000772E+02  0.7816164E-02  0.1186339E+00
        -11   -1    0    0    0    0  0.00000000000E+00  0.00000000000E+00  0.45593999997E+02  0.45594000000E+02  0.51100000000E-03 0.  1.
         11   -1    0    0    0    0 -0.00000000000E+00 -0.00000000000E+00 -0.45593999997E+02  0.45594000000E+02  0.51100000000E-03 0. -1.
    9900012    2    1    2    0    0  0.10060244493E+01 -0.22526450169E+00 -0.57465159212E+00  0.90007723024E+02  0.89999984168E+02 0.  0.
        -12    1    1    2    0    0 -0.10060244493E+01  0.22526450169E+00  0.57465159212E+00  0.11802769762E+01  0.00000000000E+00 0.  1.
         11    1    3    3    0    0  0.47140003952E+01  0.11812146222E+02 -0.45700369040E+01  0.13514208658E+02  0.51100000000E-03 0. -1.
        -11    1    3    3    0    0  0.32408449205E+02  0.86473070985E+01  0.85776845261E+01  0.34621671999E+02  0.51100000000E-03 0.  1.
         12    1    3    3    0    0 -0.36116425151E+02 -0.20684717822E+02 -0.45822992141E+01  0.41871842366E+02  0.00000000000E+00 0. -1.
</event>
<event>
 7    1  0.4555057E-015  0.9000771E+02  0.7816164E-02  0.1186339E+00
        -11   -1    0    0    0    0  0.00000000000E+00  0.00000000000E+00  0.45593999997E+02  0.45594000000E+02  0.51100000000E-03 0. -1.
         11   -1    0    0    0    0 -0.00000000000E+00 -0.00000000000E+00 -0.45593999997E+02  0.45594000000E+02  0.51100000000E-03 0.  1.
    9900012    2    1    2    0    0  0.58572091072E+00  0.19687914739E+00  0.10056151607E+01  0.90007706716E+02  0.89999967645E+02 0.  0.
        -12    1    1    2    0    0 -0.58572091072E+00 -0.19687914739E+00 -0.10056151607E+01  0.11802932836E+01  0.00000000000E+00 0.  1.
         11    1    3    3    0    0 -0.29100695656E+02 -0.13785521487E+02  0.21245134157E+02  0.38577802114E+02  0.51100000000E-03 0. -1.
        -11    1    3    3    0    0  0.47655763213E+01 -0.67119706961E+01  0.56315046531E+01  0.99737211320E+01  0.51100000000E-03 0.  1.
        -12    1    3    3    0    0  0.24920840245E+02  0.20694371331E+02 -0.25871023649E+02  0.41456183471E+02  0.00000000000E+00 0.  1.
</event>
<event>
 7    1  0.4555057E-015  0.9000786E+02  0.7816164E-02  0.1186339E+00
        -11   -1    0    0    0    0  0.00000000000E+00  0.00000000000E+00  0.45593999997E+02  0.45594000000E+02  0.51100000000E-03 0.  1.
         11   -1    0    0    0    0 -0.00000000000E+00 -0.00000000000E+00 -0.45593999997E+02  0.45594000000E+02  0.51100000000E-03 0. -1.
    9900012    2    1    2    0    0  0.27944634863E+00 -0.95735786127E+00  0.63096035523E+00  0.90007857930E+02  0.90000120854E+02 0.  0.
        -12    1    1    2    0    0 -0.27944634863E+00  0.95735786127E+00 -0.63096035523E+00  0.11801420703E+01  0.00000000000E+00 0.  1.
         11    1    3    3    0    0  0.67450940674E+01  0.99563887071E+01  0.23973369607E+01  0.12262674864E+02  0.51100000000E-03 0. -1.
        -11    1    3    3    0    0  0.21001901047E+02 -0.12036763893E+02  0.28143004071E+02  0.37121317474E+02  0.51100000000E-03 0.  1.
         12    1    3    3    0    0 -0.27467548765E+02  0.11230173250E+01 -0.29909380677E+02  0.40623865591E+02  0.00000000000E+00 0. -1.
</event>
<event>
 7    1  0.4555057E-015  0.9000774E+02  0.7816164E-02  0.1186339E+00
        -11   -1    0    0    0    0  0.00000000000E+00  0.00000000000E+00  0.45593999997E+02  0.45594000000E+02  0.51100000000E-03 0. -1.
         11   -1    0    0    0    0 -0.00000000000E+00 -0.00000000000E+00 -0.45593999997E+02  0.45594000000E+02  0.51100000000E-03 0.  1.
    9900012    2    1    2    0    0  0.83406445837E+00  0.78296424941E+00 -0.29036616719E+00  0.90007741957E+02  0.90000003351E+02 0.  0.
        -12    1    1    2    0    0 -0.83406445837E+00 -0.78296424941E+00  0.29036616719E+00  0.11802580428E+01  0.00000000000E+00 0.  1.
         11    1    3    3    0    0  0.53891660366E+00  0.19032190327E+02  0.33029248264E+02  0.38124086099E+02  0.51100000000E-03 0. -1.
        -11    1    3    3    0    0 -0.80462866086E+01 -0.17224989873E+02 -0.16105006470E+01  0.19079746249E+02  0.51100000000E-03 0.  1.
        -12    1    3    3    0    0  0.83414344633E+01 -0.10242362043E+01 -0.31709113784E+02  0.32803909609E+02  0.00000000000E+00 0.  1.
</event>
<event>
 7    1  0.4555057E-015  0.9000759E+02  0.7816164E-02  0.1186339E+00
        -11   -1    0    0    0    0  0.00000000000E+00  0.00000000000E+00  0.45593999997E+02  0.45594000000E+02  0.51100000000E-03 0.  1.
         11   -1    0    0    0    0 -0.00000000000E+00 -0.00000000000E+00 -0.45593999997E+02  0.45594000000E+02  0.51100000000E-03 0. -1.
    9900012    2    1    2    0    0 -0.80622266660E+00 -0.52376261923E+00 -0.68486065438E+00  0.90007594822E+02  0.89999854273E+02 0.  0.
        -12    1    1    2    0    0  0.80622266660E+00  0.52376261923E+00  0.68486065438E+00  0.11804051785E+01  0.00000000000E+00 0.  1.
         11    1    3    3    0    0 -0.53062729815E+01 -0.24285000842E+02 -0.26434967869E+02  0.36286710038E+02  0.51100000000E-03 0. -1.
        -11    1    3    3    0    0 -0.38944750401E+01 -0.60086613327E+01 -0.60390482605E+01  0.93670193233E+01  0.51100000000E-03 0.  1.
        -12    1    3    3    0    0  0.83945253550E+01  0.29769899556E+02  0.31789155475E+02  0.44353865461E+02  0.00000000000E+00 0.  1.
</event>
<event>
 7    1  0.4555057E-015  0.9000780E+02  0.7816164E-02  0.1186339E+00
        -11   -1    0    0    0    0  0.00000000000E+00  0.00000000000E+00  0.45593999997E+02  0.45594000000E+02  0.51100000000E-03 0.  1.
         11   -1    0    0    0    0 -0.00000000000E+00 -0.00000000000E+00 -0.45593999997E+02  0.45594000000E+02  0.51100000000E-03 0. -1.
    9900012    2    1    2    0    0 -0.83972709154E+00 -0.33660734065E+00 -0.75791670165E+00  0.90007795011E+02  0.90000057105E+02 0.  0.
        -12    1    1    2    0    0  0.83972709154E+00  0.33660734065E+00  0.75791670165E+00  0.11802049893E+01  0.00000000000E+00 0.  1.
         11    1    3    3    0    0 -0.51274012099E+01 -0.69817422271E+01  0.11151298782E+02  0.14120426073E+02  0.51100000000E-03 0. -1.
        -11    1    3    3    0    0  0.26636889671E+02 -0.24300732540E+02 -0.54897544342E+00  0.36060378085E+02  0.51100000000E-03 0.  1.
         12    1    3    3    0    0 -0.22349215553E+02  0.30945867427E+02 -0.11360240040E+02  0.39826990853E+02  0.00000000000E+00 0. -1.
</event>
<event>
 7    1  0.4555057E-015  0.9000763E+02  0.7816164E-02  0.1186339E+00
        -11   -1    0    0    0    0  0.00000000000E+00  0.00000000000E+00  0.45593999997E+02  0.45594000000E+02  0.51100000000E-03 0.  1.
         11   -1    0    0    0    0 -0.00000000000E+00 -0.00000000000E+00 -0.45593999997E+02  0.45594000000E+02  0.51100000000E-03 0. -1.
    9900012    2    1    2    0    0  0.38126567538E+00 -0.16166116571E-01 -0.11169776152E+01  0.90007634018E+02  0.89999893987E+02 0.  0.
        -12    1    1    2    0    0 -0.38126567538E+00  0.16166116571E-01  0.11169776152E+01  0.11803659819E+01  0.00000000000E+00 0.  1.
         11    1    3    3    0    0 -0.41525563010E+01  0.10123788839E+02  0.49342249005E+01  0.12003391185E+02  0.51100000000E-03 0. -1.
        -11    1    3    3    0    0  0.58528249477E+01  0.30939999489E+02  0.11211457331E+02  0.33425078967E+02  0.51100000000E-03 0.  1.
         12    1    3    3    0    0 -0.13190029713E+01 -0.41079954445E+02 -0.17262659847E+02  0.44579163866E+02  0.00000000000E+00 0. -1.
</event>
<event>
 7    1  0.4555057E-015  0.9000773E+02  0.7816164E-02  0.1186339E+00
        -11   -1    0    0    0    0  0.00000000000E+00  0.00000000000E+00  0.45593999997E+02  0.45594000000E+02  0.51100000000E-03 0. -1.
         11   -1    0    0    0    0 -0.00000000000E+00 -0.00000000000E+00 -0.45593999997E+02  0.45594000000E+02  0.51100000000E-03 0.  1.
    9900012    2    1    2    0    0  0.95201903535E+00 -0.63226093838E+00 -0.29486309604E+00  0.90007729530E+02  0.89999990759E+02 0.  0.
        -12    1    1    2    0    0 -0.95201903535E+00  0.63226093838E+00  0.29486309604E+00  0.11802704704E+01  0.00000000000E+00 0.  1.
         11    1    3    3    0    0  0.13715300132E+02  0.80650483012E+01 -0.11970005460E+02  0.19910687903E+02  0.51100000000E-03 0. -1.
        -11    1    3    3    0    0 -0.23125683262E+02  0.24094501937E+02 -0.10891422860E+01  0.33414495075E+02  0.51100000000E-03 0.  1.
         12    1    3    3    0    0  0.10362402166E+02 -0.32791811177E+02  0.12764284650E+02  0.36682546552E+02  0.00000000000E+00 0. -1.
</event>
<event>
 7    1  0.4555057E-015  0.9000786E+02  0.7816164E-02  0.1186339E+00
        -11   -1    0    0    0    0  0.00000000000E+00  0.00000000000E+00  0.45593999997E+02  0.45594000000E+02  0.51100000000E-03 0. -1.
         11   -1    0    0    0    0 -0.00000000000E+00 -0.00000000000E+00 -0.45593999997E+02  0.45594000000E+02  0.51100000000E-03 0.  1.
    9900012    2    1    2    0    0 -0.73844045663E-01  0.11120413848E+01 -0.38813223333E+00  0.90007857799E+02  0.90000120722E+02 0.  0.
        -12    1    1    2    0    0  0.73844045663E-01 -0.11120413848E+01  0.38813223333E+00  0.11801422012E+01  0.00000000000E+00 0.  1.
         11    1    3    3    0    0  0.88055581807E+01 -0.15806157285E+01  0.13483290193E+01  0.90473306760E+01  0.51100000000E-03 0. -1.
        -11    1    3    3    0    0 -0.34946532787E+01  0.40504354689E+02  0.82496929922E+01  0.41483403730E+02  0.51100000000E-03 0.  1.
         12    1    3    3    0    0 -0.53847489477E+01 -0.37811697576E+02 -0.99861542448E+01  0.39477123393E+02  0.00000000000E+00 0. -1.
</event>
<event>
 7    1  0.4555057E-015  0.9000790E+02  0.7816164E-02  0.1186339E+00
        -11   -1    0    0    0    0  0.00000000000E+00  0.00000000000E+00  0.45593999997E+02  0.45594000000E+02  0.51100000000E-03 0. -1.
         11   -1    0    0    0    0 -0.00000000000E+00 -0.00000000000E+00 -0.45593999997E+02  0.45594000000E+02  0.51100000000E-03 0.  1.
    9900012    2    1    2    0    0 -0.19750415079E+00 -0.31396626111E+00  0.11202948240E+01  0.90007896956E+02  0.90000160395E+02 0.  0.
        -12    1    1    2    0    0  0.19750415079E+00  0.31396626111E+00 -0.11202948240E+01  0.11801030444E+01  0.00000000000E+00 0.  1.
         11    1    3    3    0    0  0.11275682467E+02  0.91900753583E+01  0.36711460894E+02  0.39488350959E+02  0.51100000000E-03 0. -1.
        -11    1    3    3    0    0  0.34682493716E+01 -0.71884734036E+01  0.34181430653E+01  0.86825460468E+01  0.51100000000E-03 0.  1.
        -12    1    3    3    0    0 -0.14941435989E+02 -0.23155682157E+01 -0.39009309136E+02  0.41836999950E+02  0.00000000000E+00 0.  1.
</event>
<event>
 7    1  0.4555057E-015  0.9000791E+02  0.7816164E-02  0.1186339E+00
        -11   -1    0    0    0    0  0.00000000000E+00  0.00000000000E+00  0.45593999997E+02  0.45594000000E+02  0.51100000000E-03 0. -1.
         11   -1    0    0    0    0 -0.00000000000E+00 -0.00000000000E+00 -0.45593999997E+02  0.45594000000E+02  0.51100000000E-03 0.  1.
    9900012    2    1    2    0    0 -0.90005234303E-01 -0.10555615303E+01  0.51990518569E+00  0.90007909966E+02  0.90000173577E+02 0.  0.
        -12    1    1    2    0    0  0.90005234303E-01  0.10555615303E+01 -0.51990518569E+00  0.11800900341E+01  0.00000000000E+00 0.  1.
         11    1    3    3    0    0  0.33162623922E+02 -0.29322599368E+01 -0.21657585177E+02  0.39716605717E+02  0.51100000000E-03 0. -1.
        -11    1    3    3    0    0 -0.19911926891E+01 -0.95113832989E+01 -0.96150914213E+00  0.97650274283E+01  0.51100000000E-03 0.  1.
        -12    1    3    3    0    0 -0.31261436467E+02  0.11388081705E+02  0.23138999505E+02  0.40526276821E+02  0.00000000000E+00 0.  1.
</event>
<event>
 7    1  0.4555057E-015  0.9000766E+02  0.7816164E-02  0.1186339E+00
        -11   -1    0    0    0    0  0.00000000000E+00  0.00000000000E+00  0.45593999997E+02  0.45594000000E+02  0.51100000000E-03 0.  1.
         11   -1    0    0    0    0 -0.00000000000E+00 -0.00000000000E+00 -0.45593999997E+02  0.45594000000E+02  0.51100000000E-03 0. -1.
    9900012    2    1    2    0    0  0.11169241073E+01 -0.32084132653E+00 -0.20672514774E+00  0.90007663648E+02  0.89999924008E+02 0.  0.
        -12    1    1    2    0    0 -0.11169241073E+01  0.32084132653E+00  0.20672514774E+00  0.11803363524E+01  0.00000000000E+00 0.  1.
         11    1    3    3    0    0 -0.21156141927E+02  0.22762017408E+02 -0.15996398109E+02  0.34951059074E+02  0.51100000000E-03 0. -1.
        -11    1    3    3    0    0 -0.65009470151E+01  0.54065231742E+01 -0.47021351566E+01  0.96748581498E+01  0.51100000000E-03 0.  1.
        -12    1    3    3    0    0  0.28774013049E+02 -0.28489381909E+02  0.20491808118E+02  0.45381746423E+02  0.00000000000E+00 0.  1.
</event>
<event>
 7    1  0.4555057E-015  0.9000779E+02  0.7816164E-02  0.1186339E+00
        -11   -1    0    0    0    0  0.00000000000E+00  0.00000000000E+00  0.45593999997E+02  0.45594000000E+02  0.51100000000E-03 0. -1.
         11   -1    0    0    0    0 -0.00000000000E+00 -0.00000000000E+00 -0.45593999997E+02  0.45594000000E+02  0.51100000000E-03 0.  1.
    9900012    2    1    2    0    0  0.73576865213E+00  0.87813579767E+00 -0.28356079280E+00  0.90007794632E+02  0.90000056721E+02 0.  0.
        -12    1    1    2    0    0 -0.73576865213E+00 -0.87813579767E+00  0.28356079280E+00  0.11802053685E+01  0.00000000000E+00 0.  1.
         11    1    3    3    0    0  0.36225388153E+02  0.16402982395E+02 -0.11704035998E+02  0.41452636071E+02  0.51100000000E-03 0. -1.
        -11    1    3    3    0    0 -0.47020329563E+01  0.66589433570E+01  0.62188418823E+01  0.10253030536E+02  0.51100000000E-03 0.  1.
        -12    1    3    3    0    0 -0.30787586545E+02 -0.22183789955E+02  0.52016333231E+01  0.38302128025E+02  0.00000000000E+00 0.  1.
</event>
<event>
 7    1  0.4555057E-015  0.9000776E+02  0.7816164E-02  0.1186339E+00
        -11   -1    0    0    0    0  0.00000000000E+00  0.00000000000E+00  0.45593999997E+02  0.45594000000E+02  0.51100000000E-03 0. -1.
         11   -1    0    0    0    0 -0.00000000000E+00 -0.00000000000E+00 -0.45593999997E+02  0.45594000000E+02  0.51100000000E-03 0.  1.
    9900012    2    1    2    0    0  0.10099445640E+01 -0.49410852825E+00  0.35894860358E+00  0.90007756229E+02  0.90000017811E+02 0.  0.
        -12    1    1    2    0    0 -0.10099445640E+01  0.49410852825E+00 -0.35894860358E+00  0.11802437714E+01  0.00000000000E+00 0.  1.
         11    1    3    3    0    0 -0.32746606342E+01 -0.16468256355E+00 -0.12012911141E+02  0.12452331386E+02  0.51100000000E-03 0. -1.
        -11    1    3    3    0    0 -0.67072262950E+00 -0.27608872949E+02 -0.20616073611E+02  0.34463346119E+02  0.51100000000E-03 0.  1.
         12    1    3    3    0    0  0.49553278277E+01  0.27279446984E+02  0.32987933355E+02  0.43092078723E+02  0.00000000000E+00 0. -1.
</event>
<event>
 7    1  0.4555057E-015  0.9000750E+02  0.7816164E-02  0.1186340E+00
        -11   -1    0    0    0    0  0.00000000000E+00  0.00000000000E+00  0.45593999997E+02  0.45594000000E+02  0.51100000000E-03 0.  1.
         11   -1    0    0    0    0 -0.00000000000E+00 -0.00000000000E+00 -0.45593999997E+02  0.45594000000E+02  0.51100000000E-03 0. -1.
    9900012    2    1    2    0    0 -0.10355311935E+01 -0.61113223453E-01 -0.56349160393E+00  0.90007499061E+02  0.89999757249E+02 0.  0.
        -12    1    1    2    0    0  0.10355311935E+01  0.61113223453E-01  0.56349160393E+00  0.11805009388E+01  0.00000000000E+00 0.  1.
         11    1    3    3    0    0  0.10910556934E+02  0.93176834281E+01  0.14455768755E+02  0.20367344639E+02  0.51100000000E-03 0. -1.
        -11    1    3    3    0    0  0.26733982646E+02  0.79474371750E+00 -0.12617212641E+02  0.29572478773E+02  0.51100000000E-03 0.  1.
        -12    1    3    3    0    0 -0.38680070774E+02 -0.10173540369E+02 -0.24020477185E+01  0.40067675649E+02  0.00000000000E+00 0.  1.
</event>
<event>
 7    1  0.4555057E-015  0.9000772E+02  0.7816164E-02  0.1186339E+00
        -11   -1    0    0    0    0  0.00000000000E+00  0.00000000000E+00  0.45593999997E+02  0.45594000000E+02  0.51100000000E-03 0. -1.
         11   -1    0    0    0    0 -0.00000000000E+00 -0.00000000000E+00 -0.45593999997E+02  0.45594000000E+02  0.51100000000E-03 0.  1.
    9900012    2    1    2    0    0 -0.64193563459E+00  0.67543245064E+00  0.72441656690E+00  0.90007716256E+02  0.89999977310E+02 0.  0.
        -12    1    1    2    0    0  0.64193563459E+00 -0.67543245064E+00 -0.72441656690E+00  0.11802837442E+01  0.00000000000E+00 0.  1.
         11    1    3    3    0    0  0.18324298694E+01 -0.74239416953E+01  0.24838244036E+01  0.80400306872E+01  0.51100000000E-03 0. -1.
        -11    1    3    3    0    0  0.22089534737E+02 -0.20186951010E+01 -0.33748653141E+02  0.40385569996E+02  0.51100000000E-03 0.  1.
         12    1    3    3    0    0 -0.24563900241E+02  0.10118069247E+02  0.31989245305E+02  0.41582115573E+02  0.00000000000E+00 0. -1.
</event>
<event>
 7    1  0.4555057E-015  0.9000771E+02  0.7816164E-02  0.1186339E+00
        -11   -1    0    0    0    0  0.00000000000E+00  0.00000000000E+00  0.45593999997E+02  0.45594000000E+02  0.51100000000E-03 0. -1.
         11   -1    0    0    0    0 -0.00000000000E+00 -0.00000000000E+00 -0.45593999997E+02  0.45594000000E+02  0.51100000000E-03 0.  1.
    9900012    2    1    2    0    0  0.10648633261E-01 -0.63318483256E+00 -0.99601609564E+00  0.90007709998E+02  0.89999970970E+02 0.  0.
        -12    1    1    2    0    0 -0.10648633261E-01  0.63318483256E+00  0.99601609564E+00  0.11802900018E+01  0.00000000000E+00 0.  1.
         11    1    3    3    0    0  0.92146563570E+01 -0.29966488456E+01 -0.37219601063E+01  0.10379922128E+02  0.51100000000E-03 0. -1.
        -11    1    3    3    0    0  0.20560978355E+02  0.19196773418E+02 -0.23403442277E+02  0.36592226650E+02  0.51100000000E-03 0.  1.
         12    1    3    3    0    0 -0.29764986078E+02 -0.16833309405E+02  0.26129386287E+02  0.43035561220E+02  0.00000000000E+00 0. -1.
</event>
<event>
 7    1  0.4555057E-015  0.9000770E+02  0.7816164E-02  0.1186339E+00
        -11   -1    0    0    0    0  0.00000000000E+00  0.00000000000E+00  0.45593999997E+02  0.45594000000E+02  0.51100000000E-03 0.  1.
         11   -1    0    0    0    0 -0.00000000000E+00 -0.00000000000E+00 -0.45593999997E+02  0.45594000000E+02  0.51100000000E-03 0. -1.
    9900012    2    1    2    0    0  0.59664996776E+00 -0.94057161387E+00  0.39042714252E+00  0.90007703640E+02  0.89999964528E+02 0.  0.
        -12    1    1    2    0    0 -0.59664996776E+00  0.94057161387E+00 -0.39042714252E+00  0.11802963604E+01  0.00000000000E+00 0.  1.
         11    1    3    3    0    0  0.16934600089E+02  0.72406575275E+01 -0.29717340992E+02  0.34961809986E+02  0.51100000000E-03 0. -1.
        -11    1    3    3    0    0 -0.30252550522E+01  0.14022484344E+01 -0.10624122550E+02  0.11135099865E+02  0.51100000000E-03 0.  1.
        -12    1    3    3    0    0 -0.13312695069E+02 -0.95834775758E+01  0.40731890684E+02  0.43910793788E+02  0.00000000000E+00 0.  1.
</event>
<event>
 7    1  0.4555057E-015  0.9000764E+02  0.7816164E-02  0.1186339E+00
        -11   -1    0    0    0    0  0.00000000000E+00  0.00000000000E+00  0.45593999997E+02  0.45594000000E+02  0.51100000000E-03 0.  1.
         11   -1    0    0    0    0 -0.00000000000E+00 -0.00000000000E+00 -0.45593999997E+02  0.45594000000E+02  0.51100000000E-03 0. -1.
    9900012    2    1    2    0    0 -0.21751838417E+00 -0.11493549041E+01 -0.15782573378E+00  0.90007644162E+02  0.89999904265E+02 0.  0.
        -12    1    1    2    0    0  0.21751838417E+00  0.11493549041E+01  0.15782573378E+00  0.11803558384E+01  0.00000000000E+00 0.  1.
         11    1    3    3    0    0  0.51875082617E+01 -0.68851688628E+00 -0.60742794503E+01  0.80175537771E+01  0.51100000000E-03 0. -1.
        -11    1    3    3    0    0  0.15962464122E+02  0.33669857699E+02  0.15885488831E+02  0.40506892425E+02  0.51100000000E-03 0.  1.
         12    1    3    3    0    0 -0.21367490768E+02 -0.34130695717E+02 -0.99690351146E+01  0.41483197959E+02  0.00000000000E+00 0. -1.
</event>
<event>
 7    1  0.4555057E-015  0.9000782E+02  0.7816164E-02  0.1186339E+00
        -11   -1    0    0    0    0  0.00000000000E+00  0.00000000000E+00  0.45593999997E+02  0.45594000000E+02  0.51100000000E-03 0.  1.
         11   -1    0    0    0    0 -0.00000000000E+00 -0.00000000000E+00 -0.45593999997E+02  0.45594000000E+02  0.51100000000E-03 0. -1.
    9900012    2    1    2    0    0  0.75675116302E+00  0.83439812123E+00 -0.35205334714E+00  0.90007816071E+02  0.90000078443E+02 0.  0.
        -12    1    1    2    0    0 -0.75675116302E+00 -0.83439812123E+00  0.35205334714E+00  0.11801839292E+01  0.00000000000E+00 0.  1.
         11    1    3    3    0    0  0.60994262339E+01 -0.21207777542E+02 -0.27366574231E+02  0.35155400923E+02  0.51100000000E-03 0. -1.
        -11    1    3    3    0    0  0.12113453539E+02 -0.59175866661E+01  0.13939310470E+02  0.19392214036E+02  0.51100000000E-03 0.  1.
         12    1    3    3    0    0 -0.17456128610E+02  0.27959762329E+02  0.13075210414E+02  0.35460201112E+02  0.00000000000E+00 0. -1.
</event>
<event>
 7    1  0.4555057E-015  0.9000775E+02  0.7816164E-02  0.1186339E+00
        -11   -1    0    0    0    0  0.00000000000E+00  0.00000000000E+00  0.45593999997E+02  0.45594000000E+02  0.51100000000E-03 0.  1.
         11   -1    0    0    0    0 -0.00000000000E+00 -0.00000000000E+00 -0.45593999997E+02  0.45594000000E+02  0.51100000000E-03 0. -1.
    9900012    2    1    2    0    0 -0.39009152908E+00 -0.96544163132E+00 -0.55563694735E+00  0.90007753686E+02  0.90000015235E+02 0.  0.
        -12    1    1    2    0    0  0.39009152908E+00  0.96544163132E+00  0.55563694735E+00  0.11802463140E+01  0.00000000000E+00 0.  1.
         11    1    3    3    0    0 -0.19710903068E+01 -0.40303560020E+02 -0.30960834248E-01  0.40351742293E+02  0.51100000000E-03 0. -1.
        -11    1    3    3    0    0 -0.96456769001E+01  0.17229306434E+01 -0.32065707668E+01  0.10309688124E+02  0.51100000000E-03 0.  1.
        -12    1    3    3    0    0  0.11226675678E+02  0.37615187745E+02  0.26818946537E+01  0.39346323269E+02  0.00000000000E+00 0.  1.
</event>
<event>
 7    1  0.4555057E-015  0.9000813E+02  0.7816164E-02  0.1186338E+00
        -11   -1    0    0    0    0  0.00000000000E+00  0.00000000000E+00  0.45593999997E+02  0.45594000000E+02  0.51100000000E-03 0.  1.
         11   -1    0    0    0    0 -0.00000000000E+00 -0.00000000000E+00 -0.45593999997E+02  0.45594000000E+02  0.51100000000E-03 0. -1.
    9900012    2    1    2    0    0 -0.52551462164E+00 -0.91964071563E+00  0.51979207726E+00  0.90008132013E+02  0.90000398555E+02 0.  0.
        -12    1    1    2    0    0  0.52551462164E+00  0.91964071563E+00 -0.51979207726E+00  0.11798679871E+01  0.00000000000E+00 0.  1.
         11    1    3    3    0    0  0.48171998038E+00  0.86004836579E+01 -0.41622969208E+01  0.95668745788E+01  0.51100000000E-03 0. -1.
        -11    1    3    3    0    0  0.15322759374E+01  0.32092989139E+02 -0.13636587918E+02  0.34903643817E+02  0.51100000000E-03 0.  1.
         12    1    3    3    0    0 -0.25395105394E+01 -0.41613113512E+02  0.18318676916E+02  0.45537613617E+02  0.00000000000E+00 0. -1.
</event>
<event>
 7    1  0.4555057E-015  0.9000778E+02  0.7816164E-02  0.1186339E+00
        -11   -1    0    0    0    0  0.00000000000E+00  0.00000000000E+00  0.45593999997E+02  0.45594000000E+02  0.51100000000E-03 0.  1.
         11   -1    0    0    0    0 -0.00000000000E+00 -0.00000000000E+00 -0.45593999997E+02  0.45594000000E+02  0.51100000000E-03 0. -1.
    9900012    2    1    2    0    0 -0.37719400203E+00  0.11171923904E+01 -0.50320611814E-01  0.90007777006E+02  0.90000038862E+02 0.  0.
        -12    1    1    2    0    0  0.37719400203E+00 -0.11171923904E+01  0.50320611814E-01  0.11802229943E+01  0.00000000000E+00 0.  1.
         11    1    3    3    0    0 -0.73394046066E+01  0.59058168492E+01 -0.12914369593E+01  0.95085930777E+01  0.51100000000E-03 0. -1.
        -11    1    3    3    0    0 -0.34964109445E+02 -0.99774207230E+01 -0.80571255948E+01  0.37241846714E+02  0.51100000000E-03 0.  1.
         12    1    3    3    0    0  0.41926320050E+02  0.51887962642E+01  0.92982419423E+01  0.43257337214E+02  0.00000000000E+00 0. -1.
</event>
<event>
 7    1  0.4555057E-015  0.9000761E+02  0.7816164E-02  0.1186339E+00
        -11   -1    0    0    0    0  0.00000000000E+00  0.00000000000E+00  0.45593999997E+02  0.45594000000E+02  0.51100000000E-03 0.  1.
         11   -1    0    0    0    0 -0.00000000000E+00 -0.00000000000E+00 -0.45593999997E+02  0.45594000000E+02  0.51100000000E-03 0. -1.
    9900012    2    1    2    0    0 -0.79718490374E+00  0.22258399242E+00 -0.84159376625E+00  0.90007607069E+02  0.89999866682E+02 0.  0.
        -12    1    1    2    0    0  0.79718490374E+00 -0.22258399242E+00  0.84159376625E+00  0.11803929311E+01  0.00000000000E+00 0.  1.
         11    1    3    3    0    0  0.35911052514E+00 -0.33606253865E+01  0.96681921095E+01  0.10241909113E+02  0.51100000000E-03 0. -1.
        -11    1    3    3    0    0 -0.11652274529E+02  0.25842876725E+02  0.24161537334E+02  0.37247948477E+02  0.51100000000E-03 0.  1.
         12    1    3    3    0    0  0.10495979100E+02 -0.22259667346E+02 -0.34671323210E+02  0.42517749479E+02  0.00000000000E+00 0. -1.
</event>
<event>
 7    1  0.4555057E-015  0.9000767E+02  0.7816164E-02  0.1186339E+00
        -11   -1    0    0    0    0  0.00000000000E+00  0.00000000000E+00  0.45593999997E+02  0.45594000000E+02  0.51100000000E-03 0. -1.
         11   -1    0    0    0    0 -0.00000000000E+00 -0.00000000000E+00 -0.45593999997E+02  0.45594000000E+02  0.51100000000E-03 0.  1.
    9900012    2    1    2    0    0 -0.62097511645E+00 -0.91228889239E+00  0.41867187157E+00  0.90007674937E+02  0.89999935446E+02 0.  0.
        -12    1    1    2    0    0  0.62097511645E+00  0.91228889239E+00 -0.41867187157E+00  0.11803250631E+01  0.00000000000E+00 0.  1.
         11    1    3    3    0    0  0.16549637656E+02 -0.17201500069E+01 -0.33242540298E+02  0.37174129558E+02  0.51100000000E-03 0. -1.
        -11    1    3    3    0    0 -0.26769091908E+01 -0.35434527363E+01 -0.76457334870E+01  0.88418969077E+01  0.51100000000E-03 0.  1.
        -12    1    3    3    0    0 -0.14493703582E+02  0.43513138508E+01  0.41306945657E+02  0.43991648472E+02  0.00000000000E+00 0.  1.
</event>
<event>
 7    1  0.4555057E-015  0.9000769E+02  0.7816164E-02  0.1186339E+00
        -11   -1    0    0    0    0  0.00000000000E+00  0.00000000000E+00  0.45593999997E+02  0.45594000000E+02  0.51100000000E-03 0. -1.
         11   -1    0    0    0    0 -0.00000000000E+00 -0.00000000000E+00 -0.45593999997E+02  0.45594000000E+02  0.51100000000E-03 0.  1.
    9900012    2    1    2    0    0  0.92698524875E+00 -0.52906384234E+00  0.50390300853E+00  0.90007691378E+02  0.89999952104E+02 0.  0.
        -12    1    1    2    0    0 -0.92698524875E+00  0.52906384234E+00 -0.50390300853E+00  0.11803086218E+01  0.00000000000E+00 0.  1.
         11    1    3    3    0    0  0.14243434565E+02  0.22425822157E+01 -0.18640625725E+02  0.23566449263E+02  0.51100000000E-03 0. -1.
        -11    1    3    3    0    0  0.46758819753E+01 -0.30278977323E+02  0.72304548480E+01  0.31479514252E+02  0.51100000000E-03 0.  1.
         12    1    3    3    0    0 -0.17992331292E+02  0.27507331265E+02  0.11914073886E+02  0.34961727863E+02  0.00000000000E+00 0. -1.
</event>
<event>
 7    1  0.4555057E-015  0.9000777E+02  0.7816164E-02  0.1186339E+00
        -11   -1    0    0    0    0  0.00000000000E+00  0.00000000000E+00  0.45593999997E+02  0.45594000000E+02  0.51100000000E-03 0. -1.
         11   -1    0    0    0    0 -0.00000000000E+00 -0.00000000000E+00 -0.45593999997E+02  0.45594000000E+02  0.51100000000E-03 0.  1.
    9900012    2    1    2    0    0 -0.12670937559E+00 -0.81296489549E+00  0.84615860790E+00  0.90007766304E+02  0.90000028019E+02 0.  0.
        -12    1    1    2    0    0  0.12670937559E+00  0.81296489549E+00 -0.84615860790E+00  0.11802336959E+01  0.00000000000E+00 0.  1.
         11    1    3    3    0    0 -0.10105474030E+02 -0.35690707529E+02 -0.82044699896E+01  0.37990268982E+02  0.51100000000E-03 0. -1.
        -11    1    3    3    0    0  0.15657758177E+02  0.25297590978E+00  0.61011496625E+01  0.16806350449E+02  0.51100000000E-03 0.  1.
        -12    1    3    3    0    0 -0.56789935226E+01  0.34624766724E+02  0.29494789350E+01  0.35211146873E+02  0.00000000000E+00 0.  1.
</event>
<event>
 7    1  0.4555057E-015  0.9000762E+02  0.7816164E-02  0.1186339E+00
        -11   -1    0    0    0    0  0.00000000000E+00  0.00000000000E+00  0.45593999997E+02  0.45594000000E+02  0.51100000000E-03 0. -1.
         11   -1    0    0    0    0 -0.00000000000E+00 -0.00000000000E+00 -0.45593999997E+02  0.45594000000E+02  0.51100000000E-03 0.  1.
    9900012    2    1    2    0    0 -0.10502134804E+01 -0.25531773063E+00  0.47450926996E+00  0.90007621016E+02  0.89999880814E+02 0.  0.
        -12    1    1    2    0    0  0.10502134804E+01  0.25531773063E+00 -0.47450926996E+00  0.11803789837E+01  0.00000000000E+00 0.  1.
         11    1    3    3    0    0  0.30178916931E+01  0.89316782624E+01  0.23336192473E+02  0.25168639738E+02  0.51100000000E-03 0. -1.
        -11    1    3    3    0    0  0.57139532620E+01  0.65262304749E+01  0.17999789982E+02  0.19980825452E+02  0.51100000000E-03 0.  1.
        -12    1    3    3    0    0 -0.97820584354E+01 -0.15713226468E+02 -0.40861473185E+02  0.44858155826E+02  0.00000000000E+00 0.  1.
</event>
<event>
 7    1  0.4555057E-015  0.9000773E+02  0.7816164E-02  0.1186339E+00
        -11   -1    0    0    0    0  0.00000000000E+00  0.00000000000E+00  0.45593999997E+02  0.45594000000E+02  0.51100000000E-03 0. -1.
         11   -1    0    0    0    0 -0.00000000000E+00 -0.00000000000E+00 -0.45593999997E+02  0.45594000000E+02  0.51100000000E-03 0.  1.
    9900012    2    1    2    0    0  0.29684802254E+00  0.98807442096E+00  0.57326618424E+00  0.90007727181E+02  0.89999988380E+02 0.  0.
        -12    1    1    2    0    0 -0.29684802254E+00 -0.98807442096E+00 -0.57326618424E+00  0.11802728192E+01  0.00000000000E+00 0.  1.
         11    1    3    3    0    0  0.80096760346E+01  0.41335778013E+01 -0.25994331101E+00  0.90171473540E+01  0.51100000000E-03 0. -1.
        -11    1    3    3    0    0 -0.33502092888E+02  0.34283718385E+01 -0.26490727679E+02  0.42847434165E+02  0.51100000000E-03 0.  1.
         12    1    3    3    0    0  0.25789264876E+02 -0.65738752188E+01  0.27323937174E+02  0.38143145661E+02  0.00000000000E+00 0. -1.
</event>
<event>
 7    1  0.4555057E-015  0.9000736E+02  0.7816164E-02  0.1186340E+00
        -11   -1    0    0    0    0  0.00000000000E+00  0.00000000000E+00  0.45593999997E+02  0.45594000000E+02  0.51100000000E-03 0.  1.
         11   -1    0    0    0    0 -0.00000000000E+00 -0.00000000000E+00 -0.45593999997E+02  0.45594000000E+02  0.51100000000E-03 0. -1.
    9900012    2    1    2    0    0  0.90956473045E+00 -0.67270438666E+00  0.33775492973E+00  0.90007357131E+02  0.89999613445E+02 0.  0.
        -12    1    1    2    0    0 -0.90956473045E+00  0.67270438666E+00 -0.33775492973E+00  0.11806428686E+01  0.00000000000E+00 0.  1.
         11    1    3    3    0    0 -0.32413003529E+01  0.20342542824E+01 -0.14380618691E+02  0.14881075656E+02  0.51100000000E-03 0. -1.
        -11    1    3    3    0    0  0.10950547478E+02  0.26648157213E+02  0.29783419601E+02  0.41437795022E+02  0.51100000000E-03 0.  1.
         12    1    3    3    0    0 -0.67996823942E+01 -0.29355115882E+02 -0.15065045980E+02  0.33688486453E+02  0.00000000000E+00 0. -1.
</event>
<event>
 7    1  0.5622809E-015  0.9000776E+02  0.7816164E-02  0.1186339E+00
        -11   -1    0    0    0    0  0.00000000000E+00  0.00000000000E+00  0.45593999997E+02  0.45594000000E+02  0.51100000000E-03 0. -1.
         11   -1    0    0    0    0 -0.00000000000E+00 -0.00000000000E+00 -0.45593999997E+02  0.45594000000E+02  0.51100000000E-03 0.  1.
    9900012    2    1    2    0    0  0.41535887723E+00  0.51936999195E+00  0.97504334835E+00  0.90007755230E+02  0.90000016799E+02 0.  0.
        -12    1    1    2    0    0 -0.41535887723E+00 -0.51936999195E+00 -0.97504334835E+00  0.11802447698E+01  0.00000000000E+00 0.  1.
         11    1    3    3    0    0 -0.40563892162E+01 -0.67620903661E+01  0.53681316432E+01  0.95392346230E+01  0.51100000000E-03 0. -1.
        -11    1    3    3    0    0 -0.27822046945E+02  0.25328584726E+02  0.12708060046E+02  0.39712696846E+02  0.51100000000E-03 0.  1.
         12    1    3    3    0    0  0.32293795038E+02 -0.18047124368E+02 -0.17101148340E+02  0.40755823761E+02  0.00000000000E+00 0. -1.
</event>
<event>
 7    1  0.4555057E-015  0.9000773E+02  0.7816164E-02  0.1186339E+00
        -11   -1    0    0    0    0  0.00000000000E+00  0.00000000000E+00  0.45593999997E+02  0.45594000000E+02  0.51100000000E-03 0.  1.
         11   -1    0    0    0    0 -0.00000000000E+00 -0.00000000000E+00 -0.45593999997E+02  0.45594000000E+02  0.51100000000E-03 0. -1.
    9900012    2    1    2    0    0 -0.29734623002E+00 -0.10621302612E+01  0.42010805116E+00  0.90007734671E+02  0.89999995969E+02 0.  0.
        -12    1    1    2    0    0  0.29734623002E+00  0.10621302612E+01 -0.42010805116E+00  0.11802653291E+01  0.00000000000E+00 0.  1.
         11    1    3    3    0    0  0.70185231085E+01 -0.16731564916E+02 -0.35746972266E+02  0.40088040082E+02  0.51100000000E-03 0. -1.
        -11    1    3    3    0    0 -0.89882113737E+01  0.38383352699E+01 -0.19565920815E+01  0.99673975629E+01  0.51100000000E-03 0.  1.
        -12    1    3    3    0    0  0.16723420352E+01  0.11831099384E+02  0.38123672399E+02  0.39952297026E+02  0.00000000000E+00 0.  1.
</event>
<event>
 7    1  0.4555057E-015  0.9000776E+02  0.7816164E-02  0.1186339E+00
        -11   -1    0    0    0    0  0.00000000000E+00  0.00000000000E+00  0.45593999997E+02  0.45594000000E+02  0.51100000000E-03 0. -1.
         11   -1    0    0    0    0 -0.00000000000E+00 -0.00000000000E+00 -0.45593999997E+02  0.45594000000E+02  0.51100000000E-03 0.  1.
    9900012    2    1    2    0    0 -0.91528614544E+00  0.16858505892E+00  0.72580761606E+00  0.90007760047E+02  0.90000021680E+02 0.  0.
        -12    1    1    2    0    0  0.91528614544E+00 -0.16858505892E+00 -0.72580761606E+00  0.11802399526E+01  0.00000000000E+00 0.  1.
         11    1    3    3    0    0  0.51503492723E+01 -0.38015667913E+02 -0.16701092561E+01  0.38399301682E+02  0.51100000000E-03 0. -1.
        -11    1    3    3    0    0 -0.54171533204E+01 -0.44947079064E+01 -0.45237317151E+01  0.83673232370E+01  0.51100000000E-03 0.  1.
        -12    1    3    3    0    0 -0.64848209738E+00  0.42678960878E+02  0.69196485873E+01  0.43241135129E+02  0.00000000000E+00 0.  1.
</event>
<event>
 7    1  0.4555057E-015  0.9000771E+02  0.7816164E-02  0.1186339E+00
        -11   -1    0    0    0    0  0.00000000000E+00  0.00000000000E+00  0.45593999997E+02  0.45594000000E+02  0.51100000000E-03 0.  1.
         11   -1    0    0    0    0 -0.00000000000E+00 -0.00000000000E+00 -0.45593999997E+02  0.45594000000E+02  0.51100000000E-03 0. -1.
    9900012    2    1    2    0    0  0.36245450239E-01 -0.98291912348E+00 -0.65241866225E+00  0.90007706034E+02  0.89999966953E+02 0.  0.
        -12    1    1    2    0    0 -0.36245450239E-01  0.98291912348E+00  0.65241866225E+00  0.11802939663E+01  0.00000000000E+00 0.  1.
         11    1    3    3    0    0  0.21289474722E+02 -0.12184098467E+02 -0.29358930436E+02  0.38257558547E+02  0.51100000000E-03 0. -1.
        -11    1    3    3    0    0 -0.36219947253E+01  0.57111123914E+00 -0.84834069987E+01  0.92419266609E+01  0.51100000000E-03 0.  1.
        -12    1    3    3    0    0 -0.17631234546E+02  0.10630068104E+02  0.37189918772E+02  0.42508220826E+02  0.00000000000E+00 0.  1.
</event>
<event>
 7    1  0.4555057E-015  0.9000775E+02  0.7816164E-02  0.1186339E+00
        -11   -1    0    0    0    0  0.00000000000E+00  0.00000000000E+00  0.45593999997E+02  0.45594000000E+02  0.51100000000E-03 0.  1.
         11   -1    0    0    0    0 -0.00000000000E+00 -0.00000000000E+00 -0.45593999997E+02  0.45594000000E+02  0.51100000000E-03 0. -1.
    9900012    2    1    2    0    0  0.28262583086E+00  0.89214172202E-01 -0.11424288553E+01  0.90007754170E+02  0.90000015725E+02 0.  0.
        -12    1    1    2    0    0 -0.28262583086E+00 -0.89214172202E-01  0.11424288553E+01  0.11802458296E+01  0.00000000000E+00 0.  1.
         11    1    3    3    0    0  0.67508384702E+01 -0.21236248444E+02 -0.33337233019E+02  0.40098917362E+02  0.51100000000E-03 0. -1.
        -11    1    3    3    0    0  0.12361398716E+01  0.83317994647E+01 -0.49779109558E+01  0.97839931443E+01  0.51100000000E-03 0.  1.
        -12    1    3    3    0    0 -0.77043525109E+01  0.12993663151E+02  0.37172715119E+02  0.40124843664E+02  0.00000000000E+00 0.  1.
</event>
<event>
 7    1  0.4555057E-015  0.9000797E+02  0.7816164E-02  0.1186339E+00
        -11   -1    0    0    0    0  0.00000000000E+00  0.00000000000E+00  0.45593999997E+02  0.45594000000E+02  0.51100000000E-03 0. -1.
         11   -1    0    0    0    0 -0.00000000000E+00 -0.00000000000E+00 -0.45593999997E+02  0.45594000000E+02  0.51100000000E-03 0.  1.
    9900012    2    1    2    0    0 -0.51665040386E+00 -0.82561293026E+00  0.66627159715E+00  0.90007965174E+02  0.90000229514E+02 0.  0.
        -12    1    1    2    0    0  0.51665040386E+00  0.82561293026E+00 -0.66627159715E+00  0.11800348264E+01  0.00000000000E+00 0.  1.
         11    1    3    3    0    0 -0.39733317451E+02  0.55964122446E+01 -0.20220885208E+01  0.40176425773E+02  0.51100000000E-03 0. -1.
        -11    1    3    3    0    0  0.56674383366E+01  0.57147571731E+01  0.10578712546E+02  0.13292383768E+02  0.51100000000E-03 0.  1.
        -12    1    3    3    0    0  0.33549228711E+02 -0.12136782348E+02 -0.78903524284E+01  0.36539155632E+02  0.00000000000E+00 0.  1.
</event>
<event>
 7    1  0.4555057E-015  0.9000775E+02  0.7816164E-02  0.1186339E+00
        -11   -1    0    0    0    0  0.00000000000E+00  0.00000000000E+00  0.45593999997E+02  0.45594000000E+02  0.51100000000E-03 0. -1.
         11   -1    0    0    0    0 -0.00000000000E+00 -0.00000000000E+00 -0.45593999997E+02  0.45594000000E+02  0.51100000000E-03 0.  1.
    9900012    2    1    2    0    0  0.57959873066E+00  0.42216052132E+00  0.93746742503E+00  0.90007746058E+02  0.90000007506E+02 0.  0.
        -12    1    1    2    0    0 -0.57959873066E+00 -0.42216052132E+00 -0.93746742503E+00  0.11802539419E+01  0.00000000000E+00 0.  1.
         11    1    3    3    0    0  0.48565938449E+01  0.16148706789E+01  0.65145543351E+01  0.82845476358E+01  0.51100000000E-03 0. -1.
        -11    1    3    3    0    0 -0.45926391202E+00 -0.35426014931E+02  0.18236905613E+02  0.39847185394E+02  0.51100000000E-03 0.  1.
         12    1    3    3    0    0 -0.38177312022E+01  0.34233304773E+02 -0.23813992523E+02  0.41876013028E+02  0.00000000000E+00 0. -1.
</event>
<event>
 8    1  0.4555057E-015  0.9000767E+02  0.7816164E-02  0.1186339E+00
        -11   -1    0    0    0    0  0.00000000000E+00  0.00000000000E+00  0.45593999997E+02  0.45594000000E+02  0.51100000000E-03 0.  1.
         11   -1    0    0    0    0 -0.00000000000E+00 -0.00000000000E+00 -0.45593999997E+02  0.45594000000E+02  0.51100000000E-03 0. -1.
    9900012    2    1    2    0    0 -0.16365648758E+00 -0.59720767590E-01 -0.11673990540E+01  0.90007673534E+02  0.89999934024E+02 0.  0.
         23    2    3    3    0    0 -0.17433037328E+01 -0.21245338871E+02 -0.11738332208E+02  0.66278570568E+02  0.61649468301E+02 0.  0.
        -12    1    1    2    0    0  0.16365648758E+00  0.59720767590E-01  0.11673990540E+01  0.11803264664E+01  0.00000000000E+00 0.  1.
         11    1    4    4    0    0 -0.35050636292E+01  0.17261234126E+02  0.11718506065E+02  0.21155591678E+02  0.51100000000E-03 0.  1.
        -11    1    4    4    0    0  0.17617598964E+01 -0.38506572996E+02 -0.23456838273E+02  0.45122978890E+02  0.51100000000E-03 0. -1.
         12    1    3    3    0    0  0.15796472452E+01  0.21185618103E+02  0.10570933154E+02  0.23729102966E+02  0.00000000000E+00 0. -1.
</event>
<event>
 7    1  0.4555057E-015  0.9000775E+02  0.7816164E-02  0.1186339E+00
        -11   -1    0    0    0    0  0.00000000000E+00  0.00000000000E+00  0.45593999997E+02  0.45594000000E+02  0.51100000000E-03 0.  1.
         11   -1    0    0    0    0 -0.00000000000E+00 -0.00000000000E+00 -0.45593999997E+02  0.45594000000E+02  0.51100000000E-03 0. -1.
    9900012    2    1    2    0    0 -0.68090961829E+00 -0.22036812107E+00 -0.93849856015E+00  0.90007754447E+02  0.90000016006E+02 0.  0.
        -12    1    1    2    0    0  0.68090961829E+00  0.22036812107E+00  0.93849856015E+00  0.11802455526E+01  0.00000000000E+00 0.  1.
         11    1    3    3    0    0  0.13331380777E+02 -0.32703444916E+02 -0.10424581132E+01  0.35331681845E+02  0.51100000000E-03 0. -1.
        -11    1    3    3    0    0  0.28213847557E+01 -0.90944042434E+01 -0.21565957826E+01  0.97631606620E+01  0.51100000000E-03 0.  1.
        -12    1    3    3    0    0 -0.16833675151E+02  0.41577481038E+02  0.22605553356E+01  0.44912911941E+02  0.00000000000E+00 0.  1.
</event>
<event>
 7    1  0.4555057E-015  0.9000770E+02  0.7816164E-02  0.1186339E+00
        -11   -1    0    0    0    0  0.00000000000E+00  0.00000000000E+00  0.45593999997E+02  0.45594000000E+02  0.51100000000E-03 0. -1.
         11   -1    0    0    0    0 -0.00000000000E+00 -0.00000000000E+00 -0.45593999997E+02  0.45594000000E+02  0.51100000000E-03 0.  1.
    9900012    2    1    2    0    0  0.26476963072E+00 -0.62398504193E+00 -0.96625592776E+00  0.90007698849E+02  0.89999959673E+02 0.  0.
        -12    1    1    2    0    0 -0.26476963072E+00  0.62398504193E+00  0.96625592776E+00  0.11803011513E+01  0.00000000000E+00 0.  1.
         11    1    3    3    0    0  0.21773171632E+02  0.16126659481E+02 -0.24465464131E+02  0.36506151322E+02  0.51100000000E-03 0. -1.
        -11    1    3    3    0    0  0.97142108988E+01 -0.74197431310E+01 -0.16552532897E+01  0.12335248081E+02  0.51100000000E-03 0.  1.
        -12    1    3    3    0    0 -0.31222612900E+02 -0.93309013923E+01  0.25154461492E+02  0.41166299446E+02  0.00000000000E+00 0.  1.
</event>
<event>
 7    1  0.4902647E-015  0.9000773E+02  0.7816164E-02  0.1186339E+00
        -11   -1    0    0    0    0  0.00000000000E+00  0.00000000000E+00  0.45593999997E+02  0.45594000000E+02  0.51100000000E-03 0. -1.
         11   -1    0    0    0    0 -0.00000000000E+00 -0.00000000000E+00 -0.45593999997E+02  0.45594000000E+02  0.51100000000E-03 0.  1.
    9900012    2    1    2    0    0 -0.17560849885E+00  0.71439393148E+00  0.92295443914E+00  0.90007728027E+02  0.89999989237E+02 0.  0.
        -12    1    1    2    0    0  0.17560849885E+00 -0.71439393148E+00 -0.92295443914E+00  0.11802719733E+01  0.00000000000E+00 0.  1.
         11    1    3    3    0    0  0.57973939226E+01 -0.74877510872E+01 -0.34218507759E+01  0.10069024562E+02  0.51100000000E-03 0. -1.
        -11    1    3    3    0    0 -0.28136891180E+02 -0.16506076004E+02 -0.20455930995E+02  0.38504289416E+02  0.51100000000E-03 0.  1.
         12    1    3    3    0    0  0.22163888758E+02  0.24708221023E+02  0.24800736210E+02  0.41434414049E+02  0.00000000000E+00 0. -1.
</event>
<event>
 7    1  0.4555057E-015  0.9000766E+02  0.7816164E-02  0.1186339E+00
        -11   -1    0    0    0    0  0.00000000000E+00  0.00000000000E+00  0.45593999997E+02  0.45594000000E+02  0.51100000000E-03 0.  1.
         11   -1    0    0    0    0 -0.00000000000E+00 -0.00000000000E+00 -0.45593999997E+02  0.45594000000E+02  0.51100000000E-03 0. -1.
    9900012    2    1    2    0    0 -0.71915666230E-01  0.36422996303E+00 -0.11204303625E+01  0.90007661266E+02  0.89999921595E+02 0.  0.
        -12    1    1    2    0    0  0.71915666230E-01 -0.36422996303E+00  0.11204303625E+01  0.11803387337E+01  0.00000000000E+00 0.  1.
         11    1    3    3    0    0  0.14018514954E+02  0.20789004782E+02  0.27843894651E+02  0.37469773831E+02  0.51100000000E-03 0. -1.
        -11    1    3    3    0    0 -0.75844013329E+01 -0.48439866567E+01  0.79101442120E+01  0.11981557997E+02  0.51100000000E-03 0.  1.
        -12    1    3    3    0    0 -0.65060292872E+01 -0.15580788162E+02 -0.36874469226E+02  0.40556329439E+02  0.00000000000E+00 0.  1.
</event>
<event>
 7    1  0.6764809E-015  0.9000752E+02  0.7816164E-02  0.1186339E+00
        -11   -1    0    0    0    0  0.00000000000E+00  0.00000000000E+00  0.45593999997E+02  0.45594000000E+02  0.51100000000E-03 0. -1.
         11   -1    0    0    0    0 -0.00000000000E+00 -0.00000000000E+00 -0.45593999997E+02  0.45594000000E+02  0.51100000000E-03 0.  1.
    9900012    2    1    2    0    0  0.11522558990E+00 -0.24520759082E+00  0.11489682254E+01  0.90007520571E+02  0.89999779042E+02 0.  0.
        -12    1    1    2    0    0 -0.11522558990E+00  0.24520759082E+00 -0.11489682254E+01  0.11804794289E+01  0.00000000000E+00 0.  1.
         11    1    3    3    0    0 -0.15535865375E+02  0.14776623262E+02  0.28691380495E+02  0.35817691480E+02  0.51100000000E-03 0. -1.
        -11    1    3    3    0    0 -0.86803927465E+00  0.32103116246E+01  0.93063359690E+01  0.98826859880E+01  0.51100000000E-03 0.  1.
        -12    1    3    3    0    0  0.16519130239E+02 -0.18232142477E+02 -0.36848748239E+02  0.44307143103E+02  0.00000000000E+00 0.  1.
</event>
<event>
 7    1  0.4555057E-015  0.9000853E+02  0.7816164E-02  0.1186337E+00
        -11   -1    0    0    0    0  0.00000000000E+00  0.00000000000E+00  0.45593999997E+02  0.45594000000E+02  0.51100000000E-03 0. -1.
         11   -1    0    0    0    0 -0.00000000000E+00 -0.00000000000E+00 -0.45593999997E+02  0.45594000000E+02  0.51100000000E-03 0.  1.
    9900012    2    1    2    0    0 -0.74512505864E+00 -0.11616142909E+00  0.90689202786E+00  0.90008526397E+02  0.90000798142E+02 0.  0.
        -12    1    1    2    0    0  0.74512505864E+00  0.11616142909E+00 -0.90689202786E+00  0.11794736033E+01  0.00000000000E+00 0.  1.
         11    1    3    3    0    0 -0.17333463382E+01  0.39572805923E+01  0.67154581631E+01  0.79851072514E+01  0.51100000000E-03 0. -1.
        -11    1    3    3    0    0 -0.37962348811E+02  0.68368701393E+00  0.10707259708E+02  0.39449369651E+02  0.51100000000E-03 0.  1.
         12    1    3    3    0    0  0.38950570090E+02 -0.47571290353E+01 -0.16515825843E+02  0.42574049494E+02  0.00000000000E+00 0. -1.
</event>
<event>
 7    1  0.4555057E-015  0.9000774E+02  0.7816164E-02  0.1186339E+00
        -11   -1    0    0    0    0  0.00000000000E+00  0.00000000000E+00  0.45593999997E+02  0.45594000000E+02  0.51100000000E-03 0. -1.
         11   -1    0    0    0    0 -0.00000000000E+00 -0.00000000000E+00 -0.45593999997E+02  0.45594000000E+02  0.51100000000E-03 0.  1.
    9900012    2    1    2    0    0 -0.11359516879E+00 -0.96465211852E+00  0.67049425902E+00  0.90007737265E+02  0.89999998597E+02 0.  0.
        -12    1    1    2    0    0  0.11359516879E+00  0.96465211852E+00 -0.67049425902E+00  0.11802627350E+01  0.00000000000E+00 0.  1.
         11    1    3    3    0    0  0.30791291421E+02  0.70691853130E+01  0.64043998867E+01  0.32234970863E+02  0.51100000000E-03 0. -1.
        -11    1    3    3    0    0  0.43050409876E+01 -0.19771913171E+02 -0.11931386509E+00  0.20235517399E+02  0.51100000000E-03 0.  1.
        -12    1    3    3    0    0 -0.35209927577E+02  0.11738075740E+02 -0.56145917626E+01  0.37537249003E+02  0.00000000000E+00 0.  1.
</event>
<event>
 7    1  0.4555057E-015  0.9000791E+02  0.7816164E-02  0.1186339E+00
        -11   -1    0    0    0    0  0.00000000000E+00  0.00000000000E+00  0.45593999997E+02  0.45594000000E+02  0.51100000000E-03 0.  1.
         11   -1    0    0    0    0 -0.00000000000E+00 -0.00000000000E+00 -0.45593999997E+02  0.45594000000E+02  0.51100000000E-03 0. -1.
    9900012    2    1    2    0    0  0.95997843162E+00  0.50812341386E+00 -0.46138004721E+00  0.90007906978E+02  0.90000170550E+02 0.  0.
        -12    1    1    2    0    0 -0.95997843162E+00 -0.50812341386E+00  0.46138004721E+00  0.11800930221E+01  0.00000000000E+00 0.  1.
         11    1    3    3    0    0 -0.10387474698E+02  0.14972001816E+01 -0.33854268420E+02  0.35443655702E+02  0.51100000000E-03 0. -1.
        -11    1    3    3    0    0  0.93601676842E+01 -0.17927557811E+02  0.40506586238E+01  0.20625661291E+02  0.51100000000E-03 0.  1.
        -12    1    3    3    0    0  0.19872854452E+01  0.16938481043E+02  0.29342229749E+02  0.33938589985E+02  0.00000000000E+00 0.  1.
</event>
<event>
 7    1  0.4555057E-015  0.9000770E+02  0.7816164E-02  0.1186339E+00
        -11   -1    0    0    0    0  0.00000000000E+00  0.00000000000E+00  0.45593999997E+02  0.45594000000E+02  0.51100000000E-03 0. -1.
         11   -1    0    0    0    0 -0.00000000000E+00 -0.00000000000E+00 -0.45593999997E+02  0.45594000000E+02  0.51100000000E-03 0.  1.
    9900012    2    1    2    0    0 -0.54414811514E-01  0.73652336633E-01  0.11767377162E+01  0.90007704575E+02  0.89999965475E+02 0.  0.
        -12    1    1    2    0    0  0.54414811514E-01 -0.73652336633E-01 -0.11767377162E+01  0.11802954253E+01  0.00000000000E+00 0.  1.
         11    1    3    3    0    0  0.14465719025E+01  0.29611122502E+01  0.85071538845E+01  0.91231805585E+01  0.51100000000E-03 0. -1.
        -11    1    3    3    0    0 -0.28849155132E+02 -0.29662945727E+02  0.22192907946E+01  0.41437776882E+02  0.51100000000E-03 0.  1.
         12    1    3    3    0    0  0.27348168418E+02  0.26775485814E+02 -0.95497069630E+01  0.39446747134E+02  0.00000000000E+00 0. -1.
</event>
<event>
 7    1  0.4555057E-015  0.9000781E+02  0.7816164E-02  0.1186339E+00
        -11   -1    0    0    0    0  0.00000000000E+00  0.00000000000E+00  0.45593999997E+02  0.45594000000E+02  0.51100000000E-03 0.  1.
         11   -1    0    0    0    0 -0.00000000000E+00 -0.00000000000E+00 -0.45593999997E+02  0.45594000000E+02  0.51100000000E-03 0. -1.
    9900012    2    1    2    0    0  0.40116569786E+00  0.96998333257E+00  0.53949256242E+00  0.90007807724E+02  0.90000069986E+02 0.  0.
        -12    1    1    2    0    0 -0.40116569786E+00 -0.96998333257E+00 -0.53949256242E+00  0.11801922757E+01  0.00000000000E+00 0.  1.
         11    1    3    3    0    0  0.19545598044E+02  0.30030738139E+02  0.34627209498E+01  0.35998139851E+02  0.51100000000E-03 0. -1.
        -11    1    3    3    0    0 -0.46233873988E+01  0.29667054957E-01 -0.17701520960E+02  0.18295366510E+02  0.51100000000E-03 0.  1.
        -12    1    3    3    0    0 -0.14521044948E+02 -0.29090421862E+02  0.14778292573E+02  0.35714301363E+02  0.00000000000E+00 0.  1.
</event>
<event>
 7    1  0.4555057E-015  0.9000764E+02  0.7816164E-02  0.1186339E+00
        -11   -1    0    0    0    0  0.00000000000E+00  0.00000000000E+00  0.45593999997E+02  0.45594000000E+02  0.51100000000E-03 0.  1.
         11   -1    0    0    0    0 -0.00000000000E+00 -0.00000000000E+00 -0.45593999997E+02  0.45594000000E+02  0.51100000000E-03 0. -1.
    9900012    2    1    2    0    0 -0.11588763872E+01 -0.13390279702E+00  0.17979041330E+00  0.90007640295E+02  0.89999900347E+02 0.  0.
        -12    1    1    2    0    0  0.11588763872E+01  0.13390279702E+00 -0.17979041330E+00  0.11803597047E+01  0.00000000000E+00 0.  1.
         11    1    3    3    0    0  0.16915698155E+02 -0.18856214161E+02 -0.26635672063E+02  0.36758083234E+02  0.51100000000E-03 0. -1.
        -11    1    3    3    0    0  0.38566261990E+01  0.33782114317E+01 -0.78974562015E+01  0.94157152056E+01  0.51100000000E-03 0.  1.
        -12    1    3    3    0    0 -0.21931200741E+02  0.15344099932E+02  0.34712918678E+02  0.43833841855E+02  0.00000000000E+00 0.  1.
</event>
<event>
 7    1  0.4555057E-015  0.9000770E+02  0.7816164E-02  0.1186339E+00
        -11   -1    0    0    0    0  0.00000000000E+00  0.00000000000E+00  0.45593999997E+02  0.45594000000E+02  0.51100000000E-03 0. -1.
         11   -1    0    0    0    0 -0.00000000000E+00 -0.00000000000E+00 -0.45593999997E+02  0.45594000000E+02  0.51100000000E-03 0.  1.
    9900012    2    1    2    0    0  0.20349360198E-01  0.33515878978E+00  0.11315318369E+01  0.90007699272E+02  0.89999960102E+02 0.  0.
        -12    1    1    2    0    0 -0.20349360198E-01 -0.33515878978E+00 -0.11315318369E+01  0.11803007281E+01  0.00000000000E+00 0.  1.
         11    1    3    3    0    0  0.35033484246E+02 -0.21945123808E+01 -0.22386234025E+02  0.41632972235E+02  0.51100000000E-03 0. -1.
        -11    1    3    3    0    0  0.37845067043E+00 -0.22405529091E+01  0.98957509759E+01  0.10153284685E+02  0.51100000000E-03 0.  1.
        -12    1    3    3    0    0 -0.35391585557E+02  0.47702240797E+01  0.13622014886E+02  0.38221442353E+02  0.00000000000E+00 0.  1.
</event>
<event>
 7    1  0.4555057E-015  0.9000783E+02  0.7816164E-02  0.1186339E+00
        -11   -1    0    0    0    0  0.00000000000E+00  0.00000000000E+00  0.45593999997E+02  0.45594000000E+02  0.51100000000E-03 0.  1.
         11   -1    0    0    0    0 -0.00000000000E+00 -0.00000000000E+00 -0.45593999997E+02  0.45594000000E+02  0.51100000000E-03 0. -1.
    9900012    2    1    2    0    0 -0.63905552988E+00 -0.94901311275E+00  0.28943769134E+00  0.90007833895E+02  0.90000096502E+02 0.  0.
        -12    1    1    2    0    0  0.63905552988E+00  0.94901311275E+00 -0.28943769134E+00  0.11801661051E+01  0.00000000000E+00 0.  1.
         11    1    3    3    0    0  0.13135928511E+02  0.16285225676E+02 -0.30132371328E+02  0.36684070048E+02  0.51100000000E-03 0. -1.
        -11    1    3    3    0    0  0.41270166222E+01  0.56498167494E+01  0.21981558643E+02  0.23068194904E+02  0.51100000000E-03 0.  1.
        -12    1    3    3    0    0 -0.17902000663E+02 -0.22884055538E+02  0.84402503763E+01  0.30255568943E+02  0.00000000000E+00 0.  1.
</event>
<event>
 7    1  0.4555057E-015  0.9000773E+02  0.7816164E-02  0.1186339E+00
        -11   -1    0    0    0    0  0.00000000000E+00  0.00000000000E+00  0.45593999997E+02  0.45594000000E+02  0.51100000000E-03 0. -1.
         11   -1    0    0    0    0 -0.00000000000E+00 -0.00000000000E+00 -0.45593999997E+02  0.45594000000E+02  0.51100000000E-03 0.  1.
    9900012    2    1    2    0    0  0.11069864246E+01  0.33200673897E+00  0.23954240926E+00  0.90007733935E+02  0.89999995223E+02 0.  0.
        -12    1    1    2    0    0 -0.11069864246E+01 -0.33200673897E+00 -0.23954240926E+00  0.11802660653E+01  0.00000000000E+00 0.  1.
         11    1    3    3    0    0 -0.20818766686E+02  0.26042369763E+02 -0.80132817958E+01  0.34290505312E+02  0.51100000000E-03 0. -1.
        -11    1    3    3    0    0 -0.98509521817E+01  0.45289749029E+01 -0.99440704856E+00  0.10887686540E+02  0.51100000000E-03 0.  1.
        -12    1    3    3    0    0  0.31776705292E+02 -0.30239337927E+02  0.92472312537E+01  0.44829542082E+02  0.00000000000E+00 0.  1.
</event>
<event>
 7    1  0.4555057E-015  0.9000770E+02  0.7816164E-02  0.1186339E+00
        -11   -1    0    0    0    0  0.00000000000E+00  0.00000000000E+00  0.45593999997E+02  0.45594000000E+02  0.51100000000E-03 0.  1.
         11   -1    0    0    0    0 -0.00000000000E+00 -0.00000000000E+00 -0.45593999997E+02  0.45594000000E+02  0.51100000000E-03 0. -1.
    9900012    2    1    2    0    0 -0.15676883072E+00  0.11628621052E+01  0.12757598608E+00  0.90007703269E+02  0.89999964152E+02 0.  0.
        -12    1    1    2    0    0  0.15676883072E+00 -0.11628621052E+01 -0.12757598608E+00  0.11802967315E+01  0.00000000000E+00 0.  1.
         11    1    3    3    0    0  0.15296997235E+02 -0.55023345277E+01 -0.34995375951E+02  0.38586916797E+02  0.51100000000E-03 0. -1.
        -11    1    3    3    0    0 -0.28041814384E+01 -0.79771525807E+01 -0.27495999467E+01  0.88914957664E+01  0.51100000000E-03 0.  1.
        -12    1    3    3    0    0 -0.12649584628E+02  0.14642349214E+02  0.37872551884E+02  0.42529290706E+02  0.00000000000E+00 0.  1.
</event>
<event>
 7    1  0.4555057E-015  0.9000736E+02  0.7816164E-02  0.1186340E+00
        -11   -1    0    0    0    0  0.00000000000E+00  0.00000000000E+00  0.45593999997E+02  0.45594000000E+02  0.51100000000E-03 0.  1.
         11   -1    0    0    0    0 -0.00000000000E+00 -0.00000000000E+00 -0.45593999997E+02  0.45594000000E+02  0.51100000000E-03 0. -1.
    9900012    2    1    2    0    0 -0.92563834728E+00  0.67647127454E+00 -0.28195719005E+00  0.90007356281E+02  0.89999612583E+02 0.  0.
        -12    1    1    2    0    0  0.92563834728E+00 -0.67647127454E+00  0.28195719005E+00  0.11806437194E+01  0.00000000000E+00 0.  1.
         11    1    3    3    0    0 -0.44186112571E+01 -0.82571510342E+01  0.50832121787E+01  0.10655689323E+02  0.51100000000E-03 0. -1.
        -11    1    3    3    0    0  0.17845414747E+02  0.12133222830E+02  0.32341087070E+02  0.38879555512E+02  0.51100000000E-03 0.  1.
         12    1    3    3    0    0 -0.14352441837E+02 -0.31996005215E+01 -0.37706256439E+02  0.40472111445E+02  0.00000000000E+00 0. -1.
</event>
<event>
 7    1  0.4555057E-015  0.9000780E+02  0.7816164E-02  0.1186339E+00
        -11   -1    0    0    0    0  0.00000000000E+00  0.00000000000E+00  0.45593999997E+02  0.45594000000E+02  0.51100000000E-03 0. -1.
         11   -1    0    0    0    0 -0.00000000000E+00 -0.00000000000E+00 -0.45593999997E+02  0.45594000000E+02  0.51100000000E-03 0.  1.
    9900012    2    1    2    0    0 -0.11497204255E+01  0.26449470765E+00 -0.32342019033E-01  0.90007804883E+02  0.90000067108E+02 0.  0.
        -12    1    1    2    0    0  0.11497204255E+01 -0.26449470765E+00  0.32342019033E-01  0.11801951166E+01  0.00000000000E+00 0.  1.
         11    1    3    3    0    0 -0.94913729853E+01  0.29498119260E+02  0.26274062297E+02  0.40626980578E+02  0.51100000000E-03 0. -1.
        -11    1    3    3    0    0 -0.77517057826E+01 -0.34900702157E+01  0.98427446096E+00  0.85579395374E+01  0.51100000000E-03 0.  1.
        -12    1    3    3    0    0  0.16093358342E+02 -0.25743554337E+02 -0.27290678777E+02  0.40822884768E+02  0.00000000000E+00 0.  1.
</event>
<event>
 7    1  0.4555057E-015  0.9000770E+02  0.7816164E-02  0.1186339E+00
        -11   -1    0    0    0    0  0.00000000000E+00  0.00000000000E+00  0.45593999997E+02  0.45594000000E+02  0.51100000000E-03 0.  1.
         11   -1    0    0    0    0 -0.00000000000E+00 -0.00000000000E+00 -0.45593999997E+02  0.45594000000E+02  0.51100000000E-03 0. -1.
    9900012    2    1    2    0    0  0.85769909033E+00 -0.32010318113E+00  0.74497695566E+00  0.90007701546E+02  0.89999962406E+02 0.  0.
        -12    1    1    2    0    0 -0.85769909033E+00  0.32010318113E+00 -0.74497695566E+00  0.11802984540E+01  0.00000000000E+00 0.  1.
         11    1    3    3    0    0  0.19055260631E+02  0.45883912680E+01 -0.37211137423E+02  0.42057401735E+02  0.51100000000E-03 0. -1.
        -11    1    3    3    0    0  0.39041366292E+01 -0.58011798577E+01  0.69152688068E+01  0.98344757609E+01  0.51100000000E-03 0.  1.
        -12    1    3    3    0    0 -0.22101698170E+02  0.89268540848E+00  0.31040845572E+02  0.38115824050E+02  0.00000000000E+00 0.  1.
</event>
<event>
 7    1  0.4555057E-015  0.9000769E+02  0.7816164E-02  0.1186339E+00
        -11   -1    0    0    0    0  0.00000000000E+00  0.00000000000E+00  0.45593999997E+02  0.45594000000E+02  0.51100000000E-03 0.  1.
         11   -1    0    0    0    0 -0.00000000000E+00 -0.00000000000E+00 -0.45593999997E+02  0.45594000000E+02  0.51100000000E-03 0. -1.
    9900012    2    1    2    0    0 -0.92192065729E+00 -0.63518007155E+00  0.37380303058E+00  0.90007694901E+02  0.89999955673E+02 0.  0.
        -12    1    1    2    0    0  0.92192065729E+00  0.63518007155E+00 -0.37380303058E+00  0.11803050992E+01  0.00000000000E+00 0.  1.
         11    1    3    3    0    0  0.54674999972E+01 -0.49197201390E+01  0.57495381144E+01  0.93356516246E+01  0.51100000000E-03 0. -1.
        -11    1    3    3    0    0 -0.25776773803E+02  0.28361090017E+02  0.17583985494E+02  0.42166219190E+02  0.51100000000E-03 0.  1.
         12    1    3    3    0    0  0.19387353149E+02 -0.24076549949E+02 -0.22959720578E+02  0.38505824087E+02  0.00000000000E+00 0. -1.
</event>
<event>
 7    1  0.4555057E-015  0.9000770E+02  0.7816164E-02  0.1186339E+00
        -11   -1    0    0    0    0  0.00000000000E+00  0.00000000000E+00  0.45593999997E+02  0.45594000000E+02  0.51100000000E-03 0.  1.
         11   -1    0    0    0    0 -0.00000000000E+00 -0.00000000000E+00 -0.45593999997E+02  0.45594000000E+02  0.51100000000E-03 0. -1.
    9900012    2    1    2    0    0  0.37051093346E+00 -0.11204172044E+01  0.22152100390E-01  0.90007701826E+02  0.89999962690E+02 0.  0.
        -12    1    1    2    0    0 -0.37051093346E+00  0.11204172044E+01 -0.22152100390E-01  0.11802981739E+01  0.00000000000E+00 0.  1.
         11    1    3    3    0    0 -0.21953093743E+01 -0.15829130141E+01  0.98677101293E+01  0.10232140554E+02  0.51100000000E-03 0. -1.
        -11    1    3    3    0    0 -0.13464368231E+02 -0.11248676426E+02  0.30286690400E+02  0.35001507808E+02  0.51100000000E-03 0.  1.
         12    1    3    3    0    0  0.16030188538E+02  0.11711172235E+02 -0.40132248429E+02  0.44774053465E+02  0.00000000000E+00 0. -1.
</event>
<event>
 7    1  0.4555057E-015  0.9000774E+02  0.7816164E-02  0.1186339E+00
        -11   -1    0    0    0    0  0.00000000000E+00  0.00000000000E+00  0.45593999997E+02  0.45594000000E+02  0.51100000000E-03 0.  1.
         11   -1    0    0    0    0 -0.00000000000E+00 -0.00000000000E+00 -0.45593999997E+02  0.45594000000E+02  0.51100000000E-03 0. -1.
    9900012    2    1    2    0    0 -0.79004222200E+00 -0.76157907791E+00 -0.43455742542E+00  0.90007741740E+02  0.90000003131E+02 0.  0.
        -12    1    1    2    0    0  0.79004222200E+00  0.76157907791E+00  0.43455742542E+00  0.11802582601E+01  0.00000000000E+00 0.  1.
         11    1    3    3    0    0  0.11504131309E+02  0.98205536455E+01  0.86915582784E+01  0.17445099502E+02  0.51100000000E-03 0. -1.
        -11    1    3    3    0    0 -0.52675171843E+00 -0.70948755336E+01  0.30375887889E+02  0.31197905243E+02  0.51100000000E-03 0.  1.
         12    1    3    3    0    0 -0.11767421812E+02 -0.34872571898E+01 -0.39502003593E+02  0.41364736995E+02  0.00000000000E+00 0. -1.
</event>
<event>
 7    1  0.4555057E-015  0.9000682E+02  0.7816164E-02  0.1186341E+00
        -11   -1    0    0    0    0  0.00000000000E+00  0.00000000000E+00  0.45593999997E+02  0.45594000000E+02  0.51100000000E-03 0. -1.
         11   -1    0    0    0    0 -0.00000000000E+00 -0.00000000000E+00 -0.45593999997E+02  0.45594000000E+02  0.51100000000E-03 0.  1.
    9900012    2    1    2    0    0  0.53706424921E+00 -0.16280238119E+00  0.10393458403E+01  0.90006821606E+02  0.89999070846E+02 0.  0.
        -12    1    1    2    0    0 -0.53706424921E+00  0.16280238119E+00 -0.10393458403E+01  0.11811783942E+01  0.00000000000E+00 0.  1.
         11    1    3    3    0    0 -0.18654358147E+02 -0.18758005883E+02  0.23982943652E+02  0.35707554509E+02  0.51100000000E-03 0. -1.
        -11    1    3    3    0    0 -0.69264289456E+01 -0.41878847102E+01  0.52278889826E+01  0.96355913030E+01  0.51100000000E-03 0.  1.
        -12    1    3    3    0    0  0.26117851342E+02  0.22783088212E+02 -0.28171486794E+02  0.44663675793E+02  0.00000000000E+00 0.  1.
</event>
<event>
 7    1  0.4555057E-015  0.9000768E+02  0.7816164E-02  0.1186339E+00
        -11   -1    0    0    0    0  0.00000000000E+00  0.00000000000E+00  0.45593999997E+02  0.45594000000E+02  0.51100000000E-03 0. -1.
         11   -1    0    0    0    0 -0.00000000000E+00 -0.00000000000E+00 -0.45593999997E+02  0.45594000000E+02  0.51100000000E-03 0.  1.
    9900012    2    1    2    0    0 -0.82176040789E+00  0.48231327827E+00  0.69659502263E+00  0.90007677632E+02  0.89999938177E+02 0.  0.
        -12    1    1    2    0    0  0.82176040789E+00 -0.48231327827E+00 -0.69659502263E+00  0.11803223678E+01  0.00000000000E+00 0.  1.
         11    1    3    3    0    0  0.66153728139E+01  0.32866390962E+01 -0.37444144953E+01  0.82816540733E+01  0.51100000000E-03 0. -1.
        -11    1    3    3    0    0  0.20084292321E+01  0.79644502225E+01 -0.36988796763E+02  0.37889805246E+02  0.51100000000E-03 0.  1.
         12    1    3    3    0    0 -0.94455624539E+01 -0.10768776040E+02  0.41429806281E+02  0.43836218313E+02  0.00000000000E+00 0. -1.
</event>
<event>
 7    1  0.4555057E-015  0.9000767E+02  0.7816164E-02  0.1186339E+00
        -11   -1    0    0    0    0  0.00000000000E+00  0.00000000000E+00  0.45593999997E+02  0.45594000000E+02  0.51100000000E-03 0.  1.
         11   -1    0    0    0    0 -0.00000000000E+00 -0.00000000000E+00 -0.45593999997E+02  0.45594000000E+02  0.51100000000E-03 0. -1.
    9900012    2    1    2    0    0 -0.59780621419E+00 -0.91798034311E+00 -0.43944340758E+00  0.90007673482E+02  0.89999933972E+02 0.  0.
        -12    1    1    2    0    0  0.59780621419E+00  0.91798034311E+00  0.43944340758E+00  0.11803265178E+01  0.00000000000E+00 0.  1.
         11    1    3    3    0    0  0.31634050914E+02 -0.96372165262E+01 -0.20469328729E+02  0.38891934106E+02  0.51100000000E-03 0. -1.
        -11    1    3    3    0    0  0.65166815384E+01 -0.26051045142E-01  0.63610058945E+01  0.91066027245E+01  0.51100000000E-03 0.  1.
        -12    1    3    3    0    0 -0.38748538666E+02  0.87452872282E+01  0.13668879427E+02  0.42009136652E+02  0.00000000000E+00 0.  1.
</event>
<event>
 7    1  0.4555057E-015  0.9000776E+02  0.7816164E-02  0.1186339E+00
        -11   -1    0    0    0    0  0.00000000000E+00  0.00000000000E+00  0.45593999997E+02  0.45594000000E+02  0.51100000000E-03 0.  1.
         11   -1    0    0    0    0 -0.00000000000E+00 -0.00000000000E+00 -0.45593999997E+02  0.45594000000E+02  0.51100000000E-03 0. -1.
    9900012    2    1    2    0    0 -0.11508523466E+01  0.22691569974E+00 -0.13042911774E+00  0.90007761205E+02  0.90000022853E+02 0.  0.
        -12    1    1    2    0    0  0.11508523466E+01 -0.22691569974E+00  0.13042911774E+00  0.11802387950E+01  0.00000000000E+00 0.  1.
         11    1    3    3    0    0  0.14414029201E+01  0.19215174463E+02 -0.36083640581E+02  0.40906352683E+02  0.51100000000E-03 0. -1.
        -11    1    3    3    0    0 -0.10241930412E+02 -0.75222671810E+01  0.25428243821E+01  0.12959459796E+02  0.51100000000E-03 0.  1.
        -12    1    3    3    0    0  0.76496751448E+01 -0.11465991582E+02  0.33410387081E+02  0.36141948726E+02  0.00000000000E+00 0.  1.
</event>
<event>
 7    1  0.4555057E-015  0.9000674E+02  0.7816164E-02  0.1186341E+00
        -11   -1    0    0    0    0  0.00000000000E+00  0.00000000000E+00  0.45593999997E+02  0.45594000000E+02  0.51100000000E-03 0. -1.
         11   -1    0    0    0    0 -0.00000000000E+00 -0.00000000000E+00 -0.45593999997E+02  0.45594000000E+02  0.51100000000E-03 0.  1.
    9900012    2    1    2    0    0  0.42850811219E+00  0.38648213583E+00  0.10307172820E+01  0.90006743991E+02  0.89998992206E+02 0.  0.
        -12    1    1    2    0    0 -0.42850811219E+00 -0.38648213583E+00 -0.10307172820E+01  0.11812560091E+01  0.00000000000E+00 0.  1.
         11    1    3    3    0    0  0.87931121509E+01 -0.24655143925E+01 -0.12537206180E+01  0.92178846905E+01  0.51100000000E-03 0. -1.
        -11    1    3    3    0    0 -0.27179903150E+02  0.21649864021E+02 -0.24906736383E+02  0.42752886041E+02  0.51100000000E-03 0.  1.
         12    1    3    3    0    0  0.18815299111E+02 -0.18797867492E+02  0.27191174283E+02  0.38035973259E+02  0.00000000000E+00 0. -1.
</event>
<event>
 7    1  0.4555057E-015  0.9000781E+02  0.7816164E-02  0.1186339E+00
        -11   -1    0    0    0    0  0.00000000000E+00  0.00000000000E+00  0.45593999997E+02  0.45594000000E+02  0.51100000000E-03 0. -1.
         11   -1    0    0    0    0 -0.00000000000E+00 -0.00000000000E+00 -0.45593999997E+02  0.45594000000E+02  0.51100000000E-03 0.  1.
    9900012    2    1    2    0    0 -0.95791199286E+00 -0.21050020292E+00  0.65645845829E+00  0.90007812121E+02  0.90000074441E+02 0.  0.
        -12    1    1    2    0    0  0.95791199286E+00  0.21050020292E+00 -0.65645845829E+00  0.11801878787E+01  0.00000000000E+00 0.  1.
         11    1    3    3    0    0  0.19141626454E+02  0.14311601472E+02  0.11620283528E+02  0.26575454644E+02  0.51100000000E-03 0. -1.
        -11    1    3    3    0    0  0.35135286284E+01  0.19146103166E+02 -0.10898349892E+02  0.22309015677E+02  0.51100000000E-03 0.  1.
        -12    1    3    3    0    0 -0.23613067075E+02 -0.33668204840E+02 -0.65475177994E-01  0.41123341801E+02  0.00000000000E+00 0.  1.
</event>
<event>
 7    1  0.4555057E-015  0.9000772E+02  0.7816164E-02  0.1186339E+00
        -11   -1    0    0    0    0  0.00000000000E+00  0.00000000000E+00  0.45593999997E+02  0.45594000000E+02  0.51100000000E-03 0.  1.
         11   -1    0    0    0    0 -0.00000000000E+00 -0.00000000000E+00 -0.45593999997E+02  0.45594000000E+02  0.51100000000E-03 0. -1.
    9900012    2    1    2    0    0 -0.99037331799E+00  0.30697381037E+00 -0.56390231447E+00  0.90007721198E+02  0.89999982318E+02 0.  0.
        -12    1    1    2    0    0  0.99037331799E+00 -0.30697381037E+00  0.56390231447E+00  0.11802788016E+01  0.00000000000E+00 0.  1.
         11    1    3    3    0    0  0.12834628674E+01  0.19962418989E+01 -0.11851010469E+02  0.12086302497E+02  0.51100000000E-03 0. -1.
        -11    1    3    3    0    0  0.35537192610E+02 -0.82899333961E+00 -0.64842664408E+01  0.36133433273E+02  0.51100000000E-03 0.  1.
         12    1    3    3    0    0 -0.37811028795E+02 -0.86027474890E+00  0.17771374595E+02  0.41787985429E+02  0.00000000000E+00 0. -1.
</event>
<event>
 7    1  0.4555057E-015  0.9000774E+02  0.7816164E-02  0.1186339E+00
        -11   -1    0    0    0    0  0.00000000000E+00  0.00000000000E+00  0.45593999997E+02  0.45594000000E+02  0.51100000000E-03 0. -1.
         11   -1    0    0    0    0 -0.00000000000E+00 -0.00000000000E+00 -0.45593999997E+02  0.45594000000E+02  0.51100000000E-03 0.  1.
    9900012    2    1    2    0    0  0.31934015715E+00  0.10853843106E+01  0.33611262733E+00  0.90007742004E+02  0.90000003399E+02 0.  0.
        -12    1    1    2    0    0 -0.31934015715E+00 -0.10853843106E+01 -0.33611262733E+00  0.11802579955E+01  0.00000000000E+00 0.  1.
         11    1    3    3    0    0  0.80636712382E+01  0.24865405218E+02  0.94003952265E+01  0.27779103678E+02  0.51100000000E-03 0. -1.
        -11    1    3    3    0    0 -0.27326564363E+01  0.18513368738E+02 -0.14050608116E+00  0.18714485712E+02  0.51100000000E-03 0.  1.
        -12    1    3    3    0    0 -0.50116746448E+01 -0.42293389645E+02 -0.89237765180E+01  0.43514152615E+02  0.00000000000E+00 0.  1.
</event>
<event>
 7    1  0.4983024E-015  0.9000772E+02  0.7816164E-02  0.1186339E+00
        -11   -1    0    0    0    0  0.00000000000E+00  0.00000000000E+00  0.45593999997E+02  0.45594000000E+02  0.51100000000E-03 0. -1.
         11   -1    0    0    0    0 -0.00000000000E+00 -0.00000000000E+00 -0.45593999997E+02  0.45594000000E+02  0.51100000000E-03 0.  1.
    9900012    2    1    2    0    0 -0.10233939621E+01  0.32859493583E-01  0.58707455967E+00  0.90007715506E+02  0.89999976551E+02 0.  0.
        -12    1    1    2    0    0  0.10233939621E+01 -0.32859493583E-01 -0.58707455967E+00  0.11802844939E+01  0.00000000000E+00 0.  1.
         11    1    3    3    0    0 -0.38512674489E+01 -0.84490673726E+01  0.35214830687E+02  0.36418447262E+02  0.51100000000E-03 0. -1.
        -11    1    3    3    0    0 -0.50118394526E+01  0.34642449427E+01  0.79442873011E+01  0.10011554760E+02  0.51100000000E-03 0.  1.
        -12    1    3    3    0    0  0.78397129394E+01  0.50176819235E+01 -0.42572043428E+02  0.43577713484E+02  0.00000000000E+00 0.  1.
</event>
<event>
 7    1  0.4555057E-015  0.9000784E+02  0.7816164E-02  0.1186339E+00
        -11   -1    0    0    0    0  0.00000000000E+00  0.00000000000E+00  0.45593999997E+02  0.45594000000E+02  0.51100000000E-03 0.  1.
         11   -1    0    0    0    0 -0.00000000000E+00 -0.00000000000E+00 -0.45593999997E+02  0.45594000000E+02  0.51100000000E-03 0. -1.
    9900012    2    1    2    0    0 -0.58023432104E+00  0.11213985591E+00 -0.10215294485E+01  0.90007843388E+02  0.90000106121E+02 0.  0.
        -12    1    1    2    0    0  0.58023432104E+00 -0.11213985591E+00  0.10215294485E+01  0.11801566120E+01  0.00000000000E+00 0.  1.
         11    1    3    3    0    0  0.11284587099E+02  0.28411827517E+02 -0.20698589814E+02  0.36918903957E+02  0.51100000000E-03 0. -1.
        -11    1    3    3    0    0  0.17696131554E+01  0.91953305106E+01  0.46577874183E+01  0.10458518911E+02  0.51100000000E-03 0.  1.
        -12    1    3    3    0    0 -0.13634434575E+02 -0.37495018171E+02  0.15019272947E+02  0.42630420520E+02  0.00000000000E+00 0.  1.
</event>
<event>
 7    1  0.4555057E-015  0.9000765E+02  0.7816164E-02  0.1186339E+00
        -11   -1    0    0    0    0  0.00000000000E+00  0.00000000000E+00  0.45593999997E+02  0.45594000000E+02  0.51100000000E-03 0.  1.
         11   -1    0    0    0    0 -0.00000000000E+00 -0.00000000000E+00 -0.45593999997E+02  0.45594000000E+02  0.51100000000E-03 0. -1.
    9900012    2    1    2    0    0  0.23727176874E+00 -0.30914420043E+00 -0.11141574903E+01  0.90007654736E+02  0.89999914979E+02 0.  0.
        -12    1    1    2    0    0 -0.23727176874E+00  0.30914420043E+00  0.11141574903E+01  0.11803452640E+01  0.00000000000E+00 0.  1.
         11    1    3    3    0    0  0.16113150344E+02 -0.75748246115E+01 -0.81119880866E+01  0.19565682530E+02  0.51100000000E-03 0. -1.
        -11    1    3    3    0    0  0.16704773843E+02  0.15555294841E+02  0.23698652372E+02  0.32903537671E+02  0.51100000000E-03 0.  1.
         12    1    3    3    0    0 -0.32580652418E+02 -0.82896144299E+01 -0.16700821776E+02  0.37538434535E+02  0.00000000000E+00 0. -1.
</event>
<event>
 7    1  0.4555057E-015  0.9000774E+02  0.7816164E-02  0.1186339E+00
        -11   -1    0    0    0    0  0.00000000000E+00  0.00000000000E+00  0.45593999997E+02  0.45594000000E+02  0.51100000000E-03 0. -1.
         11   -1    0    0    0    0 -0.00000000000E+00 -0.00000000000E+00 -0.45593999997E+02  0.45594000000E+02  0.51100000000E-03 0.  1.
    9900012    2    1    2    0    0  0.11242223003E+01 -0.26592117843E+00 -0.24172071636E+00  0.90007737843E+02  0.89999999183E+02 0.  0.
        -12    1    1    2    0    0 -0.11242223003E+01  0.26592117843E+00  0.24172071636E+00  0.11802621566E+01  0.00000000000E+00 0.  1.
         11    1    3    3    0    0 -0.60180870319E+01  0.38736536068E+01  0.41085282895E+01  0.82524280522E+01  0.51100000000E-03 0. -1.
        -11    1    3    3    0    0  0.14291517912E+02 -0.40054651711E+02  0.76684281968E+01  0.43213740861E+02  0.51100000000E-03 0.  1.
         12    1    3    3    0    0 -0.71492085797E+01  0.35915076926E+02 -0.12018677203E+02  0.38541568930E+02  0.00000000000E+00 0. -1.
</event>
<event>
 7    1  0.4555057E-015  0.9000806E+02  0.7816164E-02  0.1186338E+00
        -11   -1    0    0    0    0  0.00000000000E+00  0.00000000000E+00  0.45593999997E+02  0.45594000000E+02  0.51100000000E-03 0.  1.
         11   -1    0    0    0    0 -0.00000000000E+00 -0.00000000000E+00 -0.45593999997E+02  0.45594000000E+02  0.51100000000E-03 0. -1.
    9900012    2    1    2    0    0 -0.49868064090E+00  0.10630735361E+01  0.11593237044E+00  0.90008064392E+02  0.90000330041E+02 0.  0.
        -12    1    1    2    0    0  0.49868064090E+00 -0.10630735361E+01 -0.11593237044E+00  0.11799356081E+01  0.00000000000E+00 0.  1.
         11    1    3    3    0    0  0.44163518546E+01 -0.56111789083E+01 -0.15748401917E+00  0.71424291331E+01  0.51100000000E-03 0. -1.
        -11    1    3    3    0    0 -0.20364422820E+01 -0.33389379584E+02 -0.18830267696E+02  0.38387195104E+02  0.51100000000E-03 0.  1.
         12    1    3    3    0    0 -0.28785902135E+01  0.40063632029E+02  0.19103684086E+02  0.44478440155E+02  0.00000000000E+00 0. -1.
</event>
<event>
 7    1  0.4555057E-015  0.9000775E+02  0.7816164E-02  0.1186339E+00
        -11   -1    0    0    0    0  0.00000000000E+00  0.00000000000E+00  0.45593999997E+02  0.45594000000E+02  0.51100000000E-03 0.  1.
         11   -1    0    0    0    0 -0.00000000000E+00 -0.00000000000E+00 -0.45593999997E+02  0.45594000000E+02  0.51100000000E-03 0. -1.
    9900012    2    1    2    0    0  0.10878203961E+01  0.38082066625E+00 -0.25418594874E+00  0.90007750835E+02  0.90000012346E+02 0.  0.
        -12    1    1    2    0    0 -0.10878203961E+01 -0.38082066625E+00  0.25418594874E+00  0.11802491646E+01  0.00000000000E+00 0.  1.
         11    1    3    3    0    0 -0.26397573700E+00  0.95833399414E+01 -0.19868687334E+01  0.97906963617E+01  0.51100000000E-03 0. -1.
        -11    1    3    3    0    0  0.13065169687E+02  0.33479354829E+02  0.78332854098E+00  0.35946897816E+02  0.51100000000E-03 0.  1.
         12    1    3    3    0    0 -0.11713373554E+02 -0.42681874104E+02  0.94935424371E+00  0.44270156658E+02  0.00000000000E+00 0. -1.
</event>
<event>
 7    1  0.4555057E-015  0.9000789E+02  0.7816164E-02  0.1186339E+00
        -11   -1    0    0    0    0  0.00000000000E+00  0.00000000000E+00  0.45593999997E+02  0.45594000000E+02  0.51100000000E-03 0. -1.
         11   -1    0    0    0    0 -0.00000000000E+00 -0.00000000000E+00 -0.45593999997E+02  0.45594000000E+02  0.51100000000E-03 0.  1.
    9900012    2    1    2    0    0  0.11728660900E+01  0.12751777377E+00 -0.27975844263E-01  0.90007890558E+02  0.90000153913E+02 0.  0.
        -12    1    1    2    0    0 -0.11728660900E+01 -0.12751777377E+00  0.27975844263E-01  0.11801094422E+01  0.00000000000E+00 0.  1.
         11    1    3    3    0    0  0.13538426588E+02 -0.10622604687E+02  0.38498855639E+02  0.42169783146E+02  0.51100000000E-03 0. -1.
        -11    1    3    3    0    0 -0.58862174225E+01  0.12570685497E+02 -0.68959841722E+01  0.15499170538E+02  0.51100000000E-03 0.  1.
        -12    1    3    3    0    0 -0.64793430754E+01 -0.18205630365E+01 -0.31630847311E+02  0.32338936873E+02  0.00000000000E+00 0.  1.
</event>
<event>
 7    1  0.4555057E-015  0.9000773E+02  0.7816164E-02  0.1186339E+00
        -11   -1    0    0    0    0  0.00000000000E+00  0.00000000000E+00  0.45593999997E+02  0.45594000000E+02  0.51100000000E-03 0. -1.
         11   -1    0    0    0    0 -0.00000000000E+00 -0.00000000000E+00 -0.45593999997E+02  0.45594000000E+02  0.51100000000E-03 0.  1.
    9900012    2    1    2    0    0  0.42535221630E-01 -0.10377096032E+01  0.56070423570E+00  0.90007728969E+02  0.89999990192E+02 0.  0.
        -12    1    1    2    0    0 -0.42535221630E-01  0.10377096032E+01 -0.56070423570E+00  0.11802710306E+01  0.00000000000E+00 0.  1.
         11    1    3    3    0    0 -0.32282778933E+02  0.16953859780E+02  0.15145859676E+02  0.39484278424E+02  0.51100000000E-03 0. -1.
        -11    1    3    3    0    0  0.35442736646E+01  0.85127120105E+01 -0.34324808031E+01  0.98392106547E+01  0.51100000000E-03 0.  1.
        -12    1    3    3    0    0  0.28781040490E+02 -0.26504281394E+02 -0.11152674638E+02  0.40684239890E+02  0.00000000000E+00 0.  1.
</event>
<event>
 7    1  0.4555057E-015  0.9000765E+02  0.7816164E-02  0.1186339E+00
        -11   -1    0    0    0    0  0.00000000000E+00  0.00000000000E+00  0.45593999997E+02  0.45594000000E+02  0.51100000000E-03 0.  1.
         11   -1    0    0    0    0 -0.00000000000E+00 -0.00000000000E+00 -0.45593999997E+02  0.45594000000E+02  0.51100000000E-03 0. -1.
    9900012    2    1    2    0    0 -0.62219973463E+00  0.71326537598E+00 -0.70522006480E+00  0.90007654565E+02  0.89999914805E+02 0.  0.
        -12    1    1    2    0    0  0.62219973463E+00 -0.71326537598E+00  0.70522006480E+00  0.11803454351E+01  0.00000000000E+00 0.  1.
         11    1    3    3    0    0 -0.15668493007E+02 -0.25364577208E+02 -0.29714595006E+02  0.42092999497E+02  0.51100000000E-03 0. -1.
        -11    1    3    3    0    0  0.71467764561E+01 -0.31425967782E+01  0.49040625240E+01  0.92196614756E+01  0.51100000000E-03 0.  1.
        -12    1    3    3    0    0  0.78995168157E+01  0.29220439362E+02  0.24105312417E+02  0.38694993593E+02  0.00000000000E+00 0.  1.
</event>
<event>
 7    1  0.4555057E-015  0.9000770E+02  0.7816164E-02  0.1186339E+00
        -11   -1    0    0    0    0  0.00000000000E+00  0.00000000000E+00  0.45593999997E+02  0.45594000000E+02  0.51100000000E-03 0.  1.
         11   -1    0    0    0    0 -0.00000000000E+00 -0.00000000000E+00 -0.45593999997E+02  0.45594000000E+02  0.51100000000E-03 0. -1.
    9900012    2    1    2    0    0  0.85882056629E-01 -0.11207457943E+01 -0.36007947862E+00  0.90007701693E+02  0.89999962555E+02 0.  0.
        -12    1    1    2    0    0 -0.85882056629E-01  0.11207457943E+01  0.36007947862E+00  0.11802983072E+01  0.00000000000E+00 0.  1.
         11    1    3    3    0    0 -0.13587919578E+01 -0.90538989989E+01 -0.36181890114E+02  0.37322226289E+02  0.51100000000E-03 0. -1.
        -11    1    3    3    0    0 -0.50524472819E+01 -0.11270179186E+02  0.99870120541E+00  0.12391189079E+02  0.51100000000E-03 0.  1.
        -12    1    3    3    0    0  0.64971212963E+01  0.19203332391E+02  0.34823109430E+02  0.40294286325E+02  0.00000000000E+00 0.  1.
</event>
<event>
 7    1  0.4555057E-015  0.9000777E+02  0.7816164E-02  0.1186339E+00
        -11   -1    0    0    0    0  0.00000000000E+00  0.00000000000E+00  0.45593999997E+02  0.45594000000E+02  0.51100000000E-03 0. -1.
         11   -1    0    0    0    0 -0.00000000000E+00 -0.00000000000E+00 -0.45593999997E+02  0.45594000000E+02  0.51100000000E-03 0.  1.
    9900012    2    1    2    0    0 -0.25321064800E-01 -0.46951780237E+00  0.10825268482E+01  0.90007765913E+02  0.90000027623E+02 0.  0.
        -12    1    1    2    0    0  0.25321064800E-01  0.46951780237E+00 -0.10825268482E+01  0.11802340870E+01  0.00000000000E+00 0.  1.
         11    1    3    3    0    0 -0.66484333514E+01 -0.19557120583E+01 -0.63431039329E+01  0.93947561675E+01  0.51100000000E-03 0. -1.
        -11    1    3    3    0    0 -0.31420075843E+02 -0.49484647486E+01  0.22741325820E+02  0.39100848707E+02  0.51100000000E-03 0.  1.
         12    1    3    3    0    0  0.38043188129E+02  0.64346590045E+01 -0.15315695039E+02  0.41512161038E+02  0.00000000000E+00 0. -1.
</event>
<event>
 7    1  0.4555057E-015  0.9000748E+02  0.7816164E-02  0.1186340E+00
        -11   -1    0    0    0    0  0.00000000000E+00  0.00000000000E+00  0.45593999997E+02  0.45594000000E+02  0.51100000000E-03 0.  1.
         11   -1    0    0    0    0 -0.00000000000E+00 -0.00000000000E+00 -0.45593999997E+02  0.45594000000E+02  0.51100000000E-03 0. -1.
    9900012    2    1    2    0    0 -0.19754988833E-01 -0.99872908640E+00 -0.62911512523E+00  0.90007476435E+02  0.89999734323E+02 0.  0.
        -12    1    1    2    0    0  0.19754988833E-01  0.99872908640E+00  0.62911512523E+00  0.11805235654E+01  0.00000000000E+00 0.  1.
         11    1    3    3    0    0  0.29570695795E+01  0.17414015453E+02  0.44470186783E+01  0.18214504388E+02  0.51100000000E-03 0. -1.
        -11    1    3    3    0    0 -0.35649880788E+02 -0.39581232692E+01 -0.33184505507E+01  0.36022116183E+02  0.51100000000E-03 0.  1.
         12    1    3    3    0    0  0.32673056219E+02 -0.14454621271E+02 -0.17576832528E+01  0.35770855864E+02  0.00000000000E+00 0. -1.
</event>
<event>
 7    1  0.4555057E-015  0.9000770E+02  0.7816164E-02  0.1186339E+00
        -11   -1    0    0    0    0  0.00000000000E+00  0.00000000000E+00  0.45593999997E+02  0.45594000000E+02  0.51100000000E-03 0. -1.
         11   -1    0    0    0    0 -0.00000000000E+00 -0.00000000000E+00 -0.45593999997E+02  0.45594000000E+02  0.51100000000E-03 0.  1.
    9900012    2    1    2    0    0 -0.49469799136E+00 -0.91572219574E+00  0.55662140125E+00  0.90007703162E+02  0.89999964043E+02 0.  0.
        -12    1    1    2    0    0  0.49469799136E+00  0.91572219574E+00 -0.55662140125E+00  0.11802968384E+01  0.00000000000E+00 0.  1.
         11    1    3    3    0    0  0.33982413187E+02  0.16893203794E+01  0.15404425006E+02  0.37349089940E+02  0.51100000000E-03 0. -1.
        -11    1    3    3    0    0  0.24195646298E+01 -0.53095412820E+00  0.85618553319E+01  0.89130001834E+01  0.51100000000E-03 0.  1.
        -12    1    3    3    0    0 -0.36896675808E+02 -0.20740884469E+01 -0.23409658937E+02  0.43745613038E+02  0.00000000000E+00 0.  1.
</event>
<event>
 7    1  0.4555057E-015  0.9000783E+02  0.7816164E-02  0.1186339E+00
        -11   -1    0    0    0    0  0.00000000000E+00  0.00000000000E+00  0.45593999997E+02  0.45594000000E+02  0.51100000000E-03 0. -1.
         11   -1    0    0    0    0 -0.00000000000E+00 -0.00000000000E+00 -0.45593999997E+02  0.45594000000E+02  0.51100000000E-03 0.  1.
    9900012    2    1    2    0    0  0.89392585476E+00  0.25525256442E+00  0.72700710612E+00  0.90007831945E+02  0.90000094527E+02 0.  0.
        -12    1    1    2    0    0 -0.89392585476E+00 -0.25525256442E+00 -0.72700710612E+00  0.11801680549E+01  0.00000000000E+00 0.  1.
         11    1    3    3    0    0  0.28965596615E+02  0.20162157328E+02  0.25826610123E+02  0.43732506973E+02  0.51100000000E-03 0. -1.
        -11    1    3    3    0    0  0.58936373040E+00 -0.73748223792E+01 -0.67172502673E+01  0.99928377424E+01  0.51100000000E-03 0.  1.
        -12    1    3    3    0    0 -0.28661034491E+02 -0.12532082384E+02 -0.18382352750E+02  0.36282487230E+02  0.00000000000E+00 0.  1.
</event>
<event>
 7    1  0.4555057E-015  0.9000745E+02  0.7816164E-02  0.1186340E+00
        -11   -1    0    0    0    0  0.00000000000E+00  0.00000000000E+00  0.45593999997E+02  0.45594000000E+02  0.51100000000E-03 0. -1.
         11   -1    0    0    0    0 -0.00000000000E+00 -0.00000000000E+00 -0.45593999997E+02  0.45594000000E+02  0.51100000000E-03 0.  1.
    9900012    2    1    2    0    0  0.35786761704E+00 -0.87396869278E+00 -0.70839154321E+00  0.90007445433E+02  0.89999702912E+02 0.  0.
        -12    1    1    2    0    0 -0.35786761704E+00  0.87396869278E+00  0.70839154321E+00  0.11805545671E+01  0.00000000000E+00 0.  1.
         11    1    3    3    0    0 -0.77938518143E+01  0.70522387741E+01  0.12345078341E+01  0.10583109547E+02  0.51100000000E-03 0. -1.
        -11    1    3    3    0    0 -0.51700159225E+01  0.95875804375E+01 -0.36702715242E+02  0.38284984912E+02  0.51100000000E-03 0.  1.
         12    1    3    3    0    0  0.13321735354E+02 -0.17513787904E+02  0.34759815865E+02  0.41139350974E+02  0.00000000000E+00 0. -1.
</event>
<event>
 7    1  0.4555057E-015  0.9000772E+02  0.7816164E-02  0.1186339E+00
        -11   -1    0    0    0    0  0.00000000000E+00  0.00000000000E+00  0.45593999997E+02  0.45594000000E+02  0.51100000000E-03 0.  1.
         11   -1    0    0    0    0 -0.00000000000E+00 -0.00000000000E+00 -0.45593999997E+02  0.45594000000E+02  0.51100000000E-03 0. -1.
    9900012    2    1    2    0    0  0.24921280548E+00 -0.23007357159E+00 -0.11304977302E+01  0.90007717835E+02  0.89999978911E+02 0.  0.
        -12    1    1    2    0    0 -0.24921280548E+00  0.23007357159E+00  0.11304977302E+01  0.11802821649E+01  0.00000000000E+00 0.  1.
         11    1    3    3    0    0 -0.84746063132E+01  0.95770332774E+01 -0.93297124731E+00  0.12822205511E+02  0.51100000000E-03 0. -1.
        -11    1    3    3    0    0  0.16820380068E+02 -0.18273256849E+02  0.33389814609E+02  0.41613901781E+02  0.51100000000E-03 0.  1.
         12    1    3    3    0    0 -0.80965609495E+01  0.84661500000E+01 -0.33587341092E+02  0.35571610543E+02  0.00000000000E+00 0. -1.
</event>
<event>
 7    1  0.4555057E-015  0.9000778E+02  0.7816164E-02  0.1186339E+00
        -11   -1    0    0    0    0  0.00000000000E+00  0.00000000000E+00  0.45593999997E+02  0.45594000000E+02  0.51100000000E-03 0.  1.
         11   -1    0    0    0    0 -0.00000000000E+00 -0.00000000000E+00 -0.45593999997E+02  0.45594000000E+02  0.51100000000E-03 0. -1.
    9900012    2    1    2    0    0 -0.63736314563E-01  0.88943605018E+00 -0.77315284288E+00  0.90007777935E+02  0.90000039803E+02 0.  0.
        -12    1    1    2    0    0  0.63736314563E-01 -0.88943605018E+00  0.77315284288E+00  0.11802220654E+01  0.00000000000E+00 0.  1.
         11    1    3    3    0    0 -0.80473828637E+01  0.16564581879E+02 -0.26062179606E+02  0.31912112902E+02  0.51100000000E-03 0. -1.
        -11    1    3    3    0    0  0.16478569835E+02 -0.10808319255E+02 -0.95558478820E+01  0.21901535515E+02  0.51100000000E-03 0.  1.
        -12    1    3    3    0    0 -0.84949232854E+01 -0.48668265736E+01  0.34844874645E+02  0.36194129518E+02  0.00000000000E+00 0.  1.
</event>
<event>
 7    1  0.4555057E-015  0.9000779E+02  0.7816164E-02  0.1186339E+00
        -11   -1    0    0    0    0  0.00000000000E+00  0.00000000000E+00  0.45593999997E+02  0.45594000000E+02  0.51100000000E-03 0. -1.
         11   -1    0    0    0    0 -0.00000000000E+00 -0.00000000000E+00 -0.45593999997E+02  0.45594000000E+02  0.51100000000E-03 0.  1.
    9900012    2    1    2    0    0  0.38859098606E+00  0.31683671439E+00  0.10684082313E+01  0.90007794676E+02  0.90000056766E+02 0.  0.
        -12    1    1    2    0    0 -0.38859098606E+00 -0.31683671439E+00 -0.10684082313E+01  0.11802053240E+01  0.00000000000E+00 0.  1.
         11    1    3    3    0    0  0.91302498767E+01 -0.36008101422E+01  0.29986776593E+01  0.10262522324E+02  0.51100000000E-03 0. -1.
        -11    1    3    3    0    0 -0.18085315022E+02 -0.30261265352E+02  0.17474218671E+02  0.39346805697E+02  0.51100000000E-03 0.  1.
         12    1    3    3    0    0  0.93436561314E+01  0.34178912209E+02 -0.19404488099E+02  0.40398466655E+02  0.00000000000E+00 0. -1.
</event>
<event>
 7    1  0.4555057E-015  0.9000776E+02  0.7816164E-02  0.1186339E+00
        -11   -1    0    0    0    0  0.00000000000E+00  0.00000000000E+00  0.45593999997E+02  0.45594000000E+02  0.51100000000E-03 0.  1.
         11   -1    0    0    0    0 -0.00000000000E+00 -0.00000000000E+00 -0.45593999997E+02  0.45594000000E+02  0.51100000000E-03 0. -1.
    9900012    2    1    2    0    0  0.39038569971E+00  0.96897911866E+00 -0.54923282535E+00  0.90007755016E+02  0.90000016582E+02 0.  0.
        -12    1    1    2    0    0 -0.39038569971E+00 -0.96897911866E+00  0.54923282535E+00  0.11802449845E+01  0.00000000000E+00 0.  1.
         11    1    3    3    0    0  0.13690727669E+02  0.34355237451E+02 -0.14940673999E+02  0.39886615603E+02  0.51100000000E-03 0. -1.
        -11    1    3    3    0    0 -0.20077745998E+01  0.53654099159E+01 -0.26445863252E+01  0.63097242017E+01  0.51100000000E-03 0.  1.
        -12    1    3    3    0    0 -0.11292567369E+02 -0.38751668249E+02  0.17036027499E+02  0.43811415211E+02  0.00000000000E+00 0.  1.
</event>
<event>
 7    1  0.4555057E-015  0.9000748E+02  0.7816164E-02  0.1186340E+00
        -11   -1    0    0    0    0  0.00000000000E+00  0.00000000000E+00  0.45593999997E+02  0.45594000000E+02  0.51100000000E-03 0. -1.
         11   -1    0    0    0    0 -0.00000000000E+00 -0.00000000000E+00 -0.45593999997E+02  0.45594000000E+02  0.51100000000E-03 0.  1.
    9900012    2    1    2    0    0 -0.71486543227E+00  0.57039474079E+00  0.74648189577E+00  0.90007484025E+02  0.89999742014E+02 0.  0.
        -12    1    1    2    0    0  0.71486543227E+00 -0.57039474079E+00 -0.74648189577E+00  0.11805159750E+01  0.00000000000E+00 0.  1.
         11    1    3    3    0    0  0.95795194908E+01  0.20040617105E+02 -0.58490426148E+01  0.22969650136E+02  0.51100000000E-03 0. -1.
        -11    1    3    3    0    0 -0.18189319817E+02 -0.21024515838E+02 -0.23178524767E+02  0.36195657643E+02  0.51100000000E-03 0.  1.
         12    1    3    3    0    0  0.78949348937E+01  0.15542934738E+01  0.29774049277E+02  0.30842176245E+02  0.00000000000E+00 0. -1.
</event>
<event>
 7    1  0.4555057E-015  0.9000757E+02  0.7816164E-02  0.1186339E+00
        -11   -1    0    0    0    0  0.00000000000E+00  0.00000000000E+00  0.45593999997E+02  0.45594000000E+02  0.51100000000E-03 0.  1.
         11   -1    0    0    0    0 -0.00000000000E+00 -0.00000000000E+00 -0.45593999997E+02  0.45594000000E+02  0.51100000000E-03 0. -1.
    9900012    2    1    2    0    0  0.69512944530E+00 -0.77981184793E+00 -0.54964604274E+00  0.90007566929E+02  0.89999826012E+02 0.  0.
        -12    1    1    2    0    0 -0.69512944530E+00  0.77981184793E+00  0.54964604274E+00  0.11804330715E+01  0.00000000000E+00 0.  1.
         11    1    3    3    0    0  0.29411218535E+01 -0.35137704750E+01 -0.93671488460E+01  0.10427859726E+02  0.51100000000E-03 0. -1.
        -11    1    3    3    0    0  0.30703449959E+02  0.12262888046E+02 -0.16497944942E+02  0.36949458050E+02  0.51100000000E-03 0.  1.
         12    1    3    3    0    0 -0.32949442367E+02 -0.95289294189E+01  0.25315447746E+02  0.42630249152E+02  0.00000000000E+00 0. -1.
</event>
<event>
 7    1  0.4555057E-015  0.9000790E+02  0.7816164E-02  0.1186339E+00
        -11   -1    0    0    0    0  0.00000000000E+00  0.00000000000E+00  0.45593999997E+02  0.45594000000E+02  0.51100000000E-03 0.  1.
         11   -1    0    0    0    0 -0.00000000000E+00 -0.00000000000E+00 -0.45593999997E+02  0.45594000000E+02  0.51100000000E-03 0. -1.
    9900012    2    1    2    0    0  0.10050032472E+01 -0.89090988972E-01 -0.61210998133E+00  0.90007895191E+02  0.90000158607E+02 0.  0.
        -12    1    1    2    0    0 -0.10050032472E+01  0.89090988972E-01  0.61210998133E+00  0.11801048091E+01  0.00000000000E+00 0.  1.
         11    1    3    3    0    0 -0.11129605583E+02 -0.36362405042E+02 -0.29103503192E+01  0.38138730447E+02  0.51100000000E-03 0. -1.
        -11    1    3    3    0    0 -0.84155327532E+01 -0.16564212262E+01  0.15973456474E+01  0.87244734040E+01  0.51100000000E-03 0.  1.
        -12    1    3    3    0    0  0.20550141583E+02  0.37929735279E+02  0.70089469053E+00  0.43144691340E+02  0.00000000000E+00 0.  1.
</event>
<event>
 7    1  0.4555057E-015  0.9000777E+02  0.7816164E-02  0.1186339E+00
        -11   -1    0    0    0    0  0.00000000000E+00  0.00000000000E+00  0.45593999997E+02  0.45594000000E+02  0.51100000000E-03 0.  1.
         11   -1    0    0    0    0 -0.00000000000E+00 -0.00000000000E+00 -0.45593999997E+02  0.45594000000E+02  0.51100000000E-03 0. -1.
    9900012    2    1    2    0    0 -0.98326033315E+00 -0.18489414204E-01 -0.65253301619E+00  0.90007770328E+02  0.90000032096E+02 0.  0.
        -12    1    1    2    0    0  0.98326033315E+00  0.18489414204E-01  0.65253301619E+00  0.11802296719E+01  0.00000000000E+00 0.  1.
         11    1    3    3    0    0  0.21279655908E+02  0.15057588729E+02 -0.25473454735E+02  0.36447930398E+02  0.51100000000E-03 0. -1.
        -11    1    3    3    0    0 -0.65823707100E+00  0.25353742701E+01 -0.92074763477E+01  0.95728271522E+01  0.51100000000E-03 0.  1.
        -12    1    3    3    0    0 -0.21604679170E+02 -0.17611452414E+02  0.34028398066E+02  0.43987012778E+02  0.00000000000E+00 0.  1.
</event>
<event>
 7    1  0.4555057E-015  0.9000789E+02  0.7816164E-02  0.1186339E+00
        -11   -1    0    0    0    0  0.00000000000E+00  0.00000000000E+00  0.45593999997E+02  0.45594000000E+02  0.51100000000E-03 0.  1.
         11   -1    0    0    0    0 -0.00000000000E+00 -0.00000000000E+00 -0.45593999997E+02  0.45594000000E+02  0.51100000000E-03 0. -1.
    9900012    2    1    2    0    0 -0.10264758462E+01 -0.41733529039E+00 -0.40600091133E+00  0.90007890621E+02  0.90000153977E+02 0.  0.
        -12    1    1    2    0    0  0.10264758462E+01  0.41733529039E+00  0.40600091133E+00  0.11801093795E+01  0.00000000000E+00 0.  1.
         11    1    3    3    0    0  0.34476588305E+02 -0.16211560574E+02 -0.22207665931E+02  0.44097962127E+02  0.51100000000E-03 0. -1.
        -11    1    3    3    0    0 -0.58712381356E+01  0.29970292150E+01 -0.60220478113E+00  0.66193860909E+01  0.51100000000E-03 0.  1.
        -12    1    3    3    0    0 -0.29631826015E+02  0.12797196069E+02  0.22403869801E+02  0.39290542403E+02  0.00000000000E+00 0.  1.
</event>
<event>
 7    1  0.4555057E-015  0.9000775E+02  0.7816164E-02  0.1186339E+00
        -11   -1    0    0    0    0  0.00000000000E+00  0.00000000000E+00  0.45593999997E+02  0.45594000000E+02  0.51100000000E-03 0.  1.
         11   -1    0    0    0    0 -0.00000000000E+00 -0.00000000000E+00 -0.45593999997E+02  0.45594000000E+02  0.51100000000E-03 0. -1.
    9900012    2    1    2    0    0 -0.48900149735E+00 -0.10672320046E+01  0.12203218391E+00  0.90007746438E+02  0.90000007891E+02 0.  0.
        -12    1    1    2    0    0  0.48900149735E+00  0.10672320046E+01 -0.12203218391E+00  0.11802535617E+01  0.00000000000E+00 0.  1.
         11    1    3    3    0    0 -0.10110025298E+01 -0.15352249326E-01 -0.70677050268E+01  0.71396650071E+01  0.51100000000E-03 0. -1.
        -11    1    3    3    0    0 -0.34131127894E+02 -0.15468196938E+02 -0.13718726903E+02  0.39904917941E+02  0.51100000000E-03 0.  1.
         12    1    3    3    0    0  0.34653128926E+02  0.14416317182E+02  0.20908464114E+02  0.42963163490E+02  0.00000000000E+00 0. -1.
</event>
<event>
 7    1  0.4555057E-015  0.9000775E+02  0.7816164E-02  0.1186339E+00
        -11   -1    0    0    0    0  0.00000000000E+00  0.00000000000E+00  0.45593999997E+02  0.45594000000E+02  0.51100000000E-03 0.  1.
         11   -1    0    0    0    0 -0.00000000000E+00 -0.00000000000E+00 -0.45593999997E+02  0.45594000000E+02  0.51100000000E-03 0. -1.
    9900012    2    1    2    0    0  0.55981759283E+00  0.57463685702E+00 -0.86566955647E+00  0.90007751282E+02  0.90000012799E+02 0.  0.
        -12    1    1    2    0    0 -0.55981759283E+00 -0.57463685702E+00  0.86566955647E+00  0.11802487177E+01  0.00000000000E+00 0.  1.
         11    1    3    3    0    0  0.50961860039E+01 -0.16879816615E+02 -0.37349231222E+02  0.41302111252E+02  0.51100000000E-03 0. -1.
        -11    1    3    3    0    0 -0.55460837588E+01  0.58727070543E+01 -0.21515880526E+01  0.83592502423E+01  0.51100000000E-03 0.  1.
        -12    1    3    3    0    0  0.10097153477E+01  0.11581746418E+02  0.38635149718E+02  0.40346389788E+02  0.00000000000E+00 0.  1.
</event>
<event>
 7    1  0.4555057E-015  0.9000746E+02  0.7816164E-02  0.1186340E+00
        -11   -1    0    0    0    0  0.00000000000E+00  0.00000000000E+00  0.45593999997E+02  0.45594000000E+02  0.51100000000E-03 0. -1.
         11   -1    0    0    0    0 -0.00000000000E+00 -0.00000000000E+00 -0.45593999997E+02  0.45594000000E+02  0.51100000000E-03 0.  1.
    9900012    2    1    2    0    0 -0.49874747823E+00 -0.83825773483E+00  0.66502173533E+00  0.90007458181E+02  0.89999715829E+02 0.  0.
        -12    1    1    2    0    0  0.49874747823E+00  0.83825773483E+00 -0.66502173533E+00  0.11805418186E+01  0.00000000000E+00 0.  1.
         11    1    3    3    0    0  0.38983710148E+01  0.33373720951E+02 -0.11239199437E+02  0.35430525693E+02  0.51100000000E-03 0. -1.
        -11    1    3    3    0    0 -0.48711178485E+01  0.59791272716E+01  0.12139768969E+02  0.14382341357E+02  0.51100000000E-03 0.  1.
        -12    1    3    3    0    0  0.47399935544E+00 -0.40191105957E+02 -0.23554779628E+00  0.40194591131E+02  0.00000000000E+00 0.  1.
</event>
<event>
 7    1  0.4555057E-015  0.9000771E+02  0.7816164E-02  0.1186339E+00
        -11   -1    0    0    0    0  0.00000000000E+00  0.00000000000E+00  0.45593999997E+02  0.45594000000E+02  0.51100000000E-03 0. -1.
         11   -1    0    0    0    0 -0.00000000000E+00 -0.00000000000E+00 -0.45593999997E+02  0.45594000000E+02  0.51100000000E-03 0.  1.
    9900012    2    1    2    0    0 -0.11549450567E+01  0.22284915266E+00 -0.97600540198E-01  0.90007709487E+02  0.89999970453E+02 0.  0.
        -12    1    1    2    0    0  0.11549450567E+01 -0.22284915266E+00  0.97600540198E-01  0.11802905127E+01  0.00000000000E+00 0.  1.
         11    1    3    3    0    0 -0.32302229891E+02 -0.16034910141E+01  0.18293968656E+02  0.37157428985E+02  0.51100000000E-03 0. -1.
        -11    1    3    3    0    0 -0.65402280408E+01  0.96525596344E+00  0.51724585394E+01  0.83940830055E+01  0.51100000000E-03 0.  1.
        -12    1    3    3    0    0  0.37687512875E+02  0.86108420333E+00 -0.23564027736E+02  0.44456197496E+02  0.00000000000E+00 0.  1.
</event>
<event>
 7    1  0.6273883E-015  0.9000764E+02  0.7816164E-02  0.1186339E+00
        -11   -1    0    0    0    0  0.00000000000E+00  0.00000000000E+00  0.45593999997E+02  0.45594000000E+02  0.51100000000E-03 0. -1.
         11   -1    0    0    0    0 -0.00000000000E+00 -0.00000000000E+00 -0.45593999997E+02  0.45594000000E+02  0.51100000000E-03 0.  1.
    9900012    2    1    2    0    0  0.16192896139E+00  0.51889666983E+00  0.10477483625E+01  0.90007639304E+02  0.89999899342E+02 0.  0.
        -12    1    1    2    0    0 -0.16192896139E+00 -0.51889666983E+00 -0.10477483625E+01  0.11803606964E+01  0.00000000000E+00 0.  1.
         11    1    3    3    0    0  0.42018034602E+01  0.87761193517E+01  0.26706024379E+01  0.10089972291E+02  0.51100000000E-03 0. -1.
        -11    1    3    3    0    0 -0.28064003033E+02  0.22351560529E+02 -0.14837078007E+02  0.38824211626E+02  0.51100000000E-03 0.  1.
         12    1    3    3    0    0  0.24024128534E+02 -0.30608783211E+02  0.13214223932E+02  0.41093455387E+02  0.00000000000E+00 0. -1.
</event>
<event>
 7    1  0.4555057E-015  0.9000770E+02  0.7816164E-02  0.1186339E+00
        -11   -1    0    0    0    0  0.00000000000E+00  0.00000000000E+00  0.45593999997E+02  0.45594000000E+02  0.51100000000E-03 0. -1.
         11   -1    0    0    0    0 -0.00000000000E+00 -0.00000000000E+00 -0.45593999997E+02  0.45594000000E+02  0.51100000000E-03 0.  1.
    9900012    2    1    2    0    0  0.67005947448E+00 -0.96120462080E+00  0.14220730968E+00  0.90007696250E+02  0.89999957041E+02 0.  0.
        -12    1    1    2    0    0 -0.67005947448E+00  0.96120462080E+00 -0.14220730968E+00  0.11803037496E+01  0.00000000000E+00 0.  1.
         11    1    3    3    0    0 -0.12436700287E+02 -0.12968608753E+02  0.30924790907E+02  0.35765891852E+02  0.51100000000E-03 0. -1.
        -11    1    3    3    0    0 -0.21637723216E+01 -0.92637003040E+01  0.43205444434E+01  0.10448213174E+02  0.51100000000E-03 0.  1.
        -12    1    3    3    0    0  0.15270532083E+02  0.21271104437E+02 -0.35103128041E+02  0.43793591224E+02  0.00000000000E+00 0.  1.
</event>
<event>
 7    1  0.4555057E-015  0.9000786E+02  0.7816164E-02  0.1186339E+00
        -11   -1    0    0    0    0  0.00000000000E+00  0.00000000000E+00  0.45593999997E+02  0.45594000000E+02  0.51100000000E-03 0. -1.
         11   -1    0    0    0    0 -0.00000000000E+00 -0.00000000000E+00 -0.45593999997E+02  0.45594000000E+02  0.51100000000E-03 0.  1.
    9900012    2    1    2    0    0  0.89075454119E+00 -0.54712004708E+00 -0.54768312700E+00  0.90007855599E+02  0.90000118493E+02 0.  0.
        -12    1    1    2    0    0 -0.89075454119E+00  0.54712004708E+00  0.54768312700E+00  0.11801444006E+01  0.00000000000E+00 0.  1.
         11    1    3    3    0    0 -0.50244151958E+01 -0.82565116494E+01  0.21156801977E+01  0.98939797673E+01  0.51100000000E-03 0. -1.
        -11    1    3    3    0    0 -0.34925843780E+02 -0.76203926197E+01  0.40531629034E+01  0.35976562888E+02  0.51100000000E-03 0.  1.
         12    1    3    3    0    0  0.40841013517E+02  0.15329784222E+02 -0.67165262281E+01  0.44137312944E+02  0.00000000000E+00 0. -1.
</event>
<event>
 7    1  0.4555057E-015  0.9000766E+02  0.7816164E-02  0.1186339E+00
        -11   -1    0    0    0    0  0.00000000000E+00  0.00000000000E+00  0.45593999997E+02  0.45594000000E+02  0.51100000000E-03 0.  1.
         11   -1    0    0    0    0 -0.00000000000E+00 -0.00000000000E+00 -0.45593999997E+02  0.45594000000E+02  0.51100000000E-03 0. -1.
    9900012    2    1    2    0    0 -0.91999400246E+00 -0.60420748985E+00 -0.42632677198E+00  0.90007656757E+02  0.89999917026E+02 0.  0.
        -12    1    1    2    0    0  0.91999400246E+00  0.60420748985E+00  0.42632677198E+00  0.11803432432E+01  0.00000000000E+00 0.  1.
         11    1    3    3    0    0 -0.24495017411E+02  0.93536828519E+01 -0.26672680251E+02  0.37402261067E+02  0.51100000000E-03 0. -1.
        -11    1    3    3    0    0 -0.97462172998E+01 -0.18877177798E+01  0.89832685144E+00  0.99679095835E+01  0.51100000000E-03 0.  1.
        -12    1    3    3    0    0  0.33321240709E+02 -0.80701725619E+01  0.25348026628E+02  0.42637486106E+02  0.00000000000E+00 0.  1.
</event>
<event>
 7    1  0.4555057E-015  0.9000774E+02  0.7816164E-02  0.1186339E+00
        -11   -1    0    0    0    0  0.00000000000E+00  0.00000000000E+00  0.45593999997E+02  0.45594000000E+02  0.51100000000E-03 0. -1.
         11   -1    0    0    0    0 -0.00000000000E+00 -0.00000000000E+00 -0.45593999997E+02  0.45594000000E+02  0.51100000000E-03 0.  1.
    9900012    2    1    2    0    0 -0.84554677475E+00 -0.64405579587E+00  0.51307768824E+00  0.90007743278E+02  0.90000004689E+02 0.  0.
        -12    1    1    2    0    0  0.84554677475E+00  0.64405579587E+00 -0.51307768824E+00  0.11802567223E+01  0.00000000000E+00 0.  1.
         11    1    3    3    0    0 -0.38523005002E+02 -0.19042822194E+02  0.12736752620E+01  0.42991548477E+02  0.51100000000E-03 0. -1.
        -11    1    3    3    0    0  0.56488771624E+01 -0.48295233454E+01 -0.52625115264E+00  0.74505737683E+01  0.51100000000E-03 0.  1.
        -12    1    3    3    0    0  0.32028581065E+02  0.23228289744E+02 -0.23434642107E+00  0.39565621033E+02  0.00000000000E+00 0.  1.
</event>
<event>
 7    1  0.4555057E-015  0.9000772E+02  0.7816164E-02  0.1186339E+00
        -11   -1    0    0    0    0  0.00000000000E+00  0.00000000000E+00  0.45593999997E+02  0.45594000000E+02  0.51100000000E-03 0.  1.
         11   -1    0    0    0    0 -0.00000000000E+00 -0.00000000000E+00 -0.45593999997E+02  0.45594000000E+02  0.51100000000E-03 0. -1.
    9900012    2    1    2    0    0  0.14918807503E+00  0.11485801821E+01  0.22707183846E+00  0.90007722433E+02  0.89999983569E+02 0.  0.
        -12    1    1    2    0    0 -0.14918807503E+00 -0.11485801821E+01 -0.22707183846E+00  0.11802775674E+01  0.00000000000E+00 0.  1.
         11    1    3    3    0    0 -0.65871898352E+01  0.39280040802E+02 -0.80024205081E+00  0.39836579458E+02  0.51100000000E-03 0. -1.
        -11    1    3    3    0    0 -0.17240877436E+01  0.17885981848E+01  0.83507592529E+01  0.87124475537E+01  0.51100000000E-03 0.  1.
        -12    1    3    3    0    0  0.84604656538E+01 -0.39920058804E+02 -0.73234453636E+01  0.41458695421E+02  0.00000000000E+00 0.  1.
</event>
<event>
 7    1  0.4555057E-015  0.9000770E+02  0.7816164E-02  0.1186339E+00
        -11   -1    0    0    0    0  0.00000000000E+00  0.00000000000E+00  0.45593999997E+02  0.45594000000E+02  0.51100000000E-03 0.  1.
         11   -1    0    0    0    0 -0.00000000000E+00 -0.00000000000E+00 -0.45593999997E+02  0.45594000000E+02  0.51100000000E-03 0. -1.
    9900012    2    1    2    0    0 -0.32200638652E+00  0.35446558287E+00 -0.10787802226E+01  0.90007703117E+02  0.89999963999E+02 0.  0.
        -12    1    1    2    0    0  0.32200638652E+00 -0.35446558287E+00  0.10787802226E+01  0.11802968826E+01  0.00000000000E+00 0.  1.
         11    1    3    3    0    0 -0.92970560860E+01  0.32959610496E+02 -0.23306612510E+02  0.41424260559E+02  0.51100000000E-03 0. -1.
        -11    1    3    3    0    0  0.78710503024E+01 -0.68231794748E+00 -0.23917629954E+01  0.82546666275E+01  0.51100000000E-03 0.  1.
        -12    1    3    3    0    0  0.11039993971E+01 -0.31922826966E+02  0.24619595283E+02  0.40328775931E+02  0.00000000000E+00 0.  1.
</event>
<event>
 7    1  0.4555057E-015  0.9000768E+02  0.7816164E-02  0.1186339E+00
        -11   -1    0    0    0    0  0.00000000000E+00  0.00000000000E+00  0.45593999997E+02  0.45594000000E+02  0.51100000000E-03 0.  1.
         11   -1    0    0    0    0 -0.00000000000E+00 -0.00000000000E+00 -0.45593999997E+02  0.45594000000E+02  0.51100000000E-03 0. -1.
    9900012    2    1    2    0    0 -0.75966712015E+00  0.44472719963E+00 -0.78630232996E+00  0.90007683191E+02  0.89999943809E+02 0.  0.
        -12    1    1    2    0    0  0.75966712015E+00 -0.44472719963E+00  0.78630232996E+00  0.11803168090E+01  0.00000000000E+00 0.  1.
         11    1    3    3    0    0 -0.35933172887E+02 -0.90675221298E+01 -0.11021026227E+02  0.38663624903E+02  0.51100000000E-03 0. -1.
        -11    1    3    3    0    0 -0.50078059587E+01  0.79420947523E+01  0.54296306044E+01  0.10846007484E+02  0.51100000000E-03 0.  1.
        -12    1    3    3    0    0  0.40181311726E+02  0.15701545771E+01  0.48050932924E+01  0.40498050804E+02  0.00000000000E+00 0.  1.
</event>
<event>
 7    1  0.4555057E-015  0.9000774E+02  0.7816164E-02  0.1186339E+00
        -11   -1    0    0    0    0  0.00000000000E+00  0.00000000000E+00  0.45593999997E+02  0.45594000000E+02  0.51100000000E-03 0.  1.
         11   -1    0    0    0    0 -0.00000000000E+00 -0.00000000000E+00 -0.45593999997E+02  0.45594000000E+02  0.51100000000E-03 0. -1.
    9900012    2    1    2    0    0 -0.73311287403E+00  0.85313877164E+00  0.35737927573E+00  0.90007737234E+02  0.89999998566E+02 0.  0.
        -12    1    1    2    0    0  0.73311287403E+00 -0.85313877164E+00 -0.35737927573E+00  0.11802627659E+01  0.00000000000E+00 0.  1.
         11    1    3    3    0    0  0.26047621728E+01  0.91990949129E+01  0.11419136843E+02  0.14893113163E+02  0.51100000000E-03 0. -1.
        -11    1    3    3    0    0  0.34291070747E+02 -0.90567192545E+01  0.13288014183E+01  0.35491793560E+02  0.51100000000E-03 0.  1.
         12    1    3    3    0    0 -0.37628945794E+02  0.71076311324E+00 -0.12390558985E+02  0.39622830511E+02  0.00000000000E+00 0. -1.
</event>
<event>
 7    1  0.4555057E-015  0.9000779E+02  0.7816164E-02  0.1186339E+00
        -11   -1    0    0    0    0  0.00000000000E+00  0.00000000000E+00  0.45593999997E+02  0.45594000000E+02  0.51100000000E-03 0. -1.
         11   -1    0    0    0    0 -0.00000000000E+00 -0.00000000000E+00 -0.45593999997E+02  0.45594000000E+02  0.51100000000E-03 0.  1.
    9900012    2    1    2    0    0 -0.53416104884E+00  0.92179832541E+00 -0.50780252481E+00  0.90007786637E+02  0.90000048620E+02 0.  0.
        -12    1    1    2    0    0  0.53416104884E+00 -0.92179832541E+00  0.50780252481E+00  0.11802133634E+01  0.00000000000E+00 0.  1.
         11    1    3    3    0    0  0.59117556748E+01  0.18845308164E+01 -0.69617718480E+01  0.93255873317E+01  0.51100000000E-03 0. -1.
        -11    1    3    3    0    0  0.19514184938E+02 -0.63571930569E+01 -0.29544144597E+02  0.35973237241E+02  0.51100000000E-03 0.  1.
         12    1    3    3    0    0 -0.25960101661E+02  0.53944605659E+01  0.35998113920E+02  0.44708962064E+02  0.00000000000E+00 0. -1.
</event>
<event>
 7    1  0.4555057E-015  0.9000776E+02  0.7816164E-02  0.1186339E+00
        -11   -1    0    0    0    0  0.00000000000E+00  0.00000000000E+00  0.45593999997E+02  0.45594000000E+02  0.51100000000E-03 0. -1.
         11   -1    0    0    0    0 -0.00000000000E+00 -0.00000000000E+00 -0.45593999997E+02  0.45594000000E+02  0.51100000000E-03 0.  1.
    9900012    2    1    2    0    0 -0.82563874153E+00 -0.51136612448E-01 -0.84182998291E+00  0.90007757650E+02  0.90000019251E+02 0.  0.
        -12    1    1    2    0    0  0.82563874153E+00  0.51136612448E-01  0.84182998291E+00  0.11802423500E+01  0.00000000000E+00 0.  1.
         11    1    3    3    0    0 -0.91535189423E+01 -0.10066541577E+02  0.37409133074E+02  0.39806600030E+02  0.51100000000E-03 0. -1.
        -11    1    3    3    0    0  0.61357051001E+01 -0.79908115613E+01 -0.29257351672E+01  0.10490942427E+02  0.51100000000E-03 0.  1.
        -12    1    3    3    0    0  0.21921751006E+01  0.18006216526E+02 -0.35325227889E+02  0.39710215193E+02  0.00000000000E+00 0.  1.
</event>
<event>
 7    1  0.4555057E-015  0.9000770E+02  0.7816164E-02  0.1186339E+00
        -11   -1    0    0    0    0  0.00000000000E+00  0.00000000000E+00  0.45593999997E+02  0.45594000000E+02  0.51100000000E-03 0.  1.
         11   -1    0    0    0    0 -0.00000000000E+00 -0.00000000000E+00 -0.45593999997E+02  0.45594000000E+02  0.51100000000E-03 0. -1.
    9900012    2    1    2    0    0  0.96897043962E+00  0.42588641524E+00 -0.52233494919E+00  0.90007696331E+02  0.89999957123E+02 0.  0.
        -12    1    1    2    0    0 -0.96897043962E+00 -0.42588641524E+00  0.52233494919E+00  0.11803036688E+01  0.00000000000E+00 0.  1.
         11    1    3    3    0    0  0.58892836627E+01 -0.99180637827E+01  0.36576405890E+01  0.12100825848E+02  0.51100000000E-03 0. -1.
        -11    1    3    3    0    0  0.59384629155E+01 -0.32379476446E+02  0.36982607488E+01  0.33126620256E+02  0.51100000000E-03 0.  1.
         12    1    3    3    0    0 -0.10858776139E+02  0.42723426644E+02 -0.78782362870E+01  0.44780250228E+02  0.00000000000E+00 0. -1.
</event>
<event>
 7    1  0.4555057E-015  0.9000777E+02  0.7816164E-02  0.1186339E+00
        -11   -1    0    0    0    0  0.00000000000E+00  0.00000000000E+00  0.45593999997E+02  0.45594000000E+02  0.51100000000E-03 0. -1.
         11   -1    0    0    0    0 -0.00000000000E+00 -0.00000000000E+00 -0.45593999997E+02  0.45594000000E+02  0.51100000000E-03 0.  1.
    9900012    2    1    2    0    0 -0.18335875753E+00 -0.11093712014E+01  0.35864617653E+00  0.90007766135E+02  0.90000027848E+02 0.  0.
        -12    1    1    2    0    0  0.18335875753E+00  0.11093712014E+01 -0.35864617653E+00  0.11802338651E+01  0.00000000000E+00 0.  1.
         11    1    3    3    0    0 -0.22765060233E+01  0.35406198790E+02  0.66935553148E+01  0.36105194577E+02  0.51100000000E-03 0. -1.
        -11    1    3    3    0    0  0.64935660529E+01  0.67289565099E+01  0.21957846441E+01  0.96055570510E+01  0.51100000000E-03 0.  1.
        -12    1    3    3    0    0 -0.44004187871E+01 -0.43244526501E+02 -0.85306937824E+01  0.44297014507E+02  0.00000000000E+00 0.  1.
</event>
<event>
 7    1  0.4555057E-015  0.9000781E+02  0.7816164E-02  0.1186339E+00
        -11   -1    0    0    0    0  0.00000000000E+00  0.00000000000E+00  0.45593999997E+02  0.45594000000E+02  0.51100000000E-03 0.  1.
         11   -1    0    0    0    0 -0.00000000000E+00 -0.00000000000E+00 -0.45593999997E+02  0.45594000000E+02  0.51100000000E-03 0. -1.
    9900012    2    1    2    0    0  0.51960620924E+00 -0.21100568043E+00 -0.10384303043E+01  0.90007808699E+02  0.90000070974E+02 0.  0.
        -12    1    1    2    0    0 -0.51960620924E+00  0.21100568043E+00  0.10384303043E+01  0.11801913009E+01  0.00000000000E+00 0.  1.
         11    1    3    3    0    0  0.25733074243E+02 -0.83329417711E+01 -0.27954839346E+02  0.38898612722E+02  0.51100000000E-03 0. -1.
        -11    1    3    3    0    0 -0.70627777515E+01 -0.88239731457E+01 -0.35110772672E+01  0.11835243786E+02  0.51100000000E-03 0.  1.
        -12    1    3    3    0    0 -0.18150690283E+02  0.16945909236E+02  0.30427486309E+02  0.39273952191E+02  0.00000000000E+00 0.  1.
</event>
<event>
 7    1  0.4555057E-015  0.9000780E+02  0.7816164E-02  0.1186339E+00
        -11   -1    0    0    0    0  0.00000000000E+00  0.00000000000E+00  0.45593999997E+02  0.45594000000E+02  0.51100000000E-03 0.  1.
         11   -1    0    0    0    0 -0.00000000000E+00 -0.00000000000E+00 -0.45593999997E+02  0.45594000000E+02  0.51100000000E-03 0. -1.
    9900012    2    1    2    0    0 -0.47854441477E+00  0.67362455292E+00 -0.84267165360E+00  0.90007800733E+02  0.90000062902E+02 0.  0.
        -12    1    1    2    0    0  0.47854441477E+00 -0.67362455292E+00  0.84267165360E+00  0.11801992675E+01  0.00000000000E+00 0.  1.
         11    1    3    3    0    0  0.10335605500E+02  0.26971250866E+02  0.24155049423E+02  0.37652882057E+02  0.51100000000E-03 0. -1.
        -11    1    3    3    0    0  0.58964150906E+01  0.65571888479E+01 -0.24787153057E+01  0.91601564580E+01  0.51100000000E-03 0.  1.
        -12    1    3    3    0    0 -0.16710565005E+02 -0.32854815161E+02 -0.22519005771E+02  0.43194762217E+02  0.00000000000E+00 0.  1.
</event>
<event>
 7    1  0.4555057E-015  0.9000785E+02  0.7816164E-02  0.1186339E+00
        -11   -1    0    0    0    0  0.00000000000E+00  0.00000000000E+00  0.45593999997E+02  0.45594000000E+02  0.51100000000E-03 0.  1.
         11   -1    0    0    0    0 -0.00000000000E+00 -0.00000000000E+00 -0.45593999997E+02  0.45594000000E+02  0.51100000000E-03 0. -1.
    9900012    2    1    2    0    0 -0.62517575935E+00 -0.79071003977E+00 -0.61374089201E+00  0.90007853831E+02  0.90000116702E+02 0.  0.
        -12    1    1    2    0    0  0.62517575935E+00  0.79071003977E+00  0.61374089201E+00  0.11801461687E+01  0.00000000000E+00 0.  1.
         11    1    3    3    0    0  0.10091545257E+02  0.49857058508E+01  0.69690048663E+01  0.13238715104E+02  0.51100000000E-03 0. -1.
        -11    1    3    3    0    0 -0.17224594032E+02  0.19891151581E+02  0.23958794069E+02  0.35586069807E+02  0.51100000000E-03 0.  1.
         12    1    3    3    0    0  0.65078730153E+01 -0.25667567471E+02 -0.31541539827E+02  0.41183068921E+02  0.00000000000E+00 0. -1.
</event>
<event>
 7    1  0.4555057E-015  0.9000772E+02  0.7816164E-02  0.1186339E+00
        -11   -1    0    0    0    0  0.00000000000E+00  0.00000000000E+00  0.45593999997E+02  0.45594000000E+02  0.51100000000E-03 0. -1.
         11   -1    0    0    0    0 -0.00000000000E+00 -0.00000000000E+00 -0.45593999997E+02  0.45594000000E+02  0.51100000000E-03 0.  1.
    9900012    2    1    2    0    0 -0.93480806572E+00  0.61746804677E-01 -0.71790548150E+00  0.90007717378E+02  0.89999978447E+02 0.  0.
        -12    1    1    2    0    0  0.93480806572E+00 -0.61746804677E-01  0.71790548150E+00  0.11802826221E+01  0.00000000000E+00 0.  1.
         11    1    3    3    0    0  0.12726651853E+01 -0.27603259850E+02 -0.15899185255E+02  0.31880146220E+02  0.51100000000E-03 0. -1.
        -11    1    3    3    0    0 -0.50412863360E+00 -0.10836290446E+02 -0.77045004948E+01  0.13305587715E+02  0.51100000000E-03 0.  1.
        -12    1    3    3    0    0 -0.17033446174E+01  0.38501297100E+02  0.22885780268E+02  0.44821983443E+02  0.00000000000E+00 0.  1.
</event>
<event>
 7    1  0.4555057E-015  0.9000766E+02  0.7816164E-02  0.1186339E+00
        -11   -1    0    0    0    0  0.00000000000E+00  0.00000000000E+00  0.45593999997E+02  0.45594000000E+02  0.51100000000E-03 0. -1.
         11   -1    0    0    0    0 -0.00000000000E+00 -0.00000000000E+00 -0.45593999997E+02  0.45594000000E+02  0.51100000000E-03 0.  1.
    9900012    2    1    2    0    0 -0.16006633838E+00 -0.51718112948E+00  0.10488640385E+01  0.90007655421E+02  0.89999915673E+02 0.  0.
        -12    1    1    2    0    0  0.16006633838E+00  0.51718112948E+00 -0.10488640385E+01  0.11803445787E+01  0.00000000000E+00 0.  1.
         11    1    3    3    0    0 -0.38033017615E+01 -0.14091700785E+02 -0.78505267454E+00  0.14617025801E+02  0.51100000000E-03 0. -1.
        -11    1    3    3    0    0  0.20980308002E+02 -0.17980100735E+02 -0.19243059952E+02  0.33671244451E+02  0.51100000000E-03 0.  1.
         12    1    3    3    0    0 -0.17337072579E+02  0.31554620390E+02  0.21076976665E+02  0.41719385169E+02  0.00000000000E+00 0. -1.
</event>
<event>
 7    1  0.4555057E-015  0.9000780E+02  0.7816164E-02  0.1186339E+00
        -11   -1    0    0    0    0  0.00000000000E+00  0.00000000000E+00  0.45593999997E+02  0.45594000000E+02  0.51100000000E-03 0.  1.
         11   -1    0    0    0    0 -0.00000000000E+00 -0.00000000000E+00 -0.45593999997E+02  0.45594000000E+02  0.51100000000E-03 0. -1.
    9900012    2    1    2    0    0 -0.11739127946E+01 -0.11974006370E+00  0.21780013341E-01  0.90007795229E+02  0.90000057326E+02 0.  0.
        -12    1    1    2    0    0  0.11739127946E+01  0.11974006370E+00 -0.21780013341E-01  0.11802047708E+01  0.00000000000E+00 0.  1.
         11    1    3    3    0    0 -0.69104289458E+01  0.48925409016E+01 -0.12266286578E+01  0.85554428766E+01  0.51100000000E-03 0. -1.
        -11    1    3    3    0    0  0.35081451553E+02  0.18875284919E+02  0.12878606538E+02  0.41866969444E+02  0.51100000000E-03 0.  1.
         12    1    3    3    0    0 -0.29344935402E+02 -0.23887565884E+02 -0.11630197866E+02  0.39585382908E+02  0.00000000000E+00 0. -1.
</event>
<event>
 7    1  0.4555057E-015  0.9000777E+02  0.7816164E-02  0.1186339E+00
        -11   -1    0    0    0    0  0.00000000000E+00  0.00000000000E+00  0.45593999997E+02  0.45594000000E+02  0.51100000000E-03 0.  1.
         11   -1    0    0    0    0 -0.00000000000E+00 -0.00000000000E+00 -0.45593999997E+02  0.45594000000E+02  0.51100000000E-03 0. -1.
    9900012    2    1    2    0    0  0.10773527531E+01  0.36272199172E+00 -0.31732526566E+00  0.90007766327E+02  0.90000028043E+02 0.  0.
        -12    1    1    2    0    0 -0.10773527531E+01 -0.36272199172E+00  0.31732526566E+00  0.11802336727E+01  0.00000000000E+00 0.  1.
         11    1    3    3    0    0  0.31991835699E+02 -0.18873523452E+02  0.52586792409E+01  0.37514545799E+02  0.51100000000E-03 0. -1.
        -11    1    3    3    0    0  0.87552201215E+01  0.30020981053E+01  0.99480009591E-01  0.92561530315E+01  0.51100000000E-03 0.  1.
        -12    1    3    3    0    0 -0.39669703067E+02  0.16234147338E+02 -0.56754845162E+01  0.43237067497E+02  0.00000000000E+00 0.  1.
</event>
<event>
 7    1  0.4555057E-015  0.9000773E+02  0.7816164E-02  0.1186339E+00
        -11   -1    0    0    0    0  0.00000000000E+00  0.00000000000E+00  0.45593999997E+02  0.45594000000E+02  0.51100000000E-03 0.  1.
         11   -1    0    0    0    0 -0.00000000000E+00 -0.00000000000E+00 -0.45593999997E+02  0.45594000000E+02  0.51100000000E-03 0. -1.
    9900012    2    1    2    0    0 -0.14015240820E+00 -0.11131562419E+01 -0.36643505855E+00  0.90007731315E+02  0.89999992568E+02 0.  0.
        -12    1    1    2    0    0  0.14015240820E+00  0.11131562419E+01  0.36643505855E+00  0.11802686849E+01  0.00000000000E+00 0.  1.
         11    1    3    3    0    0  0.60213009672E+00  0.70954345430E+01 -0.66678896372E+01  0.97554346127E+01  0.51100000000E-03 0. -1.
        -11    1    3    3    0    0 -0.21016038162E+02  0.29896088609E+02 -0.55903966121E+00  0.36548084762E+02  0.51100000000E-03 0.  1.
         12    1    3    3    0    0  0.20273755657E+02 -0.38104679394E+02  0.68604942399E+01  0.43704211941E+02  0.00000000000E+00 0. -1.
</event>
<event>
 7    1  0.4555057E-015  0.9000773E+02  0.7816164E-02  0.1186339E+00
        -11   -1    0    0    0    0  0.00000000000E+00  0.00000000000E+00  0.45593999997E+02  0.45594000000E+02  0.51100000000E-03 0.  1.
         11   -1    0    0    0    0 -0.00000000000E+00 -0.00000000000E+00 -0.45593999997E+02  0.45594000000E+02  0.51100000000E-03 0. -1.
    9900012    2    1    2    0    0  0.11026091860E+01  0.12185179439E+00 -0.40303520551E+00  0.90007732126E+02  0.89999993390E+02 0.  0.
        -12    1    1    2    0    0 -0.11026091860E+01 -0.12185179439E+00  0.40303520551E+00  0.11802678737E+01  0.00000000000E+00 0.  1.
         11    1    3    3    0    0  0.10388334842E+02  0.19544780274E+02 -0.13074877255E+01  0.22172628648E+02  0.51100000000E-03 0. -1.
        -11    1    3    3    0    0 -0.27235133319E+02  0.10623857787E+02  0.11272429620E+02  0.31331876915E+02  0.51100000000E-03 0.  1.
         12    1    3    3    0    0  0.17949407664E+02 -0.30046786267E+02 -0.10367977100E+02  0.36503226564E+02  0.00000000000E+00 0. -1.
</event>
<event>
 7    1  0.4555057E-015  0.9000779E+02  0.7816164E-02  0.1186339E+00
        -11   -1    0    0    0    0  0.00000000000E+00  0.00000000000E+00  0.45593999997E+02  0.45594000000E+02  0.51100000000E-03 0.  1.
         11   -1    0    0    0    0 -0.00000000000E+00 -0.00000000000E+00 -0.45593999997E+02  0.45594000000E+02  0.51100000000E-03 0. -1.
    9900012    2    1    2    0    0 -0.71369190219E+00 -0.23065343331E+00 -0.91122681940E+00  0.90007791775E+02  0.90000053827E+02 0.  0.
        -12    1    1    2    0    0  0.71369190219E+00  0.23065343331E+00  0.91122681940E+00  0.11802082248E+01  0.00000000000E+00 0.  1.
         11    1    3    3    0    0  0.16551591730E+01  0.10696561617E+02 -0.17404653618E+01  0.10962901179E+02  0.51100000000E-03 0. -1.
        -11    1    3    3    0    0  0.35144949488E+02 -0.15449006995E+02 -0.10125731713E+02  0.39703522949E+02  0.51100000000E-03 0.  1.
         12    1    3    3    0    0 -0.37513800563E+02  0.45217919443E+01  0.10954970255E+02  0.39341367647E+02  0.00000000000E+00 0. -1.
</event>
<event>
 7    1  0.4555057E-015  0.9000776E+02  0.7816164E-02  0.1186339E+00
        -11   -1    0    0    0    0  0.00000000000E+00  0.00000000000E+00  0.45593999997E+02  0.45594000000E+02  0.51100000000E-03 0.  1.
         11   -1    0    0    0    0 -0.00000000000E+00 -0.00000000000E+00 -0.45593999997E+02  0.45594000000E+02  0.51100000000E-03 0. -1.
    9900012    2    1    2    0    0 -0.70834693019E+00  0.85957207999E+00  0.39032921656E+00  0.90007755775E+02  0.90000017351E+02 0.  0.
        -12    1    1    2    0    0  0.70834693019E+00 -0.85957207999E+00 -0.39032921656E+00  0.11802442254E+01  0.00000000000E+00 0.  1.
         11    1    3    3    0    0  0.38865185289E+02 -0.94559808066E+01  0.66721864540E+01  0.40551649448E+02  0.51100000000E-03 0. -1.
        -11    1    3    3    0    0  0.33272023409E+00  0.32243407473E+01 -0.82632748365E+01  0.88763048220E+01  0.51100000000E-03 0.  1.
        -12    1    3    3    0    0 -0.39906252454E+02  0.70912121392E+01  0.19814175990E+01  0.40579801505E+02  0.00000000000E+00 0.  1.
</event>
<event>
 7    1  0.4555057E-015  0.9000777E+02  0.7816164E-02  0.1186339E+00
        -11   -1    0    0    0    0  0.00000000000E+00  0.00000000000E+00  0.45593999997E+02  0.45594000000E+02  0.51100000000E-03 0. -1.
         11   -1    0    0    0    0 -0.00000000000E+00 -0.00000000000E+00 -0.45593999997E+02  0.45594000000E+02  0.51100000000E-03 0.  1.
    9900012    2    1    2    0    0 -0.10221817318E+01  0.58100868886E+00 -0.10253613554E+00  0.90007771103E+02  0.90000032882E+02 0.  0.
        -12    1    1    2    0    0  0.10221817318E+01 -0.58100868886E+00  0.10253613554E+00  0.11802288967E+01  0.00000000000E+00 0.  1.
         11    1    3    3    0    0  0.28402868469E+01  0.14053614138E+02  0.38138407073E+02  0.40744440039E+02  0.51100000000E-03 0. -1.
        -11    1    3    3    0    0 -0.16746535234E+01 -0.10116508899E+02  0.54727086161E+00  0.10268774142E+02  0.51100000000E-03 0.  1.
        -12    1    3    3    0    0 -0.21878150553E+01 -0.33560965500E+01 -0.38788214071E+02  0.38994556922E+02  0.00000000000E+00 0.  1.
</event>
<event>
 7    1  0.4555057E-015  0.9000797E+02  0.7816164E-02  0.1186339E+00
        -11   -1    0    0    0    0  0.00000000000E+00  0.00000000000E+00  0.45593999997E+02  0.45594000000E+02  0.51100000000E-03 0.  1.
         11   -1    0    0    0    0 -0.00000000000E+00 -0.00000000000E+00 -0.45593999997E+02  0.45594000000E+02  0.51100000000E-03 0. -1.
    9900012    2    1    2    0    0 -0.10093543873E+01 -0.60469190854E+00  0.89546953968E-01  0.90007971509E+02  0.90000235932E+02 0.  0.
        -12    1    1    2    0    0  0.10093543873E+01  0.60469190854E+00 -0.89546953968E-01  0.11800284913E+01  0.00000000000E+00 0.  1.
         11    1    3    3    0    0  0.60142883189E+01  0.28579848424E+01 -0.37148094899E+02  0.37740173505E+02  0.51100000000E-03 0. -1.
        -11    1    3    3    0    0 -0.23517885376E+01  0.98455459194E+01 -0.22216745123E+01  0.10363470542E+02  0.51100000000E-03 0.  1.
        -12    1    3    3    0    0 -0.46718541686E+01 -0.13308222670E+02  0.39459316365E+02  0.41904327461E+02  0.00000000000E+00 0.  1.
</event>
<event>
 7    1  0.4555057E-015  0.9000780E+02  0.7816164E-02  0.1186339E+00
        -11   -1    0    0    0    0  0.00000000000E+00  0.00000000000E+00  0.45593999997E+02  0.45594000000E+02  0.51100000000E-03 0. -1.
         11   -1    0    0    0    0 -0.00000000000E+00 -0.00000000000E+00 -0.45593999997E+02  0.45594000000E+02  0.51100000000E-03 0.  1.
    9900012    2    1    2    0    0  0.11568294665E+01  0.20927365453E+00  0.10402829745E+00  0.90007800117E+02  0.90000062279E+02 0.  0.
        -12    1    1    2    0    0 -0.11568294665E+01 -0.20927365453E+00 -0.10402829745E+00  0.11801998829E+01  0.00000000000E+00 0.  1.
         11    1    3    3    0    0  0.62532899991E+01  0.52634347811E+00 -0.13964995525E+02  0.15310185287E+02  0.51100000000E-03 0. -1.
        -11    1    3    3    0    0  0.15617347994E+01  0.22977741944E+02 -0.21602360252E+02  0.31576535737E+02  0.51100000000E-03 0.  1.
         12    1    3    3    0    0 -0.66581953321E+01 -0.23294811768E+02  0.35671384074E+02  0.43121079093E+02  0.00000000000E+00 0. -1.
</event>
<event>
 7    1  0.4555057E-015  0.9000775E+02  0.7816164E-02  0.1186339E+00
        -11   -1    0    0    0    0  0.00000000000E+00  0.00000000000E+00  0.45593999997E+02  0.45594000000E+02  0.51100000000E-03 0. -1.
         11   -1    0    0    0    0 -0.00000000000E+00 -0.00000000000E+00 -0.45593999997E+02  0.45594000000E+02  0.51100000000E-03 0.  1.
    9900012    2    1    2    0    0 -0.83620109298E+00 -0.70718542470E+00  0.44004584293E+00  0.90007752637E+02  0.90000014172E+02 0.  0.
        -12    1    1    2    0    0  0.83620109298E+00  0.70718542470E+00 -0.44004584293E+00  0.11802473625E+01  0.00000000000E+00 0.  1.
         11    1    3    3    0    0  0.31334420837E+02 -0.61990044033E+01  0.15963459178E+02  0.35708621003E+02  0.51100000000E-03 0. -1.
        -11    1    3    3    0    0  0.15798421077E+01 -0.35220889919E+01  0.10206973488E+02  0.10912530412E+02  0.51100000000E-03 0.  1.
        -12    1    3    3    0    0 -0.33750464037E+02  0.90139079706E+01 -0.25730386822E+02  0.43386601223E+02  0.00000000000E+00 0.  1.
</event>
<event>
 7    1  0.4555057E-015  0.9000790E+02  0.7816164E-02  0.1186339E+00
        -11   -1    0    0    0    0  0.00000000000E+00  0.00000000000E+00  0.45593999997E+02  0.45594000000E+02  0.51100000000E-03 0.  1.
         11   -1    0    0    0    0 -0.00000000000E+00 -0.00000000000E+00 -0.45593999997E+02  0.45594000000E+02  0.51100000000E-03 0. -1.
    9900012    2    1    2    0    0 -0.22949810245E+00 -0.11561589628E+01  0.57149360610E-01  0.90007898743E+02  0.90000162207E+02 0.  0.
        -12    1    1    2    0    0  0.22949810245E+00  0.11561589628E+01 -0.57149360610E-01  0.11801012565E+01  0.00000000000E+00 0.  1.
         11    1    3    3    0    0  0.26658870340E+02  0.20877766002E+02 -0.24470049269E+02  0.41777503426E+02  0.51100000000E-03 0. -1.
        -11    1    3    3    0    0  0.32733405615E+01 -0.43377631475E+01  0.76953309313E+01  0.94206722668E+01  0.51100000000E-03 0.  1.
        -12    1    3    3    0    0 -0.30161709004E+02 -0.17696161817E+02  0.16831867698E+02  0.38809723051E+02  0.00000000000E+00 0.  1.
</event>
<event>
 7    1  0.4555057E-015  0.9000782E+02  0.7816164E-02  0.1186339E+00
        -11   -1    0    0    0    0  0.00000000000E+00  0.00000000000E+00  0.45593999997E+02  0.45594000000E+02  0.51100000000E-03 0. -1.
         11   -1    0    0    0    0 -0.00000000000E+00 -0.00000000000E+00 -0.45593999997E+02  0.45594000000E+02  0.51100000000E-03 0.  1.
    9900012    2    1    2    0    0 -0.18042277761E+00  0.75177956854E+00  0.89168011918E+00  0.90007822753E+02  0.90000085214E+02 0.  0.
        -12    1    1    2    0    0  0.18042277761E+00 -0.75177956854E+00 -0.89168011918E+00  0.11801772466E+01  0.00000000000E+00 0.  1.
         11    1    3    3    0    0  0.13698984323E+02 -0.35641739547E+02  0.96278793277E+01  0.39378824640E+02  0.51100000000E-03 0. -1.
        -11    1    3    3    0    0 -0.82794657429E+01 -0.37542133027E+01 -0.35616646378E+01  0.97636635421E+01  0.51100000000E-03 0.  1.
        -12    1    3    3    0    0 -0.55999413574E+01  0.40147732419E+02 -0.51745345708E+01  0.40865334571E+02  0.00000000000E+00 0.  1.
</event>
<event>
 7    1  0.4555057E-015  0.9000723E+02  0.7816164E-02  0.1186340E+00
        -11   -1    0    0    0    0  0.00000000000E+00  0.00000000000E+00  0.45593999997E+02  0.45594000000E+02  0.51100000000E-03 0.  1.
         11   -1    0    0    0    0 -0.00000000000E+00 -0.00000000000E+00 -0.45593999997E+02  0.45594000000E+02  0.51100000000E-03 0. -1.
    9900012    2    1    2    0    0 -0.10707248257E+01  0.44934497066E+00 -0.21411787892E+00  0.90007233714E+02  0.89999488398E+02 0.  0.
        -12    1    1    2    0    0  0.10707248257E+01 -0.44934497066E+00  0.21411787892E+00  0.11807662855E+01  0.00000000000E+00 0.  1.
         11    1    3    3    0    0  0.20299588846E+02  0.17759715464E+02 -0.27228117022E+02  0.38325594027E+02  0.51100000000E-03 0. -1.
        -11    1    3    3    0    0  0.34607077201E+01  0.77466033795E+01  0.77329982590E+01  0.11479791992E+02  0.51100000000E-03 0.  1.
        -12    1    3    3    0    0 -0.24831021392E+02 -0.25056973873E+02  0.19281000884E+02  0.40201847696E+02  0.00000000000E+00 0.  1.
</event>
<event>
 7    1  0.4555057E-015  0.9000770E+02  0.7816164E-02  0.1186339E+00
        -11   -1    0    0    0    0  0.00000000000E+00  0.00000000000E+00  0.45593999997E+02  0.45594000000E+02  0.51100000000E-03 0. -1.
         11   -1    0    0    0    0 -0.00000000000E+00 -0.00000000000E+00 -0.45593999997E+02  0.45594000000E+02  0.51100000000E-03 0.  1.
    9900012    2    1    2    0    0  0.11751969397E+01  0.99456596969E-02 -0.10923856003E+00  0.90007695028E+02  0.89999955803E+02 0.  0.
        -12    1    1    2    0    0 -0.11751969397E+01 -0.99456596969E-02  0.10923856003E+00  0.11803049717E+01  0.00000000000E+00 0.  1.
         11    1    3    3    0    0  0.82060313111E+00  0.26457883960E+02  0.19211757253E+02  0.32707562277E+02  0.51100000000E-03 0. -1.
        -11    1    3    3    0    0 -0.77827020898E+01  0.98345028610E+01  0.42883299233E+01  0.13254345406E+02  0.51100000000E-03 0.  1.
        -12    1    3    3    0    0  0.81372958983E+01 -0.36282441161E+02 -0.23609325736E+02  0.44045787345E+02  0.00000000000E+00 0.  1.
</event>
<event>
 7    1  0.4555057E-015  0.9000772E+02  0.7816164E-02  0.1186339E+00
        -11   -1    0    0    0    0  0.00000000000E+00  0.00000000000E+00  0.45593999997E+02  0.45594000000E+02  0.51100000000E-03 0.  1.
         11   -1    0    0    0    0 -0.00000000000E+00 -0.00000000000E+00 -0.45593999997E+02  0.45594000000E+02  0.51100000000E-03 0. -1.
    9900012    2    1    2    0    0 -0.27445425044E+00 -0.11056162198E+01 -0.30880200071E+00  0.90007715697E+02  0.89999976744E+02 0.  0.
        -12    1    1    2    0    0  0.27445425044E+00  0.11056162198E+01  0.30880200071E+00  0.11802843034E+01  0.00000000000E+00 0.  1.
         11    1    3    3    0    0  0.32666610034E+00  0.89846693609E+01 -0.33805695408E+01  0.96051676168E+01  0.51100000000E-03 0. -1.
        -11    1    3    3    0    0 -0.20461128142E+01  0.30716513915E+02 -0.16713714918E+02  0.35029117479E+02  0.51100000000E-03 0.  1.
         12    1    3    3    0    0  0.14449924635E+01 -0.40806799496E+02  0.19785482458E+02  0.45373430600E+02  0.00000000000E+00 0. -1.
</event>
<event>
 7    1  0.4555057E-015  0.9000780E+02  0.7816164E-02  0.1186339E+00
        -11   -1    0    0    0    0  0.00000000000E+00  0.00000000000E+00  0.45593999997E+02  0.45594000000E+02  0.51100000000E-03 0. -1.
         11   -1    0    0    0    0 -0.00000000000E+00 -0.00000000000E+00 -0.45593999997E+02  0.45594000000E+02  0.51100000000E-03 0.  1.
    9900012    2    1    2    0    0 -0.21973155835E+00  0.53883406836E+00  0.10267617796E+01  0.90007803464E+02  0.90000065670E+02 0.  0.
        -12    1    1    2    0    0  0.21973155835E+00 -0.53883406836E+00 -0.10267617796E+01  0.11801965357E+01  0.00000000000E+00 0.  1.
         11    1    3    3    0    0 -0.48995032608E+01  0.37669004923E+02 -0.12422718433E+02  0.39966023040E+02  0.51100000000E-03 0. -1.
        -11    1    3    3    0    0 -0.85222260968E+01  0.22855737259E+00  0.32822601122E+01  0.91353055681E+01  0.51100000000E-03 0.  1.
        -12    1    3    3    0    0  0.13201997799E+02 -0.37358728227E+02  0.10167220100E+02  0.40906474857E+02  0.00000000000E+00 0.  1.
</event>
<event>
 7    1  0.4555057E-015  0.9000786E+02  0.7816164E-02  0.1186339E+00
        -11   -1    0    0    0    0  0.00000000000E+00  0.00000000000E+00  0.45593999997E+02  0.45594000000E+02  0.51100000000E-03 0.  1.
         11   -1    0    0    0    0 -0.00000000000E+00 -0.00000000000E+00 -0.45593999997E+02  0.45594000000E+02  0.51100000000E-03 0. -1.
    9900012    2    1    2    0    0  0.54980162453E-01 -0.73217986462E+00 -0.92391765698E+00  0.90007858479E+02  0.90000121411E+02 0.  0.
        -12    1    1    2    0    0 -0.54980162453E-01  0.73217986462E+00  0.92391765698E+00  0.11801415209E+01  0.00000000000E+00 0.  1.
         11    1    3    3    0    0  0.34013277870E+02  0.14068131880E+01 -0.67672784562E+01  0.34708475230E+02  0.51100000000E-03 0. -1.
        -11    1    3    3    0    0  0.10440545940E+02 -0.17690519105E+01  0.11529837085E+01  0.10651944230E+02  0.51100000000E-03 0.  1.
        -12    1    3    3    0    0 -0.44398843648E+02 -0.36994114213E+00  0.46903770907E+01  0.44647439019E+02  0.00000000000E+00 0.  1.
</event>
<event>
 7    1  0.4555057E-015  0.9000771E+02  0.7816164E-02  0.1186339E+00
        -11   -1    0    0    0    0  0.00000000000E+00  0.00000000000E+00  0.45593999997E+02  0.45594000000E+02  0.51100000000E-03 0.  1.
         11   -1    0    0    0    0 -0.00000000000E+00 -0.00000000000E+00 -0.45593999997E+02  0.45594000000E+02  0.51100000000E-03 0. -1.
    9900012    2    1    2    0    0  0.10462841218E+00  0.10878733648E+01 -0.44572499448E+00  0.90007709217E+02  0.89999970178E+02 0.  0.
        -12    1    1    2    0    0 -0.10462841218E+00 -0.10878733648E+01  0.44572499448E+00  0.11802907833E+01  0.00000000000E+00 0.  1.
         11    1    3    3    0    0  0.58912656668E+01 -0.53650417319E+01  0.63593090388E+01  0.10194679772E+02  0.51100000000E-03 0. -1.
        -11    1    3    3    0    0 -0.26108678379E+02  0.14137566201E+02  0.26666840411E+02  0.39908072398E+02  0.51100000000E-03 0.  1.
         12    1    3    3    0    0  0.20322041124E+02 -0.76846511045E+01 -0.33471874445E+02  0.39904957046E+02  0.00000000000E+00 0. -1.
</event>
<event>
 7    1  0.4555057E-015  0.9000768E+02  0.7816164E-02  0.1186339E+00
        -11   -1    0    0    0    0  0.00000000000E+00  0.00000000000E+00  0.45593999997E+02  0.45594000000E+02  0.51100000000E-03 0. -1.
         11   -1    0    0    0    0 -0.00000000000E+00 -0.00000000000E+00 -0.45593999997E+02  0.45594000000E+02  0.51100000000E-03 0.  1.
    9900012    2    1    2    0    0  0.89842183817E+00 -0.69993522138E+00  0.30996994964E+00  0.90007681194E+02  0.89999941786E+02 0.  0.
        -12    1    1    2    0    0 -0.89842183817E+00  0.69993522138E+00 -0.30996994964E+00  0.11803188057E+01  0.00000000000E+00 0.  1.
         11    1    3    3    0    0  0.20085025359E+02  0.26660248005E+02  0.26772048939E+02  0.42789247154E+02  0.51100000000E-03 0. -1.
        -11    1    3    3    0    0 -0.50829006543E+01 -0.84497939619E+01  0.21932977041E+01  0.10101754904E+02  0.51100000000E-03 0.  1.
        -12    1    3    3    0    0 -0.14103702867E+02 -0.18910389265E+02 -0.28655376693E+02  0.37116679136E+02  0.00000000000E+00 0.  1.
</event>
<event>
 7    1  0.4555057E-015  0.9000770E+02  0.7816164E-02  0.1186339E+00
        -11   -1    0    0    0    0  0.00000000000E+00  0.00000000000E+00  0.45593999997E+02  0.45594000000E+02  0.51100000000E-03 0.  1.
         11   -1    0    0    0    0 -0.00000000000E+00 -0.00000000000E+00 -0.45593999997E+02  0.45594000000E+02  0.51100000000E-03 0. -1.
    9900012    2    1    2    0    0 -0.62411969677E+00  0.31363179662E+00 -0.95142734742E+00  0.90007701607E+02  0.89999962468E+02 0.  0.
        -12    1    1    2    0    0  0.62411969677E+00 -0.31363179662E+00  0.95142734742E+00  0.11802983933E+01  0.00000000000E+00 0.  1.
         11    1    3    3    0    0 -0.60743924262E+01 -0.42591718713E+01  0.54696121579E+01  0.92171278496E+01  0.51100000000E-03 0. -1.
        -11    1    3    3    0    0 -0.22783063668E+02 -0.25093832789E+02  0.11904705848E+02  0.35923397051E+02  0.51100000000E-03 0.  1.
         12    1    3    3    0    0  0.28233336398E+02  0.29666636456E+02 -0.18325745353E+02  0.44867176706E+02  0.00000000000E+00 0. -1.
</event>
<event>
 7    1  0.4555057E-015  0.9000793E+02  0.7816164E-02  0.1186339E+00
        -11   -1    0    0    0    0  0.00000000000E+00  0.00000000000E+00  0.45593999997E+02  0.45594000000E+02  0.51100000000E-03 0.  1.
         11   -1    0    0    0    0 -0.00000000000E+00 -0.00000000000E+00 -0.45593999997E+02  0.45594000000E+02  0.51100000000E-03 0. -1.
    9900012    2    1    2    0    0 -0.16926545755E-01  0.23751128381E+00 -0.11557959961E+01  0.90007931145E+02  0.90000195036E+02 0.  0.
        -12    1    1    2    0    0  0.16926545755E-01 -0.23751128381E+00  0.11557959961E+01  0.11800688549E+01  0.00000000000E+00 0.  1.
         11    1    3    3    0    0  0.56920967002E+01  0.50453254029E+01 -0.44121844995E+01  0.87933296074E+01  0.51100000000E-03 0. -1.
        -11    1    3    3    0    0  0.24572270816E+02  0.81468944352E+01  0.29393255855E+02  0.39167995507E+02  0.51100000000E-03 0.  1.
         12    1    3    3    0    0 -0.30281294062E+02 -0.12954708554E+02 -0.26136867351E+02  0.42046606031E+02  0.00000000000E+00 0. -1.
</event>
<event>
 7    1  0.4555057E-015  0.9000775E+02  0.7816164E-02  0.1186339E+00
        -11   -1    0    0    0    0  0.00000000000E+00  0.00000000000E+00  0.45593999997E+02  0.45594000000E+02  0.51100000000E-03 0. -1.
         11   -1    0    0    0    0 -0.00000000000E+00 -0.00000000000E+00 -0.45593999997E+02  0.45594000000E+02  0.51100000000E-03 0.  1.
    9900012    2    1    2    0    0 -0.10027522162E+01 -0.57509851629E+00 -0.23819377769E+00  0.90007751473E+02  0.90000012992E+02 0.  0.
        -12    1    1    2    0    0  0.10027522162E+01  0.57509851629E+00  0.23819377769E+00  0.11802485274E+01  0.00000000000E+00 0.  1.
         11    1    3    3    0    0 -0.19119632809E+00  0.11088978430E+02 -0.67251117154E+01  0.12970317132E+02  0.51100000000E-03 0. -1.
        -11    1    3    3    0    0  0.24613157535E+02  0.69079412338E+01  0.28753103799E+02  0.38474253134E+02  0.51100000000E-03 0.  1.
         12    1    3    3    0    0 -0.25424713423E+02 -0.18572018180E+02 -0.22266185861E+02  0.38563181206E+02  0.00000000000E+00 0. -1.
</event>
<event>
 7    1  0.4555057E-015  0.9000808E+02  0.7816164E-02  0.1186338E+00
        -11   -1    0    0    0    0  0.00000000000E+00  0.00000000000E+00  0.45593999997E+02  0.45594000000E+02  0.51100000000E-03 0. -1.
         11   -1    0    0    0    0 -0.00000000000E+00 -0.00000000000E+00 -0.45593999997E+02  0.45594000000E+02  0.51100000000E-03 0.  1.
    9900012    2    1    2    0    0  0.47756808337E+00  0.98619280838E+00  0.43768533067E+00  0.90008077978E+02  0.90000343807E+02 0.  0.
        -12    1    1    2    0    0 -0.47756808337E+00 -0.98619280838E+00 -0.43768533067E+00  0.11799220221E+01  0.00000000000E+00 0.  1.
         11    1    3    3    0    0 -0.46334787966E+00  0.39644245020E+02  0.75730845379E+01  0.40363751860E+02  0.51100000000E-03 0. -1.
        -11    1    3    3    0    0  0.90684696223E+01  0.50456901918E+00 -0.21887051327E+01  0.93424922587E+01  0.51100000000E-03 0.  1.
        -12    1    3    3    0    0 -0.81275536593E+01 -0.39162621231E+02 -0.49466940745E+01  0.40301833860E+02  0.00000000000E+00 0.  1.
</event>
<event>
 7    1  0.4555057E-015  0.9000774E+02  0.7816164E-02  0.1186339E+00
        -11   -1    0    0    0    0  0.00000000000E+00  0.00000000000E+00  0.45593999997E+02  0.45594000000E+02  0.51100000000E-03 0.  1.
         11   -1    0    0    0    0 -0.00000000000E+00 -0.00000000000E+00 -0.45593999997E+02  0.45594000000E+02  0.51100000000E-03 0. -1.
    9900012    2    1    2    0    0  0.53124220068E+00 -0.10256518930E+01 -0.24256962054E+00  0.90007737274E+02  0.89999998606E+02 0.  0.
        -12    1    1    2    0    0 -0.53124220068E+00  0.10256518930E+01  0.24256962054E+00  0.11802627259E+01  0.00000000000E+00 0.  1.
         11    1    3    3    0    0 -0.27275104550E+02  0.13105688859E+02  0.16959694499E+02  0.34688926856E+02  0.51100000000E-03 0. -1.
        -11    1    3    3    0    0  0.16565143771E+02  0.57655777925E+01  0.96815067864E+01  0.20034406639E+02  0.51100000000E-03 0.  1.
        -12    1    3    3    0    0  0.11241202979E+02 -0.19896918544E+02 -0.26883770906E+02  0.35284403780E+02  0.00000000000E+00 0.  1.
</event>
<event>
 7    1  0.4555057E-015  0.9000778E+02  0.7816164E-02  0.1186339E+00
        -11   -1    0    0    0    0  0.00000000000E+00  0.00000000000E+00  0.45593999997E+02  0.45594000000E+02  0.51100000000E-03 0.  1.
         11   -1    0    0    0    0 -0.00000000000E+00 -0.00000000000E+00 -0.45593999997E+02  0.45594000000E+02  0.51100000000E-03 0. -1.
    9900012    2    1    2    0    0  0.13405062698E-01 -0.47725886230E+00 -0.10793310497E+01  0.90007783396E+02  0.90000045337E+02 0.  0.
        -12    1    1    2    0    0 -0.13405062698E-01  0.47725886230E+00  0.10793310497E+01  0.11802166039E+01  0.00000000000E+00 0.  1.
         11    1    3    3    0    0 -0.92399262227E+01 -0.42944210596E-01  0.36315690294E+01  0.99280599657E+01  0.51100000000E-03 0. -1.
        -11    1    3    3    0    0 -0.31767242408E+02 -0.11567511566E+02 -0.13966605306E+02  0.36579107125E+02  0.51100000000E-03 0.  1.
         12    1    3    3    0    0  0.41020573693E+02  0.11133196915E+02  0.92557052270E+01  0.43500616305E+02  0.00000000000E+00 0. -1.
</event>
<event>
 7    1  0.4555057E-015  0.9000775E+02  0.7816164E-02  0.1186339E+00
        -11   -1    0    0    0    0  0.00000000000E+00  0.00000000000E+00  0.45593999997E+02  0.45594000000E+02  0.51100000000E-03 0. -1.
         11   -1    0    0    0    0 -0.00000000000E+00 -0.00000000000E+00 -0.45593999997E+02  0.45594000000E+02  0.51100000000E-03 0.  1.
    9900012    2    1    2    0    0  0.65064469332E+00 -0.94512788862E+00 -0.27636713665E+00  0.90007752553E+02  0.90000014086E+02 0.  0.
        -12    1    1    2    0    0 -0.65064469332E+00  0.94512788862E+00  0.27636713665E+00  0.11802474474E+01  0.00000000000E+00 0.  1.
         11    1    3    3    0    0 -0.39697361515E+01  0.77292462011E+01 -0.32115963771E+01  0.92636063981E+01  0.51100000000E-03 0. -1.
        -11    1    3    3    0    0 -0.19293494735E+02  0.29728082039E+02  0.62441509857E+00  0.35445559599E+02  0.51100000000E-03 0.  1.
         12    1    3    3    0    0  0.23913875579E+02 -0.38402456129E+02  0.23108141419E+01  0.45298586556E+02  0.00000000000E+00 0. -1.
</event>
<event>
 7    1  0.4555057E-015  0.9000860E+02  0.7816164E-02  0.1186337E+00
        -11   -1    0    0    0    0  0.00000000000E+00  0.00000000000E+00  0.45593999997E+02  0.45594000000E+02  0.51100000000E-03 0.  1.
         11   -1    0    0    0    0 -0.00000000000E+00 -0.00000000000E+00 -0.45593999997E+02  0.45594000000E+02  0.51100000000E-03 0. -1.
    9900012    2    1    2    0    0  0.59830708148E+00  0.10117673899E+01 -0.96636810175E-01  0.90008600454E+02  0.90000873176E+02 0.  0.
        -12    1    1    2    0    0 -0.59830708148E+00 -0.10117673899E+01  0.96636810175E-01  0.11793995456E+01  0.00000000000E+00 0.  1.
         11    1    3    3    0    0 -0.32051928643E+02  0.14718894802E+02 -0.25908223667E+02  0.43763090017E+02  0.51100000000E-03 0. -1.
        -11    1    3    3    0    0  0.66762237107E+01  0.26587020519E+01  0.79959794018E+01  0.10750644003E+02  0.51100000000E-03 0.  1.
        -12    1    3    3    0    0  0.25974012014E+02 -0.16365829464E+02  0.17815607455E+02  0.35494866434E+02  0.00000000000E+00 0.  1.
</event>
<event>
 7    1  0.4555057E-015  0.9000775E+02  0.7816164E-02  0.1186339E+00
        -11   -1    0    0    0    0  0.00000000000E+00  0.00000000000E+00  0.45593999997E+02  0.45594000000E+02  0.51100000000E-03 0.  1.
         11   -1    0    0    0    0 -0.00000000000E+00 -0.00000000000E+00 -0.45593999997E+02  0.45594000000E+02  0.51100000000E-03 0. -1.
    9900012    2    1    2    0    0  0.63401817633E+00 -0.77831472691E+00 -0.62067647745E+00  0.90007749115E+02  0.90000010603E+02 0.  0.
        -12    1    1    2    0    0 -0.63401817633E+00  0.77831472691E+00  0.62067647745E+00  0.11802508851E+01  0.00000000000E+00 0.  1.
         11    1    3    3    0    0 -0.92193742438E+01  0.21004512987E+02 -0.30332263957E+02  0.38029365815E+02  0.51100000000E-03 0. -1.
        -11    1    3    3    0    0  0.65000748505E+01  0.59332390541E+01 -0.26952072781E+01  0.92042621251E+01  0.51100000000E-03 0.  1.
        -12    1    3    3    0    0  0.33533175696E+01 -0.27716066768E+02  0.32406794757E+02  0.42774121175E+02  0.00000000000E+00 0.  1.
</event>
<event>
 7    1  0.4555057E-015  0.9000776E+02  0.7816164E-02  0.1186339E+00
        -11   -1    0    0    0    0  0.00000000000E+00  0.00000000000E+00  0.45593999997E+02  0.45594000000E+02  0.51100000000E-03 0. -1.
         11   -1    0    0    0    0 -0.00000000000E+00 -0.00000000000E+00 -0.45593999997E+02  0.45594000000E+02  0.51100000000E-03 0.  1.
    9900012    2    1    2    0    0  0.33008909902E+00 -0.11326826974E+01  0.32188129548E-01  0.90007760625E+02  0.90000022265E+02 0.  0.
        -12    1    1    2    0    0 -0.33008909902E+00  0.11326826974E+01 -0.32188129548E-01  0.11802393749E+01  0.00000000000E+00 0.  1.
         11    1    3    3    0    0 -0.10865472439E+02 -0.13056137679E+01 -0.15728180921E+01  0.11056078674E+02  0.51100000000E-03 0. -1.
        -11    1    3    3    0    0  0.73188247167E+01 -0.19902393603E+02 -0.32724658376E+02  0.38994534649E+02  0.51100000000E-03 0.  1.
         12    1    3    3    0    0  0.38767368217E+01  0.20075324673E+02  0.34329664598E+02  0.39957147302E+02  0.00000000000E+00 0. -1.
</event>
<event>
 7    1  0.4555057E-015  0.9000768E+02  0.7816164E-02  0.1186339E+00
        -11   -1    0    0    0    0  0.00000000000E+00  0.00000000000E+00  0.45593999997E+02  0.45594000000E+02  0.51100000000E-03 0.  1.
         11   -1    0    0    0    0 -0.00000000000E+00 -0.00000000000E+00 -0.45593999997E+02  0.45594000000E+02  0.51100000000E-03 0. -1.
    9900012    2    1    2    0    0 -0.51156640288E+00  0.10632555052E+01  0.30771551176E-01  0.90007678289E+02  0.89999938842E+02 0.  0.
        -12    1    1    2    0    0  0.51156640288E+00 -0.10632555052E+01 -0.30771551176E-01  0.11803217114E+01  0.00000000000E+00 0.  1.
         11    1    3    3    0    0 -0.26303755553E+01  0.60104470183E+01  0.80433634327E+01  0.10379790195E+02  0.51100000000E-03 0. -1.
        -11    1    3    3    0    0  0.23592721035E+02 -0.14320867789E+02  0.26270393153E+02  0.38102982780E+02  0.51100000000E-03 0.  1.
         12    1    3    3    0    0 -0.21473911883E+02  0.93736762757E+01 -0.34282985034E+02  0.41524905314E+02  0.00000000000E+00 0. -1.
</event>
<event>
 7    1  0.4555057E-015  0.9000765E+02  0.7816164E-02  0.1186339E+00
        -11   -1    0    0    0    0  0.00000000000E+00  0.00000000000E+00  0.45593999997E+02  0.45594000000E+02  0.51100000000E-03 0.  1.
         11   -1    0    0    0    0 -0.00000000000E+00 -0.00000000000E+00 -0.45593999997E+02  0.45594000000E+02  0.51100000000E-03 0. -1.
    9900012    2    1    2    0    0 -0.58667164066E-01 -0.90043928473E+00 -0.76091359003E+00  0.90007651648E+02  0.89999911849E+02 0.  0.
        -12    1    1    2    0    0  0.58667164066E-01  0.90043928473E+00  0.76091359003E+00  0.11803483524E+01  0.00000000000E+00 0.  1.
         11    1    3    3    0    0 -0.10211771320E+01 -0.17650659867E+01  0.94082271747E+01  0.96266816455E+01  0.51100000000E-03 0. -1.
        -11    1    3    3    0    0  0.60140594696E+01  0.38978381979E+02  0.34566249377E+01  0.39590799805E+02  0.51100000000E-03 0.  1.
         12    1    3    3    0    0 -0.50515495017E+01 -0.38113755277E+02 -0.13625765702E+02  0.40790170197E+02  0.00000000000E+00 0. -1.
</event>
<event>
 7    1  0.4555057E-015  0.9000778E+02  0.7816164E-02  0.1186339E+00
        -11   -1    0    0    0    0  0.00000000000E+00  0.00000000000E+00  0.45593999997E+02  0.45594000000E+02  0.51100000000E-03 0.  1.
         11   -1    0    0    0    0 -0.00000000000E+00 -0.00000000000E+00 -0.45593999997E+02  0.45594000000E+02  0.51100000000E-03 0. -1.
    9900012    2    1    2    0    0 -0.10274426300E+01  0.43624677584E+00 -0.38335417912E+00  0.90007783904E+02  0.90000045851E+02 0.  0.
        -12    1    1    2    0    0  0.10274426300E+01 -0.43624677584E+00  0.38335417912E+00  0.11802160963E+01  0.00000000000E+00 0.  1.
         11    1    3    3    0    0 -0.13774914344E+02  0.28408597066E+02 -0.16527731045E+02  0.35636533869E+02  0.51100000000E-03 0. -1.
        -11    1    3    3    0    0 -0.50370247374E+01  0.80359669710E+01 -0.29086279565E+01  0.99201058570E+01  0.51100000000E-03 0.  1.
        -12    1    3    3    0    0  0.17784496451E+02 -0.36008317261E+02  0.19053004822E+02  0.44451144178E+02  0.00000000000E+00 0.  1.
</event>
<event>
 7    1  0.4555057E-015  0.9000817E+02  0.7816164E-02  0.1186338E+00
        -11   -1    0    0    0    0  0.00000000000E+00  0.00000000000E+00  0.45593999997E+02  0.45594000000E+02  0.51100000000E-03 0.  1.
         11   -1    0    0    0    0 -0.00000000000E+00 -0.00000000000E+00 -0.45593999997E+02  0.45594000000E+02  0.51100000000E-03 0. -1.
    9900012    2    1    2    0    0 -0.24648819224E+00  0.86728775388E+00 -0.76095067357E+00  0.90008173570E+02  0.90000440660E+02 0.  0.
        -12    1    1    2    0    0  0.24648819224E+00 -0.86728775388E+00  0.76095067357E+00  0.11798264298E+01  0.00000000000E+00 0.  1.
         11    1    3    3    0    0 -0.22129503756E+02 -0.24872229467E+02  0.91199381326E+01  0.34518343050E+02  0.51100000000E-03 0. -1.
        -11    1    3    3    0    0 -0.12124054546E+02  0.30052054008E+01  0.25250857953E+01  0.12743626511E+02  0.51100000000E-03 0.  1.
        -12    1    3    3    0    0  0.34007070109E+02  0.22734311820E+02 -0.12405974601E+02  0.42746204009E+02  0.00000000000E+00 0.  1.
</event>
<event>
 7    1  0.4555057E-015  0.9000770E+02  0.7816164E-02  0.1186339E+00
        -11   -1    0    0    0    0  0.00000000000E+00  0.00000000000E+00  0.45593999997E+02  0.45594000000E+02  0.51100000000E-03 0.  1.
         11   -1    0    0    0    0 -0.00000000000E+00 -0.00000000000E+00 -0.45593999997E+02  0.45594000000E+02  0.51100000000E-03 0. -1.
    9900012    2    1    2    0    0 -0.10395113760E+01  0.32076934311E+00 -0.45785251848E+00  0.90007700970E+02  0.89999961822E+02 0.  0.
        -12    1    1    2    0    0  0.10395113760E+01 -0.32076934311E+00  0.45785251848E+00  0.11802990303E+01  0.00000000000E+00 0.  1.
         11    1    3    3    0    0  0.16532993208E+02  0.50188915592E+01 -0.36929938373E+02  0.40771920305E+02  0.51100000000E-03 0. -1.
        -11    1    3    3    0    0  0.67129237925E+01  0.25927131015E+01  0.47389464734E+01  0.86164448011E+01  0.51100000000E-03 0.  1.
        -12    1    3    3    0    0 -0.24285428376E+02 -0.72908353176E+01  0.31733139381E+02  0.40619335864E+02  0.00000000000E+00 0.  1.
</event>
<event>
 7    1  0.4555057E-015  0.9000783E+02  0.7816164E-02  0.1186339E+00
        -11   -1    0    0    0    0  0.00000000000E+00  0.00000000000E+00  0.45593999997E+02  0.45594000000E+02  0.51100000000E-03 0. -1.
         11   -1    0    0    0    0 -0.00000000000E+00 -0.00000000000E+00 -0.45593999997E+02  0.45594000000E+02  0.51100000000E-03 0.  1.
    9900012    2    1    2    0    0 -0.79067290024E+00 -0.38836437242E+00  0.78537129548E+00  0.90007831117E+02  0.90000093688E+02 0.  0.
        -12    1    1    2    0    0  0.79067290024E+00  0.38836437242E+00 -0.78537129548E+00  0.11801688831E+01  0.00000000000E+00 0.  1.
         11    1    3    3    0    0 -0.31488300655E+02 -0.21675890825E+02  0.36126326369E+01  0.38398026460E+02  0.51100000000E-03 0. -1.
        -11    1    3    3    0    0 -0.79367559656E+01  0.35850945112E+01 -0.26822397116E+01  0.91125961198E+01  0.51100000000E-03 0.  1.
        -12    1    3    3    0    0  0.38634383721E+02  0.17702431942E+02 -0.14502162990E+00  0.42497208537E+02  0.00000000000E+00 0.  1.
</event>
<event>
 7    1  0.4555057E-015  0.9000729E+02  0.7816164E-02  0.1186340E+00
        -11   -1    0    0    0    0  0.00000000000E+00  0.00000000000E+00  0.45593999997E+02  0.45594000000E+02  0.51100000000E-03 0.  1.
         11   -1    0    0    0    0 -0.00000000000E+00 -0.00000000000E+00 -0.45593999997E+02  0.45594000000E+02  0.51100000000E-03 0. -1.
    9900012    2    1    2    0    0  0.89642010207E+00  0.20763822247E+00 -0.73986681816E+00  0.90007286004E+02  0.89999541378E+02 0.  0.
        -12    1    1    2    0    0 -0.89642010207E+00 -0.20763822247E+00  0.73986681816E+00  0.11807139956E+01  0.00000000000E+00 0.  1.
         11    1    3    3    0    0  0.92456802918E+01  0.18922138636E+02  0.29387284152E+02  0.36154424414E+02  0.51100000000E-03 0. -1.
        -11    1    3    3    0    0 -0.12512923441E+01  0.45150736224E+01  0.76322304103E+01  0.89555884029E+01  0.51100000000E-03 0.  1.
        -12    1    3    3    0    0 -0.70979678456E+01 -0.23229574036E+02 -0.37759381381E+02  0.44897273187E+02  0.00000000000E+00 0.  1.
</event>
<event>
 7    1  0.4555057E-015  0.9000776E+02  0.7816164E-02  0.1186339E+00
        -11   -1    0    0    0    0  0.00000000000E+00  0.00000000000E+00  0.45593999997E+02  0.45594000000E+02  0.51100000000E-03 0. -1.
         11   -1    0    0    0    0 -0.00000000000E+00 -0.00000000000E+00 -0.45593999997E+02  0.45594000000E+02  0.51100000000E-03 0.  1.
    9900012    2    1    2    0    0 -0.21305727836E+00 -0.24540678096E-01  0.11605897386E+01  0.90007760961E+02  0.90000022605E+02 0.  0.
        -12    1    1    2    0    0  0.21305727836E+00  0.24540678096E-01 -0.11605897386E+01  0.11802390394E+01  0.00000000000E+00 0.  1.
         11    1    3    3    0    0  0.12496620241E+02 -0.24641717263E+00  0.35406838175E+00  0.12504063482E+02  0.51100000000E-03 0. -1.
        -11    1    3    3    0    0  0.26713649573E+00  0.27776465874E+02 -0.25161066066E+02  0.37479096364E+02  0.51100000000E-03 0.  1.
         12    1    3    3    0    0 -0.12976814015E+02 -0.27554589380E+02  0.25967587423E+02  0.40024601115E+02  0.00000000000E+00 0. -1.
</event>
<event>
 7    1  0.4555057E-015  0.9000768E+02  0.7816164E-02  0.1186339E+00
        -11   -1    0    0    0    0  0.00000000000E+00  0.00000000000E+00  0.45593999997E+02  0.45594000000E+02  0.51100000000E-03 0. -1.
         11   -1    0    0    0    0 -0.00000000000E+00 -0.00000000000E+00 -0.45593999997E+02  0.45594000000E+02  0.51100000000E-03 0.  1.
    9900012    2    1    2    0    0  0.98881740558E+00 -0.56890771850E+00  0.30287467076E+00  0.90007682704E+02  0.89999943315E+02 0.  0.
        -12    1    1    2    0    0 -0.98881740558E+00  0.56890771850E+00 -0.30287467076E+00  0.11803172963E+01  0.00000000000E+00 0.  1.
         11    1    3    3    0    0 -0.19754093689E+02  0.58055882053E+01  0.37095590033E+02  0.42426546784E+02  0.51100000000E-03 0. -1.
        -11    1    3    3    0    0  0.12136399960E+01  0.64194183218E+01 -0.55082772159E+01  0.85453479612E+01  0.51100000000E-03 0.  1.
        -12    1    3    3    0    0  0.19529271098E+02 -0.12793914246E+02 -0.31284438147E+02  0.39035787958E+02  0.00000000000E+00 0.  1.
</event>
<event>
 7    1  0.4555057E-015  0.9000781E+02  0.7816164E-02  0.1186339E+00
        -11   -1    0    0    0    0  0.00000000000E+00  0.00000000000E+00  0.45593999997E+02  0.45594000000E+02  0.51100000000E-03 0.  1.
         11   -1    0    0    0    0 -0.00000000000E+00 -0.00000000000E+00 -0.45593999997E+02  0.45594000000E+02  0.51100000000E-03 0. -1.
    9900012    2    1    2    0    0  0.65191891615E+00 -0.97754348471E+00 -0.11077293449E+00  0.90007805024E+02  0.90000067251E+02 0.  0.
        -12    1    1    2    0    0 -0.65191891615E+00  0.97754348471E+00  0.11077293449E+00  0.11801949757E+01  0.00000000000E+00 0.  1.
         11    1    3    3    0    0  0.57941301457E+01 -0.20119324361E+02 -0.29746293256E+02  0.36375831531E+02  0.51100000000E-03 0. -1.
        -11    1    3    3    0    0 -0.43534401772E+01 -0.76423424750E+01 -0.47837133967E+01  0.10012080403E+02  0.51100000000E-03 0.  1.
        -12    1    3    3    0    0 -0.78877105228E+00  0.26784123351E+02  0.34419233718E+02  0.43619893090E+02  0.00000000000E+00 0.  1.
</event>
<event>
 7    1  0.4555057E-015  0.9000778E+02  0.7816164E-02  0.1186339E+00
        -11   -1    0    0    0    0  0.00000000000E+00  0.00000000000E+00  0.45593999997E+02  0.45594000000E+02  0.51100000000E-03 0. -1.
         11   -1    0    0    0    0 -0.00000000000E+00 -0.00000000000E+00 -0.45593999997E+02  0.45594000000E+02  0.51100000000E-03 0.  1.
    9900012    2    1    2    0    0  0.61903081234E+00  0.48850497095E+00  0.87811987213E+00  0.90007775122E+02  0.90000036953E+02 0.  0.
        -12    1    1    2    0    0 -0.61903081234E+00 -0.48850497095E+00 -0.87811987213E+00  0.11802248782E+01  0.00000000000E+00 0.  1.
         11    1    3    3    0    0 -0.54993615124E+01 -0.97131560509E+01  0.39642730181E+01  0.11844992121E+02  0.51100000000E-03 0. -1.
        -11    1    3    3    0    0 -0.63162250684E+01  0.20596920003E+02 -0.35726850924E+02  0.41719727827E+02  0.51100000000E-03 0.  1.
         12    1    3    3    0    0  0.12434617393E+02 -0.10395258982E+02  0.32640697778E+02  0.36443055174E+02  0.00000000000E+00 0. -1.
</event>
<event>
 7    1  0.4555057E-015  0.9000779E+02  0.7816164E-02  0.1186339E+00
        -11   -1    0    0    0    0  0.00000000000E+00  0.00000000000E+00  0.45593999997E+02  0.45594000000E+02  0.51100000000E-03 0. -1.
         11   -1    0    0    0    0 -0.00000000000E+00 -0.00000000000E+00 -0.45593999997E+02  0.45594000000E+02  0.51100000000E-03 0.  1.
    9900012    2    1    2    0    0 -0.62903257341E+00 -0.62054796732E-01  0.99668130718E+00  0.90007785441E+02  0.90000047409E+02 0.  0.
        -12    1    1    2    0    0  0.62903257341E+00  0.62054796732E-01 -0.99668130718E+00  0.11802145586E+01  0.00000000000E+00 0.  1.
         11    1    3    3    0    0  0.42542798894E+02 -0.61024273606E+00 -0.61465574242E+00  0.42551614962E+02  0.51100000000E-03 0. -1.
        -11    1    3    3    0    0 -0.23494261833E+01  0.43105185472E+01 -0.36597894858E+01  0.61232697865E+01  0.51100000000E-03 0.  1.
        -12    1    3    3    0    0 -0.40822405284E+02 -0.37623306079E+01  0.52711265354E+01  0.41332900693E+02  0.00000000000E+00 0.  1.
</event>
<event>
 7    1  0.4555057E-015  0.9000775E+02  0.7816164E-02  0.1186339E+00
        -11   -1    0    0    0    0  0.00000000000E+00  0.00000000000E+00  0.45593999997E+02  0.45594000000E+02  0.51100000000E-03 0. -1.
         11   -1    0    0    0    0 -0.00000000000E+00 -0.00000000000E+00 -0.45593999997E+02  0.45594000000E+02  0.51100000000E-03 0.  1.
    9900012    2    1    2    0    0 -0.38085053151E+00 -0.10022558529E+01  0.49337747082E+00  0.90007752038E+02  0.90000013565E+02 0.  0.
        -12    1    1    2    0    0  0.38085053151E+00  0.10022558529E+01 -0.49337747082E+00  0.11802479615E+01  0.00000000000E+00 0.  1.
         11    1    3    3    0    0 -0.21214776644E+02 -0.29065247426E+02  0.15327546123E+02  0.39112517515E+02  0.51100000000E-03 0. -1.
        -11    1    3    3    0    0 -0.75747224235E+01 -0.14570972472E+01 -0.25394952131E+01  0.81208736217E+01  0.51100000000E-03 0.  1.
        -12    1    3    3    0    0  0.28408648536E+02  0.29520088820E+02 -0.12294673439E+02  0.42774360902E+02  0.00000000000E+00 0.  1.
</event>
<event>
 7    1  0.4555057E-015  0.9000782E+02  0.7816164E-02  0.1186339E+00
        -11   -1    0    0    0    0  0.00000000000E+00  0.00000000000E+00  0.45593999997E+02  0.45594000000E+02  0.51100000000E-03 0.  1.
         11   -1    0    0    0    0 -0.00000000000E+00 -0.00000000000E+00 -0.45593999997E+02  0.45594000000E+02  0.51100000000E-03 0. -1.
    9900012    2    1    2    0    0  0.17475925447E+00 -0.70465197240E+00 -0.93045489078E+00  0.90007821411E+02  0.90000083853E+02 0.  0.
        -12    1    1    2    0    0 -0.17475925447E+00  0.70465197240E+00  0.93045489078E+00  0.11801785895E+01  0.00000000000E+00 0.  1.
         11    1    3    3    0    0  0.29724235503E+01  0.10387859002E+02  0.13185237987E+01  0.10884917165E+02  0.51100000000E-03 0. -1.
        -11    1    3    3    0    0 -0.22491866290E+02 -0.98855279409E+01  0.31549077428E+02  0.39986897838E+02  0.51100000000E-03 0.  1.
         12    1    3    3    0    0  0.19694201994E+02 -0.12069830340E+01 -0.33798056117E+02  0.39136006408E+02  0.00000000000E+00 0. -1.
</event>
<event>
 7    1  0.4555057E-015  0.9000787E+02  0.7816164E-02  0.1186339E+00
        -11   -1    0    0    0    0  0.00000000000E+00  0.00000000000E+00  0.45593999997E+02  0.45594000000E+02  0.51100000000E-03 0.  1.
         11   -1    0    0    0    0 -0.00000000000E+00 -0.00000000000E+00 -0.45593999997E+02  0.45594000000E+02  0.51100000000E-03 0. -1.
    9900012    2    1    2    0    0 -0.13674312158E-02 -0.16917127113E+00 -0.11679442234E+01  0.90007866746E+02  0.90000129787E+02 0.  0.
        -12    1    1    2    0    0  0.13674312158E-02  0.16917127113E+00  0.11679442234E+01  0.11801332543E+01  0.00000000000E+00 0.  1.
         11    1    3    3    0    0 -0.19092859008E+02 -0.28168815483E+02 -0.12263688268E+02  0.36172053868E+02  0.51100000000E-03 0. -1.
        -11    1    3    3    0    0 -0.82736143605E+01 -0.32278229136E+01 -0.38867388989E+01  0.96942392624E+01  0.51100000000E-03 0.  1.
        -12    1    3    3    0    0  0.27365105938E+02  0.31227467126E+02  0.14982482944E+02  0.44141573615E+02  0.00000000000E+00 0.  1.
</event>
<event>
 7    1  0.4555057E-015  0.9000761E+02  0.7816164E-02  0.1186339E+00
        -11   -1    0    0    0    0  0.00000000000E+00  0.00000000000E+00  0.45593999997E+02  0.45594000000E+02  0.51100000000E-03 0. -1.
         11   -1    0    0    0    0 -0.00000000000E+00 -0.00000000000E+00 -0.45593999997E+02  0.45594000000E+02  0.51100000000E-03 0.  1.
    9900012    2    1    2    0    0  0.56905815536E+00 -0.93610957867E+00 -0.43954361059E+00  0.90007607306E+02  0.89999866922E+02 0.  0.
        -12    1    1    2    0    0 -0.56905815536E+00  0.93610957867E+00  0.43954361059E+00  0.11803926944E+01  0.00000000000E+00 0.  1.
         11    1    3    3    0    0 -0.10026209305E+02  0.34655671585E+02  0.16980156870E+01  0.36116806387E+02  0.51100000000E-03 0. -1.
        -11    1    3    3    0    0  0.15159412200E+02  0.23144157671E+01  0.20926218806E+01  0.15477188543E+02  0.51100000000E-03 0.  1.
        -12    1    3    3    0    0 -0.45641447391E+01 -0.37906196931E+02 -0.42301811782E+01  0.38413612376E+02  0.00000000000E+00 0.  1.
</event>
<event>
 7    1  0.4555057E-015  0.9000777E+02  0.7816164E-02  0.1186339E+00
        -11   -1    0    0    0    0  0.00000000000E+00  0.00000000000E+00  0.45593999997E+02  0.45594000000E+02  0.51100000000E-03 0.  1.
         11   -1    0    0    0    0 -0.00000000000E+00 -0.00000000000E+00 -0.45593999997E+02  0.45594000000E+02  0.51100000000E-03 0. -1.
    9900012    2    1    2    0    0  0.40780008848E+00  0.39197660910E+00 -0.10358569111E+01  0.90007768618E+02  0.90000030364E+02 0.  0.
        -12    1    1    2    0    0 -0.40780008848E+00 -0.39197660910E+00  0.10358569111E+01  0.11802313818E+01  0.00000000000E+00 0.  1.
         11    1    3    3    0    0  0.21305333398E+02  0.14926509634E+02  0.22942999477E+02  0.34685719631E+02  0.51100000000E-03 0. -1.
        -11    1    3    3    0    0  0.65102211778E+01  0.10534740783E+02 -0.33267186626E+01  0.12823057376E+02  0.51100000000E-03 0.  1.
        -12    1    3    3    0    0 -0.27407754487E+02 -0.25069273809E+02 -0.20652137726E+02  0.42498991611E+02  0.00000000000E+00 0.  1.
</event>
<event>
 7    1  0.4555057E-015  0.9000764E+02  0.7816164E-02  0.1186339E+00
        -11   -1    0    0    0    0  0.00000000000E+00  0.00000000000E+00  0.45593999997E+02  0.45594000000E+02  0.51100000000E-03 0.  1.
         11   -1    0    0    0    0 -0.00000000000E+00 -0.00000000000E+00 -0.45593999997E+02  0.45594000000E+02  0.51100000000E-03 0. -1.
    9900012    2    1    2    0    0  0.39831860856E+00  0.71082626397E+00 -0.85400432761E+00  0.90007637732E+02  0.89999897750E+02 0.  0.
        -12    1    1    2    0    0 -0.39831860856E+00 -0.71082626397E+00  0.85400432761E+00  0.11803622677E+01  0.00000000000E+00 0.  1.
         11    1    3    3    0    0  0.36310416346E+02 -0.27892913100E+01  0.55329696870E+01  0.36835312338E+02  0.51100000000E-03 0. -1.
        -11    1    3    3    0    0  0.75347374516E+01 -0.42438244751E+01 -0.70273772416E+00  0.86761832167E+01  0.51100000000E-03 0.  1.
        -12    1    3    3    0    0 -0.43446835189E+02  0.77439420491E+01 -0.56842362905E+01  0.44496142177E+02  0.00000000000E+00 0.  1.
</event>
<event>
 8    1  0.4555057E-015  0.9000774E+02  0.7816164E-02  0.1186339E+00
        -11   -1    0    0    0    0  0.00000000000E+00  0.00000000000E+00  0.45593999997E+02  0.45594000000E+02  0.51100000000E-03 0. -1.
         11   -1    0    0    0    0 -0.00000000000E+00 -0.00000000000E+00 -0.45593999997E+02  0.45594000000E+02  0.51100000000E-03 0.  1.
    9900012    2    1    2    0    0  0.95129506715E+00  0.20720043614E+00 -0.66717567115E+00  0.90007738291E+02  0.89999999636E+02 0.  0.
         23    2    3    3    0    0  0.28453150859E+02  0.35130359459E+01  0.62306259291E+01  0.61461980509E+02  0.54007695131E+02 0.  0.
        -12    1    1    2    0    0 -0.95129506715E+00 -0.20720043614E+00  0.66717567115E+00  0.11802617090E+01  0.00000000000E+00 0.  1.
         11    1    4    4    0    0  0.30815434940E+02  0.24033822729E+02  0.10287648082E+02  0.40411030286E+02  0.51100000000E-03 0. -1.
        -11    1    4    4    0    0 -0.23622840806E+01 -0.20520786783E+02 -0.40570221529E+01  0.21050950223E+02  0.51100000000E-03 0.  1.
        -12    1    3    3    0    0 -0.27501855792E+02 -0.33058355097E+01 -0.68978016003E+01  0.28545757782E+02  0.00000000000E+00 0.  1.
</event>
<event>
 7    1  0.4555057E-015  0.9000778E+02  0.7816164E-02  0.1186339E+00
        -11   -1    0    0    0    0  0.00000000000E+00  0.00000000000E+00  0.45593999997E+02  0.45594000000E+02  0.51100000000E-03 0.  1.
         11   -1    0    0    0    0 -0.00000000000E+00 -0.00000000000E+00 -0.45593999997E+02  0.45594000000E+02  0.51100000000E-03 0. -1.
    9900012    2    1    2    0    0 -0.28113692406E+00 -0.86738126143E+00 -0.74936137210E+00  0.90007775153E+02  0.90000036985E+02 0.  0.
        -12    1    1    2    0    0  0.28113692406E+00  0.86738126143E+00  0.74936137210E+00  0.11802248467E+01  0.00000000000E+00 0.  1.
         11    1    3    3    0    0  0.89101947796E+01 -0.17294592625E+02 -0.64467662022E+01  0.20495250665E+02  0.51100000000E-03 0. -1.
        -11    1    3    3    0    0  0.26712430773E+02  0.17546279275E+02  0.96240165685E+01  0.33377351143E+02  0.51100000000E-03 0.  1.
         12    1    3    3    0    0 -0.35903762476E+02 -0.11190679106E+01 -0.39266117384E+01  0.36135173345E+02  0.00000000000E+00 0. -1.
</event>
<event>
 7    1  0.4555057E-015  0.9000765E+02  0.7816164E-02  0.1186339E+00
        -11   -1    0    0    0    0  0.00000000000E+00  0.00000000000E+00  0.45593999997E+02  0.45594000000E+02  0.51100000000E-03 0. -1.
         11   -1    0    0    0    0 -0.00000000000E+00 -0.00000000000E+00 -0.45593999997E+02  0.45594000000E+02  0.51100000000E-03 0.  1.
    9900012    2    1    2    0    0 -0.90960162167E+00 -0.43700592437E+00  0.61226573969E+00  0.90007653176E+02  0.89999913398E+02 0.  0.
        -12    1    1    2    0    0  0.90960162167E+00  0.43700592437E+00 -0.61226573969E+00  0.11803468236E+01  0.00000000000E+00 0.  1.
         11    1    3    3    0    0  0.39927971859E+02  0.85459794766E+01  0.42168862778E+01  0.41049468110E+02  0.51100000000E-03 0. -1.
        -11    1    3    3    0    0 -0.53363055470E+01  0.78677145867E+01 -0.12747702552E+01  0.95917740368E+01  0.51100000000E-03 0.  1.
        -12    1    3    3    0    0 -0.35501267934E+02 -0.16850699988E+02 -0.23298502829E+01  0.39366411029E+02  0.00000000000E+00 0.  1.
</event>
<event>
 7    1  0.4555057E-015  0.9000773E+02  0.7816164E-02  0.1186339E+00
        -11   -1    0    0    0    0  0.00000000000E+00  0.00000000000E+00  0.45593999997E+02  0.45594000000E+02  0.51100000000E-03 0.  1.
         11   -1    0    0    0    0 -0.00000000000E+00 -0.00000000000E+00 -0.45593999997E+02  0.45594000000E+02  0.51100000000E-03 0. -1.
    9900012    2    1    2    0    0  0.33525913960E+00 -0.10474750095E+01  0.42829845283E+00  0.90007727934E+02  0.89999989142E+02 0.  0.
        -12    1    1    2    0    0 -0.33525913960E+00  0.10474750095E+01 -0.42829845283E+00  0.11802720664E+01  0.00000000000E+00 0.  1.
         11    1    3    3    0    0 -0.19502884012E+02  0.24027068564E+02 -0.23572435742E+02  0.38901442591E+02  0.51100000000E-03 0. -1.
        -11    1    3    3    0    0  0.65441321532E+01  0.61391109364E+01 -0.90608084380E+00  0.90186102857E+01  0.51100000000E-03 0.  1.
        -12    1    3    3    0    0  0.13294010999E+02 -0.31213654510E+02  0.24906815039E+02  0.42087675057E+02  0.00000000000E+00 0.  1.
</event>
<event>
 7    1  0.4555057E-015  0.9000757E+02  0.7816164E-02  0.1186339E+00
        -11   -1    0    0    0    0  0.00000000000E+00  0.00000000000E+00  0.45593999997E+02  0.45594000000E+02  0.51100000000E-03 0.  1.
         11   -1    0    0    0    0 -0.00000000000E+00 -0.00000000000E+00 -0.45593999997E+02  0.45594000000E+02  0.51100000000E-03 0. -1.
    9900012    2    1    2    0    0 -0.57638198791E+00 -0.43812889280E+00 -0.93233158387E+00  0.90007569864E+02  0.89999828986E+02 0.  0.
        -12    1    1    2    0    0  0.57638198791E+00  0.43812889280E+00  0.93233158387E+00  0.11804301356E+01  0.00000000000E+00 0.  1.
         11    1    3    3    0    0  0.52333110669E+01 -0.49883427950E+01  0.75013306775E+01  0.10418304601E+02  0.51100000000E-03 0. -1.
        -11    1    3    3    0    0 -0.82616120547E+01 -0.18776710478E+02  0.28935132273E+02  0.35469155192E+02  0.51100000000E-03 0.  1.
         12    1    3    3    0    0  0.24519189999E+01  0.23326924380E+02 -0.37368794534E+02  0.44120110072E+02  0.00000000000E+00 0. -1.
</event>
<event>
 7    1  0.4555057E-015  0.9000784E+02  0.7816164E-02  0.1186339E+00
        -11   -1    0    0    0    0  0.00000000000E+00  0.00000000000E+00  0.45593999997E+02  0.45594000000E+02  0.51100000000E-03 0. -1.
         11   -1    0    0    0    0 -0.00000000000E+00 -0.00000000000E+00 -0.45593999997E+02  0.45594000000E+02  0.51100000000E-03 0.  1.
    9900012    2    1    2    0    0  0.10964359005E+01 -0.11304048407E+00  0.42170755865E+00  0.90007835986E+02  0.90000098621E+02 0.  0.
        -12    1    1    2    0    0 -0.10964359005E+01  0.11304048407E+00 -0.42170755865E+00  0.11801640141E+01  0.00000000000E+00 0.  1.
         11    1    3    3    0    0  0.81155135149E-01 -0.33943104780E+01 -0.82765833573E+01  0.89459355078E+01  0.51100000000E-03 0. -1.
        -11    1    3    3    0    0 -0.10254135829E+02 -0.37163377884E+02  0.26489644075E+01  0.38642993803E+02  0.51100000000E-03 0.  1.
         12    1    3    3    0    0  0.11269416595E+02  0.40444647878E+02  0.60493265085E+01  0.42418906675E+02  0.00000000000E+00 0. -1.
</event>
<event>
 7    1  0.4555057E-015  0.9000771E+02  0.7816164E-02  0.1186339E+00
        -11   -1    0    0    0    0  0.00000000000E+00  0.00000000000E+00  0.45593999997E+02  0.45594000000E+02  0.51100000000E-03 0.  1.
         11   -1    0    0    0    0 -0.00000000000E+00 -0.00000000000E+00 -0.45593999997E+02  0.45594000000E+02  0.51100000000E-03 0. -1.
    9900012    2    1    2    0    0 -0.13892416293E+00  0.71092080103E+00 -0.93187103914E+00  0.90007706841E+02  0.89999967771E+02 0.  0.
        -12    1    1    2    0    0  0.13892416293E+00 -0.71092080103E+00  0.93187103914E+00  0.11802931593E+01  0.00000000000E+00 0.  1.
         11    1    3    3    0    0  0.31523988019E+00  0.37220570614E+02 -0.22086979403E+02  0.43281692577E+02  0.51100000000E-03 0. -1.
        -11    1    3    3    0    0  0.64573965580E+01 -0.78530572938E+01 -0.45174437431E+00  0.10177060106E+02  0.51100000000E-03 0.  1.
        -12    1    3    3    0    0 -0.69115606011E+01 -0.28656592519E+02  0.21606852738E+02  0.36548954157E+02  0.00000000000E+00 0.  1.
</event>
<event>
 7    1  0.4555057E-015  0.9000755E+02  0.7816164E-02  0.1186339E+00
        -11   -1    0    0    0    0  0.00000000000E+00  0.00000000000E+00  0.45593999997E+02  0.45594000000E+02  0.51100000000E-03 0.  1.
         11   -1    0    0    0    0 -0.00000000000E+00 -0.00000000000E+00 -0.45593999997E+02  0.45594000000E+02  0.51100000000E-03 0. -1.
    9900012    2    1    2    0    0  0.44835092359E+00 -0.10679719576E+00 -0.10867601281E+01  0.90007545949E+02  0.89999804755E+02 0.  0.
        -12    1    1    2    0    0 -0.44835092359E+00  0.10679719576E+00  0.10867601281E+01  0.11804540515E+01  0.00000000000E+00 0.  1.
         11    1    3    3    0    0  0.70095421315E+01 -0.65369886114E+01  0.11069970778E+01  0.96483855535E+01  0.51100000000E-03 0. -1.
        -11    1    3    3    0    0  0.26922695623E+00 -0.75591381068E+01 -0.39351585583E+02  0.40071939562E+02  0.51100000000E-03 0.  1.
         12    1    3    3    0    0 -0.68304181641E+01  0.13989329522E+02  0.37157828377E+02  0.40287220833E+02  0.00000000000E+00 0. -1.
</event>
<event>
 7    1  0.4555057E-015  0.9000798E+02  0.7816164E-02  0.1186339E+00
        -11   -1    0    0    0    0  0.00000000000E+00  0.00000000000E+00  0.45593999997E+02  0.45594000000E+02  0.51100000000E-03 0.  1.
         11   -1    0    0    0    0 -0.00000000000E+00 -0.00000000000E+00 -0.45593999997E+02  0.45594000000E+02  0.51100000000E-03 0. -1.
    9900012    2    1    2    0    0 -0.96744200981E-01  0.79426303915E+00 -0.86731155382E+00  0.90007981972E+02  0.90000246533E+02 0.  0.
        -12    1    1    2    0    0  0.96744200981E-01 -0.79426303915E+00  0.86731155382E+00  0.11800180283E+01  0.00000000000E+00 0.  1.
         11    1    3    3    0    0  0.49767506003E+00 -0.38615411639E+02  0.29130318341E+01  0.38728328795E+02  0.51100000000E-03 0. -1.
        -11    1    3    3    0    0 -0.45226364762E+01 -0.89154052425E+00  0.78911626738E+01  0.91389022212E+01  0.51100000000E-03 0.  1.
        -12    1    3    3    0    0  0.39282172152E+01  0.40301215203E+02 -0.11671506062E+02  0.42140750955E+02  0.00000000000E+00 0.  1.
</event>
<event>
 7    1  0.4555057E-015  0.9000787E+02  0.7816164E-02  0.1186339E+00
        -11   -1    0    0    0    0  0.00000000000E+00  0.00000000000E+00  0.45593999997E+02  0.45594000000E+02  0.51100000000E-03 0. -1.
         11   -1    0    0    0    0 -0.00000000000E+00 -0.00000000000E+00 -0.45593999997E+02  0.45594000000E+02  0.51100000000E-03 0.  1.
    9900012    2    1    2    0    0  0.83879971426E+00 -0.24955815148E+00  0.79173947730E+00  0.90007866265E+02  0.90000129300E+02 0.  0.
        -12    1    1    2    0    0 -0.83879971426E+00  0.24955815148E+00 -0.79173947730E+00  0.11801337346E+01  0.00000000000E+00 0.  1.
         11    1    3    3    0    0  0.25510345216E+02 -0.18035819855E+01 -0.32804652487E+01  0.25783562080E+02  0.51100000000E-03 0. -1.
        -11    1    3    3    0    0  0.16437677732E+02  0.12591990862E+02 -0.34723772286E+01  0.20995544455E+02  0.51100000000E-03 0.  1.
        -12    1    3    3    0    0 -0.41109223233E+02 -0.11037967028E+02  0.75445819546E+01  0.43228759731E+02  0.00000000000E+00 0.  1.
</event>
<event>
 7    1  0.4555057E-015  0.9000772E+02  0.7816164E-02  0.1186339E+00
        -11   -1    0    0    0    0  0.00000000000E+00  0.00000000000E+00  0.45593999997E+02  0.45594000000E+02  0.51100000000E-03 0.  1.
         11   -1    0    0    0    0 -0.00000000000E+00 -0.00000000000E+00 -0.45593999997E+02  0.45594000000E+02  0.51100000000E-03 0. -1.
    9900012    2    1    2    0    0 -0.48311505558E+00 -0.92596613113E+00 -0.54977004762E+00  0.90007720144E+02  0.89999981250E+02 0.  0.
        -12    1    1    2    0    0  0.48311505558E+00  0.92596613113E+00  0.54977004762E+00  0.11802798559E+01  0.00000000000E+00 0.  1.
         11    1    3    3    0    0  0.31443885305E+02  0.18573021624E+02  0.92448356546E+01  0.37671501720E+02  0.51100000000E-03 0. -1.
        -11    1    3    3    0    0 -0.27161705179E+01  0.97212797154E+01 -0.20461011264E+01  0.10298902450E+02  0.51100000000E-03 0.  1.
        -12    1    3    3    0    0 -0.29210829843E+02 -0.29220267471E+02 -0.77485045758E+01  0.42037315974E+02  0.00000000000E+00 0.  1.
</event>
<event>
 7    1  0.4555057E-015  0.9000794E+02  0.7816164E-02  0.1186339E+00
        -11   -1    0    0    0    0  0.00000000000E+00  0.00000000000E+00  0.45593999997E+02  0.45594000000E+02  0.51100000000E-03 0.  1.
         11   -1    0    0    0    0 -0.00000000000E+00 -0.00000000000E+00 -0.45593999997E+02  0.45594000000E+02  0.51100000000E-03 0. -1.
    9900012    2    1    2    0    0 -0.69501400700E+00  0.23239770297E-01 -0.95339482971E+00  0.90007938028E+02  0.90000202010E+02 0.  0.
        -12    1    1    2    0    0  0.69501400700E+00 -0.23239770297E-01  0.95339482971E+00  0.11800619722E+01  0.00000000000E+00 0.  1.
         11    1    3    3    0    0  0.11087166941E+02  0.21614392754E+02 -0.12937500998E+02  0.27522466772E+02  0.51100000000E-03 0. -1.
        -11    1    3    3    0    0 -0.11561858624E+01  0.18799422140E+02 -0.66620069105E+00  0.18846720196E+02  0.51100000000E-03 0.  1.
        -12    1    3    3    0    0 -0.10625995085E+02 -0.40390575124E+02  0.12650306860E+02  0.43638751059E+02  0.00000000000E+00 0.  1.
</event>
<event>
 7    1  0.4555057E-015  0.9000777E+02  0.7816164E-02  0.1186339E+00
        -11   -1    0    0    0    0  0.00000000000E+00  0.00000000000E+00  0.45593999997E+02  0.45594000000E+02  0.51100000000E-03 0.  1.
         11   -1    0    0    0    0 -0.00000000000E+00 -0.00000000000E+00 -0.45593999997E+02  0.45594000000E+02  0.51100000000E-03 0. -1.
    9900012    2    1    2    0    0  0.95316467055E+00 -0.63189848739E+00 -0.29174248481E+00  0.90007774486E+02  0.90000036309E+02 0.  0.
        -12    1    1    2    0    0 -0.95316467055E+00  0.63189848739E+00  0.29174248481E+00  0.11802255145E+01  0.00000000000E+00 0.  1.
         11    1    3    3    0    0  0.39724055901E+02 -0.13297059180E+02 -0.16251039701E+02  0.44932267823E+02  0.51100000000E-03 0. -1.
        -11    1    3    3    0    0 -0.10760417995E+02 -0.12480994484E+01  0.31789882200E+01  0.11289389444E+02  0.51100000000E-03 0.  1.
        -12    1    3    3    0    0 -0.28010473235E+02  0.13913260141E+02  0.12780308997E+02  0.33786117218E+02  0.00000000000E+00 0.  1.
</event>
<event>
 7    1  0.4555057E-015  0.9000784E+02  0.7816164E-02  0.1186339E+00
        -11   -1    0    0    0    0  0.00000000000E+00  0.00000000000E+00  0.45593999997E+02  0.45594000000E+02  0.51100000000E-03 0. -1.
         11   -1    0    0    0    0 -0.00000000000E+00 -0.00000000000E+00 -0.45593999997E+02  0.45594000000E+02  0.51100000000E-03 0.  1.
    9900012    2    1    2    0    0 -0.98331040747E+00  0.64809927291E+00 -0.76513658593E-01  0.90007836297E+02  0.90000098936E+02 0.  0.
        -12    1    1    2    0    0  0.98331040747E+00 -0.64809927291E+00  0.76513658593E-01  0.11801637026E+01  0.00000000000E+00 0.  1.
         11    1    3    3    0    0  0.22255981892E+02 -0.35269511374E+01  0.34913575254E+02  0.41553890932E+02  0.51100000000E-03 0. -1.
        -11    1    3    3    0    0  0.17676828965E+01 -0.61976852730E+01 -0.66162258854E+01  0.92363656702E+01  0.51100000000E-03 0.  1.
        -12    1    3    3    0    0 -0.25006975196E+02  0.10372735683E+02 -0.28373863028E+02  0.39217579695E+02  0.00000000000E+00 0.  1.
</event>
<event>
 7    1  0.4555057E-015  0.9000772E+02  0.7816164E-02  0.1186339E+00
        -11   -1    0    0    0    0  0.00000000000E+00  0.00000000000E+00  0.45593999997E+02  0.45594000000E+02  0.51100000000E-03 0. -1.
         11   -1    0    0    0    0 -0.00000000000E+00 -0.00000000000E+00 -0.45593999997E+02  0.45594000000E+02  0.51100000000E-03 0.  1.
    9900012    2    1    2    0    0 -0.79686158831E+00 -0.85863889448E+00  0.14423946598E+00  0.90007722844E+02  0.89999983985E+02 0.  0.
        -12    1    1    2    0    0  0.79686158831E+00  0.85863889448E+00 -0.14423946598E+00  0.11802771563E+01  0.00000000000E+00 0.  1.
         11    1    3    3    0    0 -0.21296963453E+01 -0.32810228402E+01  0.87148127392E+01  0.95524174292E+01  0.51100000000E-03 0. -1.
        -11    1    3    3    0    0 -0.20565834087E+02 -0.19187263391E+02  0.23029625500E+02  0.36352004884E+02  0.51100000000E-03 0.  1.
         12    1    3    3    0    0  0.21898668844E+02  0.21609647337E+02 -0.31600198773E+02  0.44103300531E+02  0.00000000000E+00 0. -1.
</event>
<event>
 7    1  0.4555057E-015  0.9000817E+02  0.7816164E-02  0.1186338E+00
        -11   -1    0    0    0    0  0.00000000000E+00  0.00000000000E+00  0.45593999997E+02  0.45594000000E+02  0.51100000000E-03 0. -1.
         11   -1    0    0    0    0 -0.00000000000E+00 -0.00000000000E+00 -0.45593999997E+02  0.45594000000E+02  0.51100000000E-03 0.  1.
    9900012    2    1    2    0    0 -0.35457944211E+00  0.11241288790E+01 -0.51070302652E-01  0.90008169295E+02  0.90000436328E+02 0.  0.
        -12    1    1    2    0    0  0.35457944211E+00 -0.11241288790E+01  0.51070302652E-01  0.11798307053E+01  0.00000000000E+00 0.  1.
         11    1    3    3    0    0 -0.34668398102E+02 -0.17464958157E+02  0.96150830313E+01  0.39992154385E+02  0.51100000000E-03 0. -1.
        -11    1    3    3    0    0  0.15821821361E+02  0.23059491921E+01  0.96785166670E+01  0.18690134242E+02  0.51100000000E-03 0.  1.
        -12    1    3    3    0    0  0.18491997299E+02  0.16283137844E+02 -0.19344670001E+02  0.31325880668E+02  0.00000000000E+00 0.  1.
</event>
<event>
 7    1  0.4555057E-015  0.9000772E+02  0.7816164E-02  0.1186339E+00
        -11   -1    0    0    0    0  0.00000000000E+00  0.00000000000E+00  0.45593999997E+02  0.45594000000E+02  0.51100000000E-03 0. -1.
         11   -1    0    0    0    0 -0.00000000000E+00 -0.00000000000E+00 -0.45593999997E+02  0.45594000000E+02  0.51100000000E-03 0.  1.
    9900012    2    1    2    0    0 -0.91808006693E+00 -0.73976529574E+00 -0.54114151668E-01  0.90007723743E+02  0.89999984896E+02 0.  0.
        -12    1    1    2    0    0  0.91808006693E+00  0.73976529574E+00  0.54114151668E-01  0.11802762573E+01  0.00000000000E+00 0.  1.
         11    1    3    3    0    0  0.16091462077E+01  0.44816298187E+01  0.91533034982E+01  0.10317815783E+02  0.51100000000E-03 0. -1.
        -11    1    3    3    0    0  0.27649466833E+02  0.41809044094E+01 -0.30654381976E+02  0.41492940513E+02  0.51100000000E-03 0.  1.
         12    1    3    3    0    0 -0.30176693108E+02 -0.94022995238E+01  0.21446964326E+02  0.38196967446E+02  0.00000000000E+00 0. -1.
</event>
<event>
 7    1  0.4555057E-015  0.9000768E+02  0.7816164E-02  0.1186339E+00
        -11   -1    0    0    0    0  0.00000000000E+00  0.00000000000E+00  0.45593999997E+02  0.45594000000E+02  0.51100000000E-03 0. -1.
         11   -1    0    0    0    0 -0.00000000000E+00 -0.00000000000E+00 -0.45593999997E+02  0.45594000000E+02  0.51100000000E-03 0.  1.
    9900012    2    1    2    0    0  0.18995729509E-01  0.21838273195E-01  0.11799683716E+01  0.90007676694E+02  0.89999937227E+02 0.  0.
        -12    1    1    2    0    0 -0.18995729509E-01 -0.21838273195E-01 -0.11799683716E+01  0.11803233056E+01  0.00000000000E+00 0.  1.
         11    1    3    3    0    0 -0.30449828972E+02  0.13572076877E+02 -0.19621198500E+02  0.38683133095E+02  0.51100000000E-03 0. -1.
        -11    1    3    3    0    0 -0.48512599365E+01 -0.81407630334E+01 -0.89938363174E+00  0.95192245964E+01  0.51100000000E-03 0.  1.
        -12    1    3    3    0    0  0.35320084638E+02 -0.54094755709E+01  0.21700550504E+02  0.41805319003E+02  0.00000000000E+00 0.  1.
</event>
<event>
 7    1  0.4555057E-015  0.9000773E+02  0.7816164E-02  0.1186339E+00
        -11   -1    0    0    0    0  0.00000000000E+00  0.00000000000E+00  0.45593999997E+02  0.45594000000E+02  0.51100000000E-03 0.  1.
         11   -1    0    0    0    0 -0.00000000000E+00 -0.00000000000E+00 -0.45593999997E+02  0.45594000000E+02  0.51100000000E-03 0. -1.
    9900012    2    1    2    0    0  0.70663232704E-01 -0.11134241301E+01 -0.38513354375E+00  0.90007731203E+02  0.89999992455E+02 0.  0.
        -12    1    1    2    0    0 -0.70663232704E-01  0.11134241301E+01  0.38513354375E+00  0.11802687967E+01  0.00000000000E+00 0.  1.
         11    1    3    3    0    0 -0.18718550922E+01 -0.31605673260E+01 -0.97963454463E+01  0.10462380784E+02  0.51100000000E-03 0. -1.
        -11    1    3    3    0    0 -0.16173356044E+02 -0.34509998605E+02  0.62788596123E+01  0.38625658929E+02  0.51100000000E-03 0.  1.
         12    1    3    3    0    0  0.18115874369E+02  0.36557141801E+02  0.31323522902E+01  0.40919691490E+02  0.00000000000E+00 0. -1.
</event>
<event>
 7    1  0.4555057E-015  0.9000767E+02  0.7816164E-02  0.1186339E+00
        -11   -1    0    0    0    0  0.00000000000E+00  0.00000000000E+00  0.45593999997E+02  0.45594000000E+02  0.51100000000E-03 0. -1.
         11   -1    0    0    0    0 -0.00000000000E+00 -0.00000000000E+00 -0.45593999997E+02  0.45594000000E+02  0.51100000000E-03 0.  1.
    9900012    2    1    2    0    0 -0.10047953448E+01 -0.51320579484E-01  0.61720447348E+00  0.90007665789E+02  0.89999926178E+02 0.  0.
        -12    1    1    2    0    0  0.10047953448E+01  0.51320579484E-01 -0.61720447348E+00  0.11803342107E+01  0.00000000000E+00 0.  1.
         11    1    3    3    0    0 -0.17248347810E+02 -0.18258973024E+02  0.37380568311E+02  0.45035569116E+02  0.51100000000E-03 0. -1.
        -11    1    3    3    0    0  0.83890827037E+00  0.32137277507E+01 -0.10609909298E+02  0.11117643128E+02  0.51100000000E-03 0.  1.
        -12    1    3    3    0    0  0.15404644195E+02  0.14993924694E+02 -0.26153454539E+02  0.33854453545E+02  0.00000000000E+00 0.  1.
</event>
<event>
 7    1  0.4555057E-015  0.9000780E+02  0.7816164E-02  0.1186339E+00
        -11   -1    0    0    0    0  0.00000000000E+00  0.00000000000E+00  0.45593999997E+02  0.45594000000E+02  0.51100000000E-03 0. -1.
         11   -1    0    0    0    0 -0.00000000000E+00 -0.00000000000E+00 -0.45593999997E+02  0.45594000000E+02  0.51100000000E-03 0.  1.
    9900012    2    1    2    0    0 -0.11239226857E+00  0.10618788271E+01 -0.50264744198E+00  0.90007799544E+02  0.90000061698E+02 0.  0.
        -12    1    1    2    0    0  0.11239226857E+00 -0.10618788271E+01  0.50264744198E+00  0.11802004560E+01  0.00000000000E+00 0.  1.
         11    1    3    3    0    0 -0.57043623909E+01  0.25625008450E+02  0.14642283836E+02  0.30059562281E+02  0.51100000000E-03 0. -1.
        -11    1    3    3    0    0  0.18134480433E+02  0.10282193679E+02 -0.35896679692E+01  0.21153453709E+02  0.51100000000E-03 0.  1.
        -12    1    3    3    0    0 -0.12542510310E+02 -0.34845323302E+02 -0.11555263309E+02  0.38794783554E+02  0.00000000000E+00 0.  1.
</event>
<event>
 7    1  0.4555057E-015  0.9000773E+02  0.7816164E-02  0.1186339E+00
        -11   -1    0    0    0    0  0.00000000000E+00  0.00000000000E+00  0.45593999997E+02  0.45594000000E+02  0.51100000000E-03 0.  1.
         11   -1    0    0    0    0 -0.00000000000E+00 -0.00000000000E+00 -0.45593999997E+02  0.45594000000E+02  0.51100000000E-03 0. -1.
    9900012    2    1    2    0    0  0.10325694599E+00  0.93328468479E-01 -0.11720324069E+01  0.90007732165E+02  0.89999993429E+02 0.  0.
        -12    1    1    2    0    0 -0.10325694599E+00 -0.93328468479E-01  0.11720324069E+01  0.11802678352E+01  0.00000000000E+00 0.  1.
         11    1    3    3    0    0  0.19801139902E+02  0.25355193129E+02  0.93543076457E+01  0.33503343592E+02  0.51100000000E-03 0. -1.
        -11    1    3    3    0    0  0.60384480299E+01  0.99148740081E+01  0.22724449137E+00  0.11611167966E+02  0.51100000000E-03 0.  1.
        -12    1    3    3    0    0 -0.25736330986E+02 -0.35176738669E+02 -0.10753584544E+02  0.44893220608E+02  0.00000000000E+00 0.  1.
</event>
<event>
 7    1  0.4555057E-015  0.9000783E+02  0.7816164E-02  0.1186339E+00
        -11   -1    0    0    0    0  0.00000000000E+00  0.00000000000E+00  0.45593999997E+02  0.45594000000E+02  0.51100000000E-03 0. -1.
         11   -1    0    0    0    0 -0.00000000000E+00 -0.00000000000E+00 -0.45593999997E+02  0.45594000000E+02  0.51100000000E-03 0.  1.
    9900012    2    1    2    0    0  0.11966869613E-02 -0.47745444394E-01  0.11792008763E+01  0.90007832314E+02  0.90000094901E+02 0.  0.
        -12    1    1    2    0    0 -0.11966869613E-02  0.47745444394E-01 -0.11792008763E+01  0.11801676857E+01  0.00000000000E+00 0.  1.
         11    1    3    3    0    0 -0.28638051040E+02  0.23416056773E+02  0.18918846562E+02  0.41549638238E+02  0.51100000000E-03 0. -1.
        -11    1    3    3    0    0 -0.33724067275E+01 -0.79765832998E+01  0.12671469795E+00  0.86611237810E+01  0.51100000000E-03 0.  1.
        -12    1    3    3    0    0  0.32011654455E+02 -0.15487218918E+02 -0.17866360384E+02  0.39797070295E+02  0.00000000000E+00 0.  1.
</event>
<event>
 7    1  0.4555057E-015  0.9000778E+02  0.7816164E-02  0.1186339E+00
        -11   -1    0    0    0    0  0.00000000000E+00  0.00000000000E+00  0.45593999997E+02  0.45594000000E+02  0.51100000000E-03 0.  1.
         11   -1    0    0    0    0 -0.00000000000E+00 -0.00000000000E+00 -0.45593999997E+02  0.45594000000E+02  0.51100000000E-03 0. -1.
    9900012    2    1    2    0    0  0.81425771594E-01  0.20485188500E+00 -0.11594546946E+01  0.90007775598E+02  0.90000037436E+02 0.  0.
        -12    1    1    2    0    0 -0.81425771594E-01 -0.20485188500E+00  0.11594546946E+01  0.11802244024E+01  0.00000000000E+00 0.  1.
         11    1    3    3    0    0  0.21375119072E+02 -0.12969645272E+02 -0.76724997856E+01  0.26152909342E+02  0.51100000000E-03 0. -1.
        -11    1    3    3    0    0  0.13741948090E+02  0.22298857073E+02 -0.31535874698E+01  0.26382290997E+02  0.51100000000E-03 0.  1.
        -12    1    3    3    0    0 -0.35035641390E+02 -0.91243599156E+01  0.96666325608E+01  0.37472575259E+02  0.00000000000E+00 0.  1.
</event>
<event>
 7    1  0.4555057E-015  0.9000772E+02  0.7816164E-02  0.1186339E+00
        -11   -1    0    0    0    0  0.00000000000E+00  0.00000000000E+00  0.45593999997E+02  0.45594000000E+02  0.51100000000E-03 0.  1.
         11   -1    0    0    0    0 -0.00000000000E+00 -0.00000000000E+00 -0.45593999997E+02  0.45594000000E+02  0.51100000000E-03 0. -1.
    9900012    2    1    2    0    0 -0.77792438081E+00  0.87651571291E+00  0.14004781611E+00  0.90007720572E+02  0.89999981684E+02 0.  0.
        -12    1    1    2    0    0  0.77792438081E+00 -0.87651571291E+00 -0.14004781611E+00  0.11802794279E+01  0.00000000000E+00 0.  1.
         11    1    3    3    0    0  0.15596984920E+02 -0.22324441673E+02 -0.25743036265E+02  0.37474665456E+02  0.51100000000E-03 0. -1.
        -11    1    3    3    0    0  0.74501203878E+01 -0.46290297118E+01  0.75190086753E+01  0.11552822235E+02  0.51100000000E-03 0.  1.
        -12    1    3    3    0    0 -0.23825029688E+02  0.27829987098E+02  0.18364075406E+02  0.40980232882E+02  0.00000000000E+00 0.  1.
</event>
<event>
 7    1  0.4555057E-015  0.9000775E+02  0.7816164E-02  0.1186339E+00
        -11   -1    0    0    0    0  0.00000000000E+00  0.00000000000E+00  0.45593999997E+02  0.45594000000E+02  0.51100000000E-03 0.  1.
         11   -1    0    0    0    0 -0.00000000000E+00 -0.00000000000E+00 -0.45593999997E+02  0.45594000000E+02  0.51100000000E-03 0. -1.
    9900012    2    1    2    0    0 -0.65334130887E-01 -0.42468499209E+00 -0.10992518075E+01  0.90007754082E+02  0.90000015636E+02 0.  0.
        -12    1    1    2    0    0  0.65334130887E-01  0.42468499209E+00  0.10992518075E+01  0.11802459182E+01  0.00000000000E+00 0.  1.
         11    1    3    3    0    0 -0.10938418943E+02 -0.23634003176E+01  0.51052584920E+01  0.12300338799E+02  0.51100000000E-03 0. -1.
        -11    1    3    3    0    0 -0.12989504609E+02  0.22278445878E+02  0.23224648432E+02  0.34705052598E+02  0.51100000000E-03 0.  1.
         12    1    3    3    0    0  0.23862589421E+02 -0.20339730553E+02 -0.29429158732E+02  0.43002362685E+02  0.00000000000E+00 0. -1.
</event>
<event>
 7    1  0.4555057E-015  0.9000770E+02  0.7816164E-02  0.1186339E+00
        -11   -1    0    0    0    0  0.00000000000E+00  0.00000000000E+00  0.45593999997E+02  0.45594000000E+02  0.51100000000E-03 0.  1.
         11   -1    0    0    0    0 -0.00000000000E+00 -0.00000000000E+00 -0.45593999997E+02  0.45594000000E+02  0.51100000000E-03 0. -1.
    9900012    2    1    2    0    0  0.29260208769E+00 -0.91902084497E+00  0.68036229268E+00  0.90007699977E+02  0.89999960817E+02 0.  0.
        -12    1    1    2    0    0 -0.29260208769E+00  0.91902084497E+00 -0.68036229268E+00  0.11803000231E+01  0.00000000000E+00 0.  1.
         11    1    3    3    0    0 -0.86993407418E+00  0.32018651813E+02  0.25840534470E+02  0.41154393097E+02  0.51100000000E-03 0. -1.
        -11    1    3    3    0    0  0.51243032116E+01  0.26979388097E+01 -0.53771474085E+01  0.79025990496E+01  0.51100000000E-03 0.  1.
        -12    1    3    3    0    0 -0.39617670497E+01 -0.35635611468E+02 -0.19783024769E+02  0.40950707831E+02  0.00000000000E+00 0.  1.
</event>
<event>
 7    1  0.4555057E-015  0.9000778E+02  0.7816164E-02  0.1186339E+00
        -11   -1    0    0    0    0  0.00000000000E+00  0.00000000000E+00  0.45593999997E+02  0.45594000000E+02  0.51100000000E-03 0. -1.
         11   -1    0    0    0    0 -0.00000000000E+00 -0.00000000000E+00 -0.45593999997E+02  0.45594000000E+02  0.51100000000E-03 0.  1.
    9900012    2    1    2    0    0  0.26134287863E+00 -0.97167888955E+00 -0.61682073504E+00  0.90007776384E+02  0.90000038232E+02 0.  0.
        -12    1    1    2    0    0 -0.26134287863E+00  0.97167888955E+00  0.61682073504E+00  0.11802236160E+01  0.00000000000E+00 0.  1.
         11    1    3    3    0    0 -0.92467973020E+01  0.10339886583E+01  0.29911749967E+01  0.97734088736E+01  0.51100000000E-03 0. -1.
        -11    1    3    3    0    0  0.21777553283E+02  0.17825421213E+02 -0.32574310791E+02  0.43047568946E+02  0.51100000000E-03 0.  1.
         12    1    3    3    0    0 -0.12269413102E+02 -0.19831088761E+02  0.28966315059E+02  0.37186798564E+02  0.00000000000E+00 0. -1.
</event>
<event>
 7    1  0.4555057E-015  0.9000781E+02  0.7816164E-02  0.1186339E+00
        -11   -1    0    0    0    0  0.00000000000E+00  0.00000000000E+00  0.45593999997E+02  0.45594000000E+02  0.51100000000E-03 0.  1.
         11   -1    0    0    0    0 -0.00000000000E+00 -0.00000000000E+00 -0.45593999997E+02  0.45594000000E+02  0.51100000000E-03 0. -1.
    9900012    2    1    2    0    0  0.95524113849E+00  0.43021286249E+00  0.54340527092E+00  0.90007805936E+02  0.90000068175E+02 0.  0.
        -12    1    1    2    0    0 -0.95524113849E+00 -0.43021286249E+00 -0.54340527092E+00  0.11801940638E+01  0.00000000000E+00 0.  1.
         11    1    3    3    0    0 -0.50956232866E+01 -0.70321000138E+01  0.73018477595E+01  0.11346047252E+02  0.51100000000E-03 0. -1.
        -11    1    3    3    0    0 -0.12599688504E+02 -0.23885779109E+02  0.19846320439E+02  0.33513564854E+02  0.51100000000E-03 0.  1.
         12    1    3    3    0    0  0.18650552929E+02  0.31348091985E+02 -0.26604762927E+02  0.45148193830E+02  0.00000000000E+00 0. -1.
</event>
<event>
 7    1  0.4555057E-015  0.9000771E+02  0.7816164E-02  0.1186339E+00
        -11   -1    0    0    0    0  0.00000000000E+00  0.00000000000E+00  0.45593999997E+02  0.45594000000E+02  0.51100000000E-03 0.  1.
         11   -1    0    0    0    0 -0.00000000000E+00 -0.00000000000E+00 -0.45593999997E+02  0.45594000000E+02  0.51100000000E-03 0. -1.
    9900012    2    1    2    0    0 -0.53400866908E+00  0.10425134754E+01 -0.14516751238E+00  0.90007714775E+02  0.89999975810E+02 0.  0.
        -12    1    1    2    0    0  0.53400866908E+00 -0.10425134754E+01  0.14516751238E+00  0.11802852247E+01  0.00000000000E+00 0.  1.
         11    1    3    3    0    0  0.27477388164E+01 -0.31059678305E+00 -0.85610185257E+01  0.89965314106E+01  0.51100000000E-03 0. -1.
        -11    1    3    3    0    0  0.27240012390E+02 -0.20750696092E+02  0.22283763451E+02  0.40855547690E+02  0.51100000000E-03 0.  1.
         12    1    3    3    0    0 -0.30521759875E+02  0.22103806350E+02 -0.13867912438E+02  0.40155635674E+02  0.00000000000E+00 0. -1.
</event>
<event>
 7    1  0.4555057E-015  0.9000773E+02  0.7816164E-02  0.1186339E+00
        -11   -1    0    0    0    0  0.00000000000E+00  0.00000000000E+00  0.45593999997E+02  0.45594000000E+02  0.51100000000E-03 0. -1.
         11   -1    0    0    0    0 -0.00000000000E+00 -0.00000000000E+00 -0.45593999997E+02  0.45594000000E+02  0.51100000000E-03 0.  1.
    9900012    2    1    2    0    0  0.10232949081E+01  0.14450222697E+00  0.57011878703E+00  0.90007725119E+02  0.89999986291E+02 0.  0.
        -12    1    1    2    0    0 -0.10232949081E+01 -0.14450222697E+00 -0.57011878703E+00  0.11802748807E+01  0.00000000000E+00 0.  1.
         11    1    3    3    0    0  0.70470617818E+01 -0.47157291913E+01  0.54394930212E+01  0.10074088850E+02  0.51100000000E-03 0. -1.
        -11    1    3    3    0    0  0.29046120996E+02  0.24955765906E+02 -0.88959038561E+01  0.39314176865E+02  0.51100000000E-03 0.  1.
         12    1    3    3    0    0 -0.35069887870E+02 -0.20095534488E+02  0.40265296220E+01  0.40619459405E+02  0.00000000000E+00 0. -1.
</event>
<event>
 7    1  0.4555057E-015  0.9000778E+02  0.7816164E-02  0.1186339E+00
        -11   -1    0    0    0    0  0.00000000000E+00  0.00000000000E+00  0.45593999997E+02  0.45594000000E+02  0.51100000000E-03 0. -1.
         11   -1    0    0    0    0 -0.00000000000E+00 -0.00000000000E+00 -0.45593999997E+02  0.45594000000E+02  0.51100000000E-03 0.  1.
    9900012    2    1    2    0    0  0.10550785160E+01 -0.52726845616E+00  0.41359782821E-01  0.90007782507E+02  0.90000044436E+02 0.  0.
        -12    1    1    2    0    0 -0.10550785160E+01  0.52726845616E+00 -0.41359782821E-01  0.11802174933E+01  0.00000000000E+00 0.  1.
         11    1    3    3    0    0  0.44115441519E+01  0.56986764704E+01  0.53991307313E+01  0.90048458195E+01  0.51100000000E-03 0. -1.
        -11    1    3    3    0    0 -0.26502470776E+02  0.28551855231E+02 -0.45300219236E+01  0.39218751806E+02  0.51100000000E-03 0.  1.
         12    1    3    3    0    0  0.23146005140E+02 -0.34777800157E+02 -0.82774902489E+00  0.41784184881E+02  0.00000000000E+00 0. -1.
</event>
<event>
 7    1  0.4555057E-015  0.9000773E+02  0.7816164E-02  0.1186339E+00
        -11   -1    0    0    0    0  0.00000000000E+00  0.00000000000E+00  0.45593999997E+02  0.45594000000E+02  0.51100000000E-03 0.  1.
         11   -1    0    0    0    0 -0.00000000000E+00 -0.00000000000E+00 -0.45593999997E+02  0.45594000000E+02  0.51100000000E-03 0. -1.
    9900012    2    1    2    0    0 -0.74448839635E+00 -0.40390246676E+00 -0.82196771236E+00  0.90007732617E+02  0.89999993888E+02 0.  0.
        -12    1    1    2    0    0  0.74448839635E+00  0.40390246676E+00  0.82196771236E+00  0.11802673829E+01  0.00000000000E+00 0.  1.
         11    1    3    3    0    0  0.16197922110E+02 -0.17784536646E+02 -0.36936612922E+02  0.44079199163E+02  0.51100000000E-03 0. -1.
        -11    1    3    3    0    0  0.25854474448E+01  0.35886178384E+01  0.66192255389E+01  0.79609587034E+01  0.51100000000E-03 0.  1.
        -12    1    3    3    0    0 -0.19527857951E+02  0.13792016341E+02  0.29495419671E+02  0.37967574751E+02  0.00000000000E+00 0.  1.
</event>
<event>
 7    1  0.4555057E-015  0.9000800E+02  0.7816164E-02  0.1186339E+00
        -11   -1    0    0    0    0  0.00000000000E+00  0.00000000000E+00  0.45593999997E+02  0.45594000000E+02  0.51100000000E-03 0.  1.
         11   -1    0    0    0    0 -0.00000000000E+00 -0.00000000000E+00 -0.45593999997E+02  0.45594000000E+02  0.51100000000E-03 0. -1.
    9900012    2    1    2    0    0 -0.11014430105E+01 -0.10724884593E+00 -0.40954695507E+00  0.90007996725E+02  0.90000261481E+02 0.  0.
        -12    1    1    2    0    0  0.11014430105E+01  0.10724884593E+00  0.40954695507E+00  0.11800032749E+01  0.00000000000E+00 0.  1.
         11    1    3    3    0    0 -0.17150959398E+01  0.14482637581E+02 -0.36972979472E+00  0.14588524455E+02  0.51100000000E-03 0. -1.
        -11    1    3    3    0    0  0.22600980969E+02  0.20562215309E+02 -0.11097847299E+02  0.32508018305E+02  0.51100000000E-03 0.  1.
         12    1    3    3    0    0 -0.21987328040E+02 -0.35152101737E+02  0.11058030138E+02  0.42911453965E+02  0.00000000000E+00 0. -1.
</event>
<event>
 7    1  0.4555057E-015  0.9000745E+02  0.7816164E-02  0.1186340E+00
        -11   -1    0    0    0    0  0.00000000000E+00  0.00000000000E+00  0.45593999997E+02  0.45594000000E+02  0.51100000000E-03 0. -1.
         11   -1    0    0    0    0 -0.00000000000E+00 -0.00000000000E+00 -0.45593999997E+02  0.45594000000E+02  0.51100000000E-03 0.  1.
    9900012    2    1    2    0    0 -0.67720795364E+00  0.68577075332E+00  0.68176786489E+00  0.90007449467E+02  0.89999707000E+02 0.  0.
        -12    1    1    2    0    0  0.67720795364E+00 -0.68577075332E+00 -0.68176786489E+00  0.11805505327E+01  0.00000000000E+00 0.  1.
         11    1    3    3    0    0  0.18092307591E+02 -0.62719748516E+01 -0.38626780266E+02  0.43112613195E+02  0.51100000000E-03 0. -1.
        -11    1    3    3    0    0 -0.87807621907E+01  0.60873669002E+00  0.40239066238E+01  0.96780250974E+01  0.51100000000E-03 0.  1.
        -12    1    3    3    0    0 -0.99887533541E+01  0.63490089149E+01  0.35284641507E+02  0.37216811175E+02  0.00000000000E+00 0.  1.
</event>
<event>
 7    1  0.4555057E-015  0.9000734E+02  0.7816164E-02  0.1186340E+00
        -11   -1    0    0    0    0  0.00000000000E+00  0.00000000000E+00  0.45593999997E+02  0.45594000000E+02  0.51100000000E-03 0. -1.
         11   -1    0    0    0    0 -0.00000000000E+00 -0.00000000000E+00 -0.45593999997E+02  0.45594000000E+02  0.51100000000E-03 0.  1.
    9900012    2    1    2    0    0  0.58942141178E+00 -0.99164252846E+00  0.25137547551E+00  0.90007338264E+02  0.89999594328E+02 0.  0.
        -12    1    1    2    0    0 -0.58942141178E+00  0.99164252846E+00 -0.25137547551E+00  0.11806617359E+01  0.00000000000E+00 0.  1.
         11    1    3    3    0    0 -0.61309268977E+01 -0.27095375830E+02 -0.23019465266E+02  0.36078295933E+02  0.51100000000E-03 0. -1.
        -11    1    3    3    0    0  0.57654227860E+01 -0.48287962214E+01 -0.72624842451E+01  0.10454714272E+02  0.51100000000E-03 0.  1.
        -12    1    3    3    0    0  0.95492552351E+00  0.30932529523E+02  0.30533324987E+02  0.43474328059E+02  0.00000000000E+00 0.  1.
</event>
<event>
 7    1  0.4555057E-015  0.9000779E+02  0.7816164E-02  0.1186339E+00
        -11   -1    0    0    0    0  0.00000000000E+00  0.00000000000E+00  0.45593999997E+02  0.45594000000E+02  0.51100000000E-03 0.  1.
         11   -1    0    0    0    0 -0.00000000000E+00 -0.00000000000E+00 -0.45593999997E+02  0.45594000000E+02  0.51100000000E-03 0. -1.
    9900012    2    1    2    0    0 -0.79759228919E+00 -0.75430865882E+00 -0.43331026515E+00  0.90007791206E+02  0.90000053249E+02 0.  0.
        -12    1    1    2    0    0  0.79759228919E+00  0.75430865882E+00  0.43331026515E+00  0.11802087944E+01  0.00000000000E+00 0.  1.
         11    1    3    3    0    0  0.33167411755E+01 -0.35777576964E+01  0.96770473782E+01  0.10837267570E+02  0.51100000000E-03 0. -1.
        -11    1    3    3    0    0  0.40852722433E+01 -0.64917615214E+01  0.33222099867E+02  0.34096045764E+02  0.51100000000E-03 0.  1.
         12    1    3    3    0    0 -0.81996057080E+01  0.93152105590E+01 -0.43332457510E+02  0.45074477871E+02  0.00000000000E+00 0. -1.
</event>
<event>
 7    1  0.4555057E-015  0.9000773E+02  0.7816164E-02  0.1186339E+00
        -11   -1    0    0    0    0  0.00000000000E+00  0.00000000000E+00  0.45593999997E+02  0.45594000000E+02  0.51100000000E-03 0.  1.
         11   -1    0    0    0    0 -0.00000000000E+00 -0.00000000000E+00 -0.45593999997E+02  0.45594000000E+02  0.51100000000E-03 0. -1.
    9900012    2    1    2    0    0  0.18177179270E+00 -0.90217176619E+00 -0.73897387712E+00  0.90007730001E+02  0.89999991237E+02 0.  0.
        -12    1    1    2    0    0 -0.18177179270E+00  0.90217176619E+00  0.73897387712E+00  0.11802699994E+01  0.00000000000E+00 0.  1.
         11    1    3    3    0    0  0.16363825381E+01  0.53179591270E+01 -0.67761802410E+01  0.87678421522E+01  0.51100000000E-03 0. -1.
        -11    1    3    3    0    0  0.32879072641E+02  0.16339158038E+02  0.14180881866E+02  0.39358593902E+02  0.51100000000E-03 0.  1.
         12    1    3    3    0    0 -0.34333683387E+02 -0.22559288931E+02 -0.81436755025E+01  0.41881293947E+02  0.00000000000E+00 0. -1.
</event>
<event>
 7    1  0.4555057E-015  0.9000771E+02  0.7816164E-02  0.1186339E+00
        -11   -1    0    0    0    0  0.00000000000E+00  0.00000000000E+00  0.45593999997E+02  0.45594000000E+02  0.51100000000E-03 0.  1.
         11   -1    0    0    0    0 -0.00000000000E+00 -0.00000000000E+00 -0.45593999997E+02  0.45594000000E+02  0.51100000000E-03 0. -1.
    9900012    2    1    2    0    0 -0.86264631528E-01 -0.11254308520E+01 -0.34505030517E+00  0.90007705163E+02  0.89999966071E+02 0.  0.
        -12    1    1    2    0    0  0.86264631528E-01  0.11254308520E+01  0.34505030517E+00  0.11802948370E+01  0.00000000000E+00 0.  1.
         11    1    3    3    0    0 -0.26689485791E+01 -0.18091572351E+01 -0.35705895648E+02  0.35851182975E+02  0.51100000000E-03 0. -1.
        -11    1    3    3    0    0  0.36822588010E+01  0.17541388211E+01 -0.89413779460E+01  0.98277297844E+01  0.51100000000E-03 0.  1.
        -12    1    3    3    0    0 -0.10995748534E+01 -0.10704124380E+01  0.44302223289E+02  0.44328792404E+02  0.00000000000E+00 0.  1.
</event>
<event>
 7    1  0.4555057E-015  0.9000781E+02  0.7816164E-02  0.1186339E+00
        -11   -1    0    0    0    0  0.00000000000E+00  0.00000000000E+00  0.45593999997E+02  0.45594000000E+02  0.51100000000E-03 0.  1.
         11   -1    0    0    0    0 -0.00000000000E+00 -0.00000000000E+00 -0.45593999997E+02  0.45594000000E+02  0.51100000000E-03 0. -1.
    9900012    2    1    2    0    0  0.67413414416E+00  0.66232831026E+00 -0.70690861294E+00  0.90007807040E+02  0.90000069293E+02 0.  0.
        -12    1    1    2    0    0 -0.67413414416E+00 -0.66232831026E+00  0.70690861294E+00  0.11801929596E+01  0.00000000000E+00 0.  1.
         11    1    3    3    0    0 -0.96457325701E+01 -0.64203979587E-01  0.40441859184E-01  0.96460310372E+01  0.51100000000E-03 0. -1.
        -11    1    3    3    0    0 -0.31451737694E+02  0.60502840504E+01 -0.15708885031E+02  0.35673334723E+02  0.51100000000E-03 0.  1.
         12    1    3    3    0    0  0.41771604409E+02 -0.53237517605E+01  0.14961534559E+02  0.44688441280E+02  0.00000000000E+00 0. -1.
</event>
<event>
 7    1  0.4555057E-015  0.9000773E+02  0.7816164E-02  0.1186339E+00
        -11   -1    0    0    0    0  0.00000000000E+00  0.00000000000E+00  0.45593999997E+02  0.45594000000E+02  0.51100000000E-03 0.  1.
         11   -1    0    0    0    0 -0.00000000000E+00 -0.00000000000E+00 -0.45593999997E+02  0.45594000000E+02  0.51100000000E-03 0. -1.
    9900012    2    1    2    0    0 -0.80926202706E+00 -0.83138786139E+00  0.21660714901E+00  0.90007733309E+02  0.89999994589E+02 0.  0.
        -12    1    1    2    0    0  0.80926202706E+00  0.83138786139E+00 -0.21660714901E+00  0.11802666908E+01  0.00000000000E+00 0.  1.
         11    1    3    3    0    0 -0.77040945544E+01 -0.70463271200E+01 -0.55280875980E+01  0.11813701856E+02  0.51100000000E-03 0. -1.
        -11    1    3    3    0    0  0.41290090410E+02  0.93011643438E+01  0.97377985195E+01  0.43430495559E+02  0.51100000000E-03 0.  1.
         12    1    3    3    0    0 -0.34395257883E+02 -0.30862250852E+01 -0.39931037725E+01  0.34763535894E+02  0.00000000000E+00 0. -1.
</event>
<event>
 7    1  0.4555057E-015  0.9000781E+02  0.7816164E-02  0.1186339E+00
        -11   -1    0    0    0    0  0.00000000000E+00  0.00000000000E+00  0.45593999997E+02  0.45594000000E+02  0.51100000000E-03 0.  1.
         11   -1    0    0    0    0 -0.00000000000E+00 -0.00000000000E+00 -0.45593999997E+02  0.45594000000E+02  0.51100000000E-03 0. -1.
    9900012    2    1    2    0    0  0.58080367853E+00 -0.10214015975E+01 -0.11065251172E+00  0.90007814373E+02  0.90000076722E+02 0.  0.
        -12    1    1    2    0    0 -0.58080367853E+00  0.10214015975E+01  0.11065251172E+00  0.11801856273E+01  0.00000000000E+00 0.  1.
         11    1    3    3    0    0 -0.31893558988E+02  0.80016066084E+01  0.14543922942E+01  0.32914131774E+02  0.51100000000E-03 0. -1.
        -11    1    3    3    0    0 -0.63734251563E+01 -0.11615764499E+02  0.98624325482E+01  0.16517085371E+02  0.51100000000E-03 0.  1.
        -12    1    3    3    0    0  0.38847787823E+02  0.25927562934E+01 -0.11427477354E+02  0.40576597228E+02  0.00000000000E+00 0.  1.
</event>
<event>
 7    1  0.4555057E-015  0.9000763E+02  0.7816164E-02  0.1186339E+00
        -11   -1    0    0    0    0  0.00000000000E+00  0.00000000000E+00  0.45593999997E+02  0.45594000000E+02  0.51100000000E-03 0. -1.
         11   -1    0    0    0    0 -0.00000000000E+00 -0.00000000000E+00 -0.45593999997E+02  0.45594000000E+02  0.51100000000E-03 0.  1.
    9900012    2    1    2    0    0  0.17972238553E+00 -0.10273417860E+01  0.55275780669E+00  0.90007630366E+02  0.89999890286E+02 0.  0.
        -12    1    1    2    0    0 -0.17972238553E+00  0.10273417860E+01 -0.55275780669E+00  0.11803696344E+01  0.00000000000E+00 0.  1.
         11    1    3    3    0    0 -0.60982015840E+01  0.15418219151E+02 -0.21370129862E+02  0.27047957316E+02  0.51100000000E-03 0. -1.
        -11    1    3    3    0    0 -0.46681685715E+01  0.77379440145E+01 -0.14983776944E+02  0.17498032665E+02  0.51100000000E-03 0.  1.
         12    1    3    3    0    0  0.10946092541E+02 -0.24183504952E+02  0.36906664613E+02  0.45461640385E+02  0.00000000000E+00 0. -1.
</event>
<event>
 7    1  0.4555057E-015  0.9000783E+02  0.7816164E-02  0.1186339E+00
        -11   -1    0    0    0    0  0.00000000000E+00  0.00000000000E+00  0.45593999997E+02  0.45594000000E+02  0.51100000000E-03 0. -1.
         11   -1    0    0    0    0 -0.00000000000E+00 -0.00000000000E+00 -0.45593999997E+02  0.45594000000E+02  0.51100000000E-03 0.  1.
    9900012    2    1    2    0    0 -0.10073650268E+01 -0.48244293880E-01  0.61294139319E+00  0.90007826724E+02  0.90000089237E+02 0.  0.
        -12    1    1    2    0    0  0.10073650268E+01  0.48244293880E-01 -0.61294139319E+00  0.11801732757E+01  0.00000000000E+00 0.  1.
         11    1    3    3    0    0 -0.16293415559E+02 -0.15685715980E+02  0.28385690572E+02  0.36294138726E+02  0.51100000000E-03 0. -1.
        -11    1    3    3    0    0 -0.78334719139E+01 -0.69407034141E+01  0.90944986475E+00  0.10505415053E+02  0.51100000000E-03 0.  1.
        -12    1    3    3    0    0  0.23119522446E+02  0.22578175101E+02 -0.28682199043E+02  0.43208272946E+02  0.00000000000E+00 0.  1.
</event>
<event>
 7    1  0.4555057E-015  0.9000794E+02  0.7816164E-02  0.1186339E+00
        -11   -1    0    0    0    0  0.00000000000E+00  0.00000000000E+00  0.45593999997E+02  0.45594000000E+02  0.51100000000E-03 0.  1.
         11   -1    0    0    0    0 -0.00000000000E+00 -0.00000000000E+00 -0.45593999997E+02  0.45594000000E+02  0.51100000000E-03 0. -1.
    9900012    2    1    2    0    0 -0.63561597594E+00  0.68229179937E+00 -0.72318817243E+00  0.90007944535E+02  0.90000208602E+02 0.  0.
        -12    1    1    2    0    0  0.63561597594E+00 -0.68229179937E+00  0.72318817243E+00  0.11800554653E+01  0.00000000000E+00 0.  1.
         11    1    3    3    0    0 -0.35987973535E+01 -0.12493372664E+02  0.13269920104E+00  0.13002050309E+02  0.51100000000E-03 0. -1.
        -11    1    3    3    0    0  0.33418521264E+02 -0.73703900224E+01  0.14527212312E+02  0.37177413982E+02  0.51100000000E-03 0.  1.
         12    1    3    3    0    0 -0.30455339887E+02  0.20546054486E+02 -0.15383099686E+02  0.39828480243E+02  0.00000000000E+00 0. -1.
</event>
<event>
 7    1  0.4555057E-015  0.9000770E+02  0.7816164E-02  0.1186339E+00
        -11   -1    0    0    0    0  0.00000000000E+00  0.00000000000E+00  0.45593999997E+02  0.45594000000E+02  0.51100000000E-03 0. -1.
         11   -1    0    0    0    0 -0.00000000000E+00 -0.00000000000E+00 -0.45593999997E+02  0.45594000000E+02  0.51100000000E-03 0.  1.
    9900012    2    1    2    0    0 -0.65096377938E+00 -0.88933264857E+00 -0.42242542812E+00  0.90007699342E+02  0.89999960173E+02 0.  0.
        -12    1    1    2    0    0  0.65096377938E+00  0.88933264857E+00  0.42242542812E+00  0.11803006584E+01  0.00000000000E+00 0.  1.
         11    1    3    3    0    0  0.16427058213E+02 -0.33284856032E+02 -0.17372455127E+01  0.37158416339E+02  0.51100000000E-03 0. -1.
        -11    1    3    3    0    0  0.98618883003E+01 -0.65747938377E+00 -0.19835341277E+01  0.10080849562E+02  0.51100000000E-03 0.  1.
        -12    1    3    3    0    0 -0.26939910292E+02  0.33053002767E+02  0.32983542123E+01  0.42768433441E+02  0.00000000000E+00 0.  1.
</event>
<event>
 7    1  0.4555057E-015  0.9000781E+02  0.7816164E-02  0.1186339E+00
        -11   -1    0    0    0    0  0.00000000000E+00  0.00000000000E+00  0.45593999997E+02  0.45594000000E+02  0.51100000000E-03 0.  1.
         11   -1    0    0    0    0 -0.00000000000E+00 -0.00000000000E+00 -0.45593999997E+02  0.45594000000E+02  0.51100000000E-03 0. -1.
    9900012    2    1    2    0    0  0.72103188737E-01 -0.58075149251E-01 -0.11765560681E+01  0.90007806891E+02  0.90000069142E+02 0.  0.
        -12    1    1    2    0    0 -0.72103188737E-01  0.58075149251E-01  0.11765560681E+01  0.11801931089E+01  0.00000000000E+00 0.  1.
         11    1    3    3    0    0  0.43283276200E+00  0.18079634359E-01 -0.66864139779E+01  0.67004330620E+01  0.51100000000E-03 0. -1.
        -11    1    3    3    0    0  0.41058199506E+02 -0.42879435709E+01 -0.22224244943E+00  0.41282097799E+02  0.51100000000E-03 0.  1.
         12    1    3    3    0    0 -0.41418929079E+02  0.42117887873E+01  0.57321003592E+01  0.42025276030E+02  0.00000000000E+00 0. -1.
</event>
<event>
 7    1  0.4555057E-015  0.9000777E+02  0.7816164E-02  0.1186339E+00
        -11   -1    0    0    0    0  0.00000000000E+00  0.00000000000E+00  0.45593999997E+02  0.45594000000E+02  0.51100000000E-03 0.  1.
         11   -1    0    0    0    0 -0.00000000000E+00 -0.00000000000E+00 -0.45593999997E+02  0.45594000000E+02  0.51100000000E-03 0. -1.
    9900012    2    1    2    0    0 -0.47074508174E+00 -0.47652187034E+00 -0.97173995091E+00  0.90007765889E+02  0.90000027599E+02 0.  0.
        -12    1    1    2    0    0  0.47074508174E+00  0.47652187034E+00  0.97173995091E+00  0.11802341111E+01  0.00000000000E+00 0.  1.
         11    1    3    3    0    0 -0.56562119181E+01 -0.18300113680E+01 -0.73211105501E+01  0.94308183535E+01  0.51100000000E-03 0. -1.
        -11    1    3    3    0    0 -0.30881513391E+02 -0.37010665143E+01  0.24773025477E+02  0.39762652757E+02  0.51100000000E-03 0.  1.
         12    1    3    3    0    0  0.36066980228E+02  0.50545560120E+01 -0.18423654878E+02  0.40814294779E+02  0.00000000000E+00 0. -1.
</event>
<event>
 7    1  0.8779257E-015  0.9000775E+02  0.7816164E-02  0.1186339E+00
        -11   -1    0    0    0    0  0.00000000000E+00  0.00000000000E+00  0.45593999997E+02  0.45594000000E+02  0.51100000000E-03 0. -1.
         11   -1    0    0    0    0 -0.00000000000E+00 -0.00000000000E+00 -0.45593999997E+02  0.45594000000E+02  0.51100000000E-03 0.  1.
    9900012    2    1    2    0    0  0.66379638794E+00  0.86729688649E-01  0.97203349576E+00  0.90007747146E+02  0.90000008608E+02 0.  0.
        -12    1    1    2    0    0 -0.66379638794E+00 -0.86729688649E-01 -0.97203349576E+00  0.11802528544E+01  0.00000000000E+00 0.  1.
         11    1    3    3    0    0 -0.26928698473E+01 -0.17305376267E+02  0.38777964730E+02  0.42549478782E+02  0.51100000000E-03 0. -1.
        -11    1    3    3    0    0  0.87067327532E+01  0.21783649711E+01 -0.36546266350E+01  0.96906535014E+01  0.51100000000E-03 0.  1.
        -12    1    3    3    0    0 -0.53500665179E+01  0.15213740984E+02 -0.34151304600E+02  0.37767614862E+02  0.00000000000E+00 0.  1.
</event>
<event>
 7    1  0.4555057E-015  0.9000767E+02  0.7816164E-02  0.1186339E+00
        -11   -1    0    0    0    0  0.00000000000E+00  0.00000000000E+00  0.45593999997E+02  0.45594000000E+02  0.51100000000E-03 0.  1.
         11   -1    0    0    0    0 -0.00000000000E+00 -0.00000000000E+00 -0.45593999997E+02  0.45594000000E+02  0.51100000000E-03 0. -1.
    9900012    2    1    2    0    0  0.15101368527E+00 -0.95858543379E+00  0.67193690275E+00  0.90007665146E+02  0.89999925526E+02 0.  0.
        -12    1    1    2    0    0 -0.15101368527E+00  0.95858543379E+00 -0.67193690275E+00  0.11803348543E+01  0.00000000000E+00 0.  1.
         11    1    3    3    0    0 -0.66842833163E+01  0.19765758939E+02 -0.35467976328E+02  0.41150239549E+02  0.51100000000E-03 0. -1.
        -11    1    3    3    0    0  0.57131964126E+01 -0.91426642954E+01 -0.11442697035E+00  0.10781559139E+02  0.51100000000E-03 0.  1.
        -12    1    3    3    0    0  0.11221005889E+01 -0.11581680077E+02  0.36254340201E+02  0.38075866458E+02  0.00000000000E+00 0.  1.
</event>
<event>
 7    1  0.4555057E-015  0.9000773E+02  0.7816164E-02  0.1186339E+00
        -11   -1    0    0    0    0  0.00000000000E+00  0.00000000000E+00  0.45593999997E+02  0.45594000000E+02  0.51100000000E-03 0.  1.
         11   -1    0    0    0    0 -0.00000000000E+00 -0.00000000000E+00 -0.45593999997E+02  0.45594000000E+02  0.51100000000E-03 0. -1.
    9900012    2    1    2    0    0 -0.29074048994E+00 -0.54647904184E+00 -0.10049254545E+01  0.90007726919E+02  0.89999988115E+02 0.  0.
        -12    1    1    2    0    0  0.29074048994E+00  0.54647904184E+00  0.10049254545E+01  0.11802730806E+01  0.00000000000E+00 0.  1.
         11    1    3    3    0    0 -0.30405957390E+01 -0.34842942861E+02 -0.12773665411E+02  0.37234962307E+02  0.51100000000E-03 0. -1.
        -11    1    3    3    0    0  0.14734950758E+01 -0.24855519281E+01 -0.97296819056E+01  0.10149673215E+02  0.51100000000E-03 0.  1.
        -12    1    3    3    0    0  0.12763601734E+01  0.36782015747E+02  0.21498421862E+02  0.42623091398E+02  0.00000000000E+00 0.  1.
</event>
<event>
 7    1  0.4555057E-015  0.9000809E+02  0.7816164E-02  0.1186338E+00
        -11   -1    0    0    0    0  0.00000000000E+00  0.00000000000E+00  0.45593999997E+02  0.45594000000E+02  0.51100000000E-03 0. -1.
         11   -1    0    0    0    0 -0.00000000000E+00 -0.00000000000E+00 -0.45593999997E+02  0.45594000000E+02  0.51100000000E-03 0.  1.
    9900012    2    1    2    0    0  0.96165567881E+00  0.66935010162E+00  0.13921267303E+00  0.90008088405E+02  0.90000354371E+02 0.  0.
        -12    1    1    2    0    0 -0.96165567881E+00 -0.66935010162E+00 -0.13921267303E+00  0.11799115948E+01  0.00000000000E+00 0.  1.
         11    1    3    3    0    0 -0.20520780375E+02 -0.10311061013E+02 -0.14993008759E+01  0.23014523888E+02  0.51100000000E-03 0. -1.
        -11    1    3    3    0    0 -0.10366222653E+02 -0.45710092285E+00  0.24194088634E+02  0.26325300348E+02  0.51100000000E-03 0.  1.
        -12    1    3    3    0    0  0.31848658707E+02  0.11437512038E+02 -0.22555575085E+02  0.40668264168E+02  0.00000000000E+00 0.  1.
</event>
<event>
 7    1  0.4555057E-015  0.9000780E+02  0.7816164E-02  0.1186339E+00
        -11   -1    0    0    0    0  0.00000000000E+00  0.00000000000E+00  0.45593999997E+02  0.45594000000E+02  0.51100000000E-03 0. -1.
         11   -1    0    0    0    0 -0.00000000000E+00 -0.00000000000E+00 -0.45593999997E+02  0.45594000000E+02  0.51100000000E-03 0.  1.
    9900012    2    1    2    0    0 -0.59066788271E+00 -0.41742308031E+00  0.93260185874E+00  0.90007797982E+02  0.90000060116E+02 0.  0.
        -12    1    1    2    0    0  0.59066788271E+00  0.41742308031E+00 -0.93260185874E+00  0.11802020177E+01  0.00000000000E+00 0.  1.
         11    1    3    3    0    0 -0.68371776531E+01 -0.29331810189E+02  0.15000541718E+02  0.33646966272E+02  0.51100000000E-03 0. -1.
        -11    1    3    3    0    0  0.47692310272E+00 -0.12119476484E+02  0.12268409262E+01  0.12190746688E+02  0.51100000000E-03 0.  1.
        -12    1    3    3    0    0  0.57695866677E+01  0.41033863592E+02 -0.15294780785E+02  0.44170085023E+02  0.00000000000E+00 0.  1.
</event>
<event>
 7    1  0.4555057E-015  0.9000774E+02  0.7816164E-02  0.1186339E+00
        -11   -1    0    0    0    0  0.00000000000E+00  0.00000000000E+00  0.45593999997E+02  0.45594000000E+02  0.51100000000E-03 0. -1.
         11   -1    0    0    0    0 -0.00000000000E+00 -0.00000000000E+00 -0.45593999997E+02  0.45594000000E+02  0.51100000000E-03 0.  1.
    9900012    2    1    2    0    0 -0.39678733415E+00  0.10007125302E+01 -0.48388880521E+00  0.90007739803E+02  0.90000001168E+02 0.  0.
        -12    1    1    2    0    0  0.39678733415E+00 -0.10007125302E+01  0.48388880521E+00  0.11802601969E+01  0.00000000000E+00 0.  1.
         11    1    3    3    0    0  0.15215948891E+02  0.23440910922E+02  0.23514774885E+02  0.36523226085E+02  0.51100000000E-03 0. -1.
        -11    1    3    3    0    0  0.12804172589E+01  0.41462379870E+01  0.76733297622E+01  0.88153699697E+01  0.51100000000E-03 0.  1.
        -12    1    3    3    0    0 -0.16893153484E+02 -0.26586436379E+02 -0.31671993452E+02  0.44669143748E+02  0.00000000000E+00 0.  1.
</event>
<event>
 7    1  0.4555057E-015  0.9000775E+02  0.7816164E-02  0.1186339E+00
        -11   -1    0    0    0    0  0.00000000000E+00  0.00000000000E+00  0.45593999997E+02  0.45594000000E+02  0.51100000000E-03 0. -1.
         11   -1    0    0    0    0 -0.00000000000E+00 -0.00000000000E+00 -0.45593999997E+02  0.45594000000E+02  0.51100000000E-03 0.  1.
    9900012    2    1    2    0    0 -0.57076582953E+00 -0.10040659899E+01  0.24302116267E+00  0.90007753657E+02  0.90000015205E+02 0.  0.
        -12    1    1    2    0    0  0.57076582953E+00  0.10040659899E+01 -0.24302116267E+00  0.11802463428E+01  0.00000000000E+00 0.  1.
         11    1    3    3    0    0 -0.16106065801E+01  0.34282453712E+02 -0.10466570074E+02  0.35880771668E+02  0.51100000000E-03 0. -1.
        -11    1    3    3    0    0 -0.10049670796E+02  0.36738000721E+01  0.83102334575E+01  0.13548161147E+02  0.51100000000E-03 0.  1.
        -12    1    3    3    0    0  0.11089511546E+02 -0.38960319774E+02  0.23993577790E+01  0.40578820843E+02  0.00000000000E+00 0.  1.
</event>
<event>
 7    1  0.4555057E-015  0.9000774E+02  0.7816164E-02  0.1186339E+00
        -11   -1    0    0    0    0  0.00000000000E+00  0.00000000000E+00  0.45593999997E+02  0.45594000000E+02  0.51100000000E-03 0. -1.
         11   -1    0    0    0    0 -0.00000000000E+00 -0.00000000000E+00 -0.45593999997E+02  0.45594000000E+02  0.51100000000E-03 0.  1.
    9900012    2    1    2    0    0  0.16356556475E+00 -0.10449925802E+01  0.52369226598E+00  0.90007738683E+02  0.90000000034E+02 0.  0.
        -12    1    1    2    0    0 -0.16356556475E+00  0.10449925802E+01 -0.52369226598E+00  0.11802613169E+01  0.00000000000E+00 0.  1.
         11    1    3    3    0    0 -0.26935487350E+02  0.70914591293E+01  0.21746772368E+02  0.35337393509E+02  0.51100000000E-03 0. -1.
        -11    1    3    3    0    0 -0.20054965585E+00  0.64598631237E+01  0.92153892427E+01  0.11255818535E+02  0.51100000000E-03 0.  1.
        -12    1    3    3    0    0  0.27299602571E+02 -0.14596314833E+02 -0.30438469344E+02  0.43414526639E+02  0.00000000000E+00 0.  1.
</event>
<event>
 7    1  0.4555057E-015  0.9000772E+02  0.7816164E-02  0.1186339E+00
        -11   -1    0    0    0    0  0.00000000000E+00  0.00000000000E+00  0.45593999997E+02  0.45594000000E+02  0.51100000000E-03 0.  1.
         11   -1    0    0    0    0 -0.00000000000E+00 -0.00000000000E+00 -0.45593999997E+02  0.45594000000E+02  0.51100000000E-03 0. -1.
    9900012    2    1    2    0    0 -0.12001502645E+00  0.33015809096E+00 -0.11267932374E+01  0.90007715724E+02  0.89999976772E+02 0.  0.
        -12    1    1    2    0    0  0.12001502645E+00 -0.33015809096E+00  0.11267932374E+01  0.11802842757E+01  0.00000000000E+00 0.  1.
         11    1    3    3    0    0  0.58511803768E+01  0.42454639761E+01 -0.39681468387E+02  0.40334590735E+02  0.51100000000E-03 0. -1.
        -11    1    3    3    0    0 -0.18512275322E+01  0.10796155094E+02  0.36074428689E+01  0.11532460817E+02  0.51100000000E-03 0.  1.
        -12    1    3    3    0    0 -0.41199678711E+01 -0.14711460979E+02  0.34947232281E+02  0.38140664172E+02  0.00000000000E+00 0.  1.
</event>
<event>
 7    1  0.4555057E-015  0.9000788E+02  0.7816164E-02  0.1186339E+00
        -11   -1    0    0    0    0  0.00000000000E+00  0.00000000000E+00  0.45593999997E+02  0.45594000000E+02  0.51100000000E-03 0.  1.
         11   -1    0    0    0    0 -0.00000000000E+00 -0.00000000000E+00 -0.45593999997E+02  0.45594000000E+02  0.51100000000E-03 0. -1.
    9900012    2    1    2    0    0  0.88072365525E+00  0.63118071754E+00  0.46757349893E+00  0.90007877874E+02  0.90000141062E+02 0.  0.
        -12    1    1    2    0    0 -0.88072365525E+00 -0.63118071754E+00 -0.46757349893E+00  0.11801221259E+01  0.00000000000E+00 0.  1.
         11    1    3    3    0    0  0.30108922727E+02 -0.26747793317E+02 -0.17002650802E+02  0.43715921695E+02  0.51100000000E-03 0. -1.
        -11    1    3    3    0    0 -0.46763146441E+01  0.71253028100E+01 -0.22949915886E+01  0.88263721561E+01  0.51100000000E-03 0.  1.
        -12    1    3    3    0    0 -0.24551884427E+02  0.20253671225E+02  0.19765215890E+02  0.37465584023E+02  0.00000000000E+00 0.  1.
</event>
<event>
 7    1  0.4555057E-015  0.9000774E+02  0.7816164E-02  0.1186339E+00
        -11   -1    0    0    0    0  0.00000000000E+00  0.00000000000E+00  0.45593999997E+02  0.45594000000E+02  0.51100000000E-03 0. -1.
         11   -1    0    0    0    0 -0.00000000000E+00 -0.00000000000E+00 -0.45593999997E+02  0.45594000000E+02  0.51100000000E-03 0.  1.
    9900012    2    1    2    0    0 -0.66460940719E+00  0.97186136468E+00 -0.82368813745E-01  0.90007743758E+02  0.90000005175E+02 0.  0.
        -12    1    1    2    0    0  0.66460940719E+00 -0.97186136468E+00  0.82368813745E-01  0.11802562424E+01  0.00000000000E+00 0.  1.
         11    1    3    3    0    0 -0.34653065423E+02  0.25470019725E+01 -0.82686798083E+01  0.35716847962E+02  0.51100000000E-03 0. -1.
        -11    1    3    3    0    0 -0.44203191326E+01  0.10518225436E+01 -0.10541393183E+02  0.11478959988E+02  0.51100000000E-03 0.  1.
        -12    1    3    3    0    0  0.38408775149E+02 -0.26269631514E+01  0.18727704178E+02  0.42811935808E+02  0.00000000000E+00 0.  1.
</event>
<event>
 7    1  0.4555057E-015  0.9000775E+02  0.7816164E-02  0.1186339E+00
        -11   -1    0    0    0    0  0.00000000000E+00  0.00000000000E+00  0.45593999997E+02  0.45594000000E+02  0.51100000000E-03 0.  1.
         11   -1    0    0    0    0 -0.00000000000E+00 -0.00000000000E+00 -0.45593999997E+02  0.45594000000E+02  0.51100000000E-03 0. -1.
    9900012    2    1    2    0    0  0.10233190985E+01 -0.39790080093E+00  0.43298039023E+00  0.90007754668E+02  0.90000016230E+02 0.  0.
        -12    1    1    2    0    0 -0.10233190985E+01  0.39790080093E+00 -0.43298039023E+00  0.11802453318E+01  0.00000000000E+00 0.  1.
         11    1    3    3    0    0  0.65062311033E+01  0.27187959903E+02  0.20664020700E+02  0.34763744888E+02  0.51100000000E-03 0. -1.
        -11    1    3    3    0    0  0.26546803494E+01  0.95431049498E+01  0.34164961455E+01  0.10478102214E+02  0.51100000000E-03 0.  1.
        -12    1    3    3    0    0 -0.81375923541E+01 -0.37128965654E+02 -0.23647536455E+02  0.44765907566E+02  0.00000000000E+00 0.  1.
</event>
<event>
 7    1  0.4555057E-015  0.9000771E+02  0.7816164E-02  0.1186339E+00
        -11   -1    0    0    0    0  0.00000000000E+00  0.00000000000E+00  0.45593999997E+02  0.45594000000E+02  0.51100000000E-03 0.  1.
         11   -1    0    0    0    0 -0.00000000000E+00 -0.00000000000E+00 -0.45593999997E+02  0.45594000000E+02  0.51100000000E-03 0. -1.
    9900012    2    1    2    0    0  0.44993460179E+00  0.93970108073E+00 -0.55461892902E+00  0.90007711297E+02  0.89999972286E+02 0.  0.
        -12    1    1    2    0    0 -0.44993460179E+00 -0.93970108073E+00  0.55461892902E+00  0.11802887034E+01  0.00000000000E+00 0.  1.
         11    1    3    3    0    0 -0.48172768715E+01 -0.13373114320E+01 -0.55469778599E+01  0.74674977042E+01  0.51100000000E-03 0. -1.
        -11    1    3    3    0    0 -0.32866033540E+02  0.20966691818E+02  0.85952362089E+01  0.39920626400E+02  0.51100000000E-03 0.  1.
         12    1    3    3    0    0  0.38133245013E+02 -0.18689679305E+02 -0.36028772780E+01  0.42619587192E+02  0.00000000000E+00 0. -1.
</event>
<event>
 7    1  0.4555057E-015  0.9000779E+02  0.7816164E-02  0.1186339E+00
        -11   -1    0    0    0    0  0.00000000000E+00  0.00000000000E+00  0.45593999997E+02  0.45594000000E+02  0.51100000000E-03 0.  1.
         11   -1    0    0    0    0 -0.00000000000E+00 -0.00000000000E+00 -0.45593999997E+02  0.45594000000E+02  0.51100000000E-03 0. -1.
    9900012    2    1    2    0    0  0.69879180053E+00  0.85254104340E+00  0.42161910129E+00  0.90007788630E+02  0.90000050640E+02 0.  0.
        -12    1    1    2    0    0 -0.69879180053E+00 -0.85254104340E+00 -0.42161910129E+00  0.11802113699E+01  0.00000000000E+00 0.  1.
         11    1    3    3    0    0  0.39335572389E+02 -0.82200679061E+01  0.31582344866E+01  0.40309195191E+02  0.51100000000E-03 0. -1.
        -11    1    3    3    0    0 -0.70787869834E+01 -0.10220094126E+02  0.12569779000E+01  0.12495580931E+02  0.51100000000E-03 0.  1.
        -12    1    3    3    0    0 -0.31557993606E+02  0.19292703076E+02 -0.39935932853E+01  0.37203012508E+02  0.00000000000E+00 0.  1.
</event>
<event>
 7    1  0.4555057E-015  0.9000759E+02  0.7816164E-02  0.1186339E+00
        -11   -1    0    0    0    0  0.00000000000E+00  0.00000000000E+00  0.45593999997E+02  0.45594000000E+02  0.51100000000E-03 0.  1.
         11   -1    0    0    0    0 -0.00000000000E+00 -0.00000000000E+00 -0.45593999997E+02  0.45594000000E+02  0.51100000000E-03 0. -1.
    9900012    2    1    2    0    0 -0.15018630925E+00 -0.93189041188E+00 -0.70879474590E+00  0.90007590893E+02  0.89999850293E+02 0.  0.
        -12    1    1    2    0    0  0.15018630925E+00  0.93189041188E+00  0.70879474590E+00  0.11804091066E+01  0.00000000000E+00 0.  1.
         11    1    3    3    0    0  0.20775482479E+02  0.13410881023E+02 -0.30021423599E+02  0.38894193362E+02  0.51100000000E-03 0. -1.
        -11    1    3    3    0    0 -0.79388720573E+01  0.47608550516E+01 -0.43972156869E+01  0.10248265044E+02  0.51100000000E-03 0.  1.
        -12    1    3    3    0    0 -0.12986796731E+02 -0.19103626486E+02  0.33709844540E+02  0.40865132487E+02  0.00000000000E+00 0.  1.
</event>
<event>
 7    1  0.4555057E-015  0.9000770E+02  0.7816164E-02  0.1186339E+00
        -11   -1    0    0    0    0  0.00000000000E+00  0.00000000000E+00  0.45593999997E+02  0.45594000000E+02  0.51100000000E-03 0.  1.
         11   -1    0    0    0    0 -0.00000000000E+00 -0.00000000000E+00 -0.45593999997E+02  0.45594000000E+02  0.51100000000E-03 0. -1.
    9900012    2    1    2    0    0  0.24382464015E+00  0.11198336762E+01 -0.28220506271E+00  0.90007695965E+02  0.89999956752E+02 0.  0.
        -12    1    1    2    0    0 -0.24382464015E+00 -0.11198336762E+01  0.28220506271E+00  0.11803040350E+01  0.00000000000E+00 0.  1.
         11    1    3    3    0    0  0.22949069253E+02  0.23771894153E+02  0.13900592317E+02  0.35846745992E+02  0.51100000000E-03 0. -1.
        -11    1    3    3    0    0  0.70976018401E+01 -0.76652201174E+00  0.82521410254E+01  0.10911523250E+02  0.51100000000E-03 0.  1.
        -12    1    3    3    0    0 -0.29802846453E+02 -0.21885538465E+02 -0.22434938405E+02  0.43249426723E+02  0.00000000000E+00 0.  1.
</event>
<event>
 7    1  0.4555057E-015  0.9000777E+02  0.7816164E-02  0.1186339E+00
        -11   -1    0    0    0    0  0.00000000000E+00  0.00000000000E+00  0.45593999997E+02  0.45594000000E+02  0.51100000000E-03 0.  1.
         11   -1    0    0    0    0 -0.00000000000E+00 -0.00000000000E+00 -0.45593999997E+02  0.45594000000E+02  0.51100000000E-03 0. -1.
    9900012    2    1    2    0    0 -0.75902499814E+00  0.87660963700E+00 -0.21997082921E+00  0.90007766731E+02  0.90000028452E+02 0.  0.
        -12    1    1    2    0    0  0.75902499814E+00 -0.87660963700E+00  0.21997082921E+00  0.11802332690E+01  0.00000000000E+00 0.  1.
         11    1    3    3    0    0  0.22690717138E+02  0.33392544482E+02 -0.13879077801E+02  0.42691444952E+02  0.51100000000E-03 0. -1.
        -11    1    3    3    0    0 -0.33632211683E+01 -0.61134112564E+01 -0.56086185131E+01  0.89521872022E+01  0.51100000000E-03 0.  1.
        -12    1    3    3    0    0 -0.20086520968E+02 -0.26402523589E+02  0.19267725485E+02  0.38364134577E+02  0.00000000000E+00 0.  1.
</event>
<event>
 7    1  0.4555057E-015  0.9000780E+02  0.7816164E-02  0.1186339E+00
        -11   -1    0    0    0    0  0.00000000000E+00  0.00000000000E+00  0.45593999997E+02  0.45594000000E+02  0.51100000000E-03 0.  1.
         11   -1    0    0    0    0 -0.00000000000E+00 -0.00000000000E+00 -0.45593999997E+02  0.45594000000E+02  0.51100000000E-03 0. -1.
    9900012    2    1    2    0    0  0.99541669921E+00  0.62606351478E+00 -0.10031580878E+00  0.90007799512E+02  0.90000061666E+02 0.  0.
        -12    1    1    2    0    0 -0.99541669921E+00 -0.62606351478E+00  0.10031580878E+00  0.11802004877E+01  0.00000000000E+00 0.  1.
         11    1    3    3    0    0 -0.16332155985E+02  0.25742899783E+02 -0.40586768520E+01  0.30755634710E+02  0.51100000000E-03 0. -1.
        -11    1    3    3    0    0 -0.34722855328E+00  0.49712507135E+01 -0.17561355626E+02  0.18254728511E+02  0.51100000000E-03 0.  1.
        -12    1    3    3    0    0  0.17674801237E+02 -0.30088086982E+02  0.21519716669E+02  0.40997436292E+02  0.00000000000E+00 0.  1.
</event>
<event>
 7    1  0.4555057E-015  0.9000779E+02  0.7816164E-02  0.1186339E+00
        -11   -1    0    0    0    0  0.00000000000E+00  0.00000000000E+00  0.45593999997E+02  0.45594000000E+02  0.51100000000E-03 0. -1.
         11   -1    0    0    0    0 -0.00000000000E+00 -0.00000000000E+00 -0.45593999997E+02  0.45594000000E+02  0.51100000000E-03 0.  1.
    9900012    2    1    2    0    0 -0.89024868416E+00  0.72305107379E+00 -0.27846410066E+00  0.90007793310E+02  0.90000055382E+02 0.  0.
        -12    1    1    2    0    0  0.89024868416E+00 -0.72305107379E+00  0.27846410066E+00  0.11802066897E+01  0.00000000000E+00 0.  1.
         11    1    3    3    0    0  0.26572528559E+02 -0.23183282348E+02 -0.10212589964E+02  0.36713224436E+02  0.51100000000E-03 0. -1.
        -11    1    3    3    0    0  0.77664715520E+01 -0.94318360692E+00  0.62731025425E+01  0.10027935553E+02  0.51100000000E-03 0.  1.
        -12    1    3    3    0    0 -0.35229248795E+02  0.24849517028E+02  0.36610233213E+01  0.43266633322E+02  0.00000000000E+00 0.  1.
</event>
<event>
 7    1  0.4555057E-015  0.9000778E+02  0.7816164E-02  0.1186339E+00
        -11   -1    0    0    0    0  0.00000000000E+00  0.00000000000E+00  0.45593999997E+02  0.45594000000E+02  0.51100000000E-03 0.  1.
         11   -1    0    0    0    0 -0.00000000000E+00 -0.00000000000E+00 -0.45593999997E+02  0.45594000000E+02  0.51100000000E-03 0. -1.
    9900012    2    1    2    0    0 -0.10269747891E+01 -0.28032452557E+00 -0.50956526008E+00  0.90007781456E+02  0.90000043371E+02 0.  0.
        -12    1    1    2    0    0  0.10269747891E+01  0.28032452557E+00  0.50956526008E+00  0.11802185439E+01  0.00000000000E+00 0.  1.
         11    1    3    3    0    0  0.11984237453E+02 -0.33165965063E+01 -0.25688287425E+01  0.12697269041E+02  0.51100000000E-03 0. -1.
        -11    1    3    3    0    0  0.19664835012E+02  0.29209039555E+02  0.37480337446E+01  0.35410753804E+02  0.51100000000E-03 0.  1.
         12    1    3    3    0    0 -0.32676047255E+02 -0.26172767574E+02 -0.16887702622E+01  0.41899758611E+02  0.00000000000E+00 0. -1.
</event>
<event>
 7    1  0.4555057E-015  0.9000773E+02  0.7816164E-02  0.1186339E+00
        -11   -1    0    0    0    0  0.00000000000E+00  0.00000000000E+00  0.45593999997E+02  0.45594000000E+02  0.51100000000E-03 0. -1.
         11   -1    0    0    0    0 -0.00000000000E+00 -0.00000000000E+00 -0.45593999997E+02  0.45594000000E+02  0.51100000000E-03 0.  1.
    9900012    2    1    2    0    0 -0.56988797815E+00 -0.44876413219E+00  0.93106164598E+00  0.90007729970E+02  0.89999991206E+02 0.  0.
        -12    1    1    2    0    0  0.56988797815E+00  0.44876413219E+00 -0.93106164598E+00  0.11802700295E+01  0.00000000000E+00 0.  1.
         11    1    3    3    0    0 -0.10213117243E+02  0.19407811831E+02 -0.79434440421E+01  0.23325291582E+02  0.51100000000E-03 0. -1.
        -11    1    3    3    0    0  0.25034787653E+02  0.10198503159E+02  0.17023561169E+02  0.31946074793E+02  0.51100000000E-03 0.  1.
         12    1    3    3    0    0 -0.15391558388E+02 -0.30055079122E+02 -0.81490554810E+01  0.34736363596E+02  0.00000000000E+00 0. -1.
</event>
<event>
 7    1  0.4555057E-015  0.9000776E+02  0.7816164E-02  0.1186339E+00
        -11   -1    0    0    0    0  0.00000000000E+00  0.00000000000E+00  0.45593999997E+02  0.45594000000E+02  0.51100000000E-03 0.  1.
         11   -1    0    0    0    0 -0.00000000000E+00 -0.00000000000E+00 -0.45593999997E+02  0.45594000000E+02  0.51100000000E-03 0. -1.
    9900012    2    1    2    0    0 -0.10790997990E+01 -0.16314557746E+00  0.44933460029E+00  0.90007756619E+02  0.90000018206E+02 0.  0.
        -12    1    1    2    0    0  0.10790997990E+01  0.16314557746E+00 -0.44933460029E+00  0.11802433811E+01  0.00000000000E+00 0.  1.
         11    1    3    3    0    0 -0.10286000781E+02 -0.21978758643E+00 -0.58430423795E+00  0.10304927479E+02  0.51100000000E-03 0. -1.
        -11    1    3    3    0    0  0.18851077987E+02 -0.22976835216E+02  0.29473053338E+02  0.41856408962E+02  0.51100000000E-03 0.  1.
         12    1    3    3    0    0 -0.96441770050E+01  0.23033477225E+02 -0.28439414500E+02  0.37846420178E+02  0.00000000000E+00 0. -1.
</event>
<event>
 7    1  0.4555057E-015  0.9000748E+02  0.7816164E-02  0.1186340E+00
        -11   -1    0    0    0    0  0.00000000000E+00  0.00000000000E+00  0.45593999997E+02  0.45594000000E+02  0.51100000000E-03 0.  1.
         11   -1    0    0    0    0 -0.00000000000E+00 -0.00000000000E+00 -0.45593999997E+02  0.45594000000E+02  0.51100000000E-03 0. -1.
    9900012    2    1    2    0    0 -0.44023912957E+00  0.10581603719E+01 -0.28303492182E+00  0.90007482050E+02  0.89999740012E+02 0.  0.
        -12    1    1    2    0    0  0.44023912957E+00 -0.10581603719E+01  0.28303492182E+00  0.11805179502E+01  0.00000000000E+00 0.  1.
         11    1    3    3    0    0 -0.77388810767E+00  0.71937958602E+00  0.11672350536E+02  0.11720075814E+02  0.51100000000E-03 0. -1.
        -11    1    3    3    0    0 -0.71665719542E+01  0.88467218442E+01  0.31438095430E+02  0.33436179289E+02  0.51100000000E-03 0.  1.
         12    1    3    3    0    0  0.75002209323E+01 -0.85079410584E+01 -0.43393480887E+02  0.44851226946E+02  0.00000000000E+00 0. -1.
</event>
<event>
 7    1  0.4555057E-015  0.9000770E+02  0.7816164E-02  0.1186339E+00
        -11   -1    0    0    0    0  0.00000000000E+00  0.00000000000E+00  0.45593999997E+02  0.45594000000E+02  0.51100000000E-03 0.  1.
         11   -1    0    0    0    0 -0.00000000000E+00 -0.00000000000E+00 -0.45593999997E+02  0.45594000000E+02  0.51100000000E-03 0. -1.
    9900012    2    1    2    0    0  0.10042906422E+01 -0.34509037306E+00  0.51518449188E+00  0.90007702529E+02  0.89999963402E+02 0.  0.
        -12    1    1    2    0    0 -0.10042906422E+01  0.34509037306E+00 -0.51518449188E+00  0.11802974711E+01  0.00000000000E+00 0.  1.
         11    1    3    3    0    0 -0.14940699567E+01  0.67710266780E+01  0.81472040883E+01  0.10698410257E+02  0.51100000000E-03 0. -1.
        -11    1    3    3    0    0  0.13390301491E+02  0.19198272221E+02  0.26169107731E+02  0.35109771146E+02  0.51100000000E-03 0.  1.
         12    1    3    3    0    0 -0.10891940892E+02 -0.26314389272E+02 -0.33801127327E+02  0.44199521125E+02  0.00000000000E+00 0. -1.
</event>
<event>
 7    1  0.4555057E-015  0.9000767E+02  0.7816164E-02  0.1186339E+00
        -11   -1    0    0    0    0  0.00000000000E+00  0.00000000000E+00  0.45593999997E+02  0.45594000000E+02  0.51100000000E-03 0. -1.
         11   -1    0    0    0    0 -0.00000000000E+00 -0.00000000000E+00 -0.45593999997E+02  0.45594000000E+02  0.51100000000E-03 0.  1.
    9900012    2    1    2    0    0  0.58754644353E+00 -0.95188054660E+00 -0.37668445681E+00  0.90007670140E+02  0.89999930586E+02 0.  0.
        -12    1    1    2    0    0 -0.58754644353E+00  0.95188054660E+00  0.37668445681E+00  0.11803298600E+01  0.00000000000E+00 0.  1.
         11    1    3    3    0    0 -0.83395376589E+01 -0.33879903968E+01 -0.41271363487E+01  0.99025058442E+01  0.51100000000E-03 0. -1.
        -11    1    3    3    0    0 -0.25762112980E+02  0.23395621615E+01 -0.24301682211E+02  0.35492700304E+02  0.51100000000E-03 0.  1.
         12    1    3    3    0    0  0.34689197083E+02  0.96547688635E-01  0.28052134103E+02  0.44612463992E+02  0.00000000000E+00 0. -1.
</event>
<event>
 7    1  0.4853450E-015  0.9000808E+02  0.7816164E-02  0.1186338E+00
        -11   -1    0    0    0    0  0.00000000000E+00  0.00000000000E+00  0.45593999997E+02  0.45594000000E+02  0.51100000000E-03 0. -1.
         11   -1    0    0    0    0 -0.00000000000E+00 -0.00000000000E+00 -0.45593999997E+02  0.45594000000E+02  0.51100000000E-03 0.  1.
    9900012    2    1    2    0    0  0.13663377913E+00 -0.49410431041E+00  0.10627295168E+01  0.90008083950E+02  0.90000349858E+02 0.  0.
        -12    1    1    2    0    0 -0.13663377913E+00  0.49410431041E+00 -0.10627295168E+01  0.11799160500E+01  0.00000000000E+00 0.  1.
         11    1    3    3    0    0 -0.22163214853E+02  0.27860701075E+01  0.29142632634E+02  0.36718705266E+02  0.51100000000E-03 0. -1.
        -11    1    3    3    0    0 -0.37247250056E+01  0.49240556985E+01  0.66814232081E+01  0.90973247297E+01  0.51100000000E-03 0.  1.
        -12    1    3    3    0    0  0.26024573637E+02 -0.82042301165E+01 -0.34761326326E+02  0.44192053955E+02  0.00000000000E+00 0.  1.
</event>
<event>
 7    1  0.4555057E-015  0.9000776E+02  0.7816164E-02  0.1186339E+00
        -11   -1    0    0    0    0  0.00000000000E+00  0.00000000000E+00  0.45593999997E+02  0.45594000000E+02  0.51100000000E-03 0.  1.
         11   -1    0    0    0    0 -0.00000000000E+00 -0.00000000000E+00 -0.45593999997E+02  0.45594000000E+02  0.51100000000E-03 0. -1.
    9900012    2    1    2    0    0  0.20931903871E-01 -0.74133334334E+00 -0.91812396757E+00  0.90007760664E+02  0.90000022305E+02 0.  0.
        -12    1    1    2    0    0 -0.20931903871E-01  0.74133334334E+00  0.91812396757E+00  0.11802393361E+01  0.00000000000E+00 0.  1.
         11    1    3    3    0    0 -0.10544735521E+02 -0.31065321077E+02 -0.19254033219E+02  0.38038972335E+02  0.51100000000E-03 0. -1.
        -11    1    3    3    0    0 -0.76601377639E+00 -0.33708543363E+01 -0.73423365875E+01  0.81153769406E+01  0.51100000000E-03 0.  1.
        -12    1    3    3    0    0  0.11331681202E+02  0.33694842070E+02  0.25678245839E+02  0.43853411388E+02  0.00000000000E+00 0.  1.
</event>
<event>
 7    1  0.4555057E-015  0.9000775E+02  0.7816164E-02  0.1186339E+00
        -11   -1    0    0    0    0  0.00000000000E+00  0.00000000000E+00  0.45593999997E+02  0.45594000000E+02  0.51100000000E-03 0.  1.
         11   -1    0    0    0    0 -0.00000000000E+00 -0.00000000000E+00 -0.45593999997E+02  0.45594000000E+02  0.51100000000E-03 0. -1.
    9900012    2    1    2    0    0 -0.63625639849E+00 -0.39212317420E-02 -0.99406289887E+00  0.90007746371E+02  0.90000007824E+02 0.  0.
        -12    1    1    2    0    0  0.63625639849E+00  0.39212317420E-02  0.99406289887E+00  0.11802536285E+01  0.00000000000E+00 0.  1.
         11    1    3    3    0    0 -0.13774288287E+02 -0.23088035074E+02 -0.13070013493E+02  0.29893371077E+02  0.51100000000E-03 0. -1.
        -11    1    3    3    0    0 -0.16445191377E+02  0.54591416008E+00  0.15706246800E+02  0.22747055425E+02  0.51100000000E-03 0.  1.
         12    1    3    3    0    0  0.29583223266E+02  0.22538199682E+02 -0.36302962059E+01  0.37367319870E+02  0.00000000000E+00 0. -1.
</event>
<event>
 7    1  0.4555057E-015  0.9000773E+02  0.7816164E-02  0.1186339E+00
        -11   -1    0    0    0    0  0.00000000000E+00  0.00000000000E+00  0.45593999997E+02  0.45594000000E+02  0.51100000000E-03 0. -1.
         11   -1    0    0    0    0 -0.00000000000E+00 -0.00000000000E+00 -0.45593999997E+02  0.45594000000E+02  0.51100000000E-03 0.  1.
    9900012    2    1    2    0    0 -0.68707644297E-01  0.80663158751E-01  0.11755082181E+01  0.90007725940E+02  0.89999987123E+02 0.  0.
        -12    1    1    2    0    0  0.68707644297E-01 -0.80663158751E-01 -0.11755082181E+01  0.11802740599E+01  0.00000000000E+00 0.  1.
         11    1    3    3    0    0  0.36623229820E+02  0.16209760403E+02 -0.87823041692E+01  0.41001782419E+02  0.51100000000E-03 0. -1.
        -11    1    3    3    0    0 -0.57305818971E+01  0.72106523782E+01  0.19385878212E+01  0.94122898171E+01  0.51100000000E-03 0.  1.
        -12    1    3    3    0    0 -0.30961355567E+02 -0.23339749622E+02  0.80192245660E+01  0.39593653704E+02  0.00000000000E+00 0.  1.
</event>
<event>
 7    1  0.4555057E-015  0.9000779E+02  0.7816164E-02  0.1186339E+00
        -11   -1    0    0    0    0  0.00000000000E+00  0.00000000000E+00  0.45593999997E+02  0.45594000000E+02  0.51100000000E-03 0. -1.
         11   -1    0    0    0    0 -0.00000000000E+00 -0.00000000000E+00 -0.45593999997E+02  0.45594000000E+02  0.51100000000E-03 0.  1.
    9900012    2    1    2    0    0 -0.90970343502E+00 -0.37477887702E-01  0.75096060723E+00  0.90007785288E+02  0.90000047254E+02 0.  0.
        -12    1    1    2    0    0  0.90970343502E+00  0.37477887702E-01 -0.75096060723E+00  0.11802147116E+01  0.00000000000E+00 0.  1.
         11    1    3    3    0    0  0.19419487275E+01  0.78014257185E+01 -0.60733889257E+01  0.10075686647E+02  0.51100000000E-03 0. -1.
        -11    1    3    3    0    0  0.85259104486E+01  0.26602964835E+02 -0.20389967362E+02  0.34585541145E+02  0.51100000000E-03 0.  1.
         12    1    3    3    0    0 -0.11377562611E+02 -0.34441868442E+02  0.27214316895E+02  0.45346557496E+02  0.00000000000E+00 0. -1.
</event>
<event>
 7    1  0.4555057E-015  0.9000778E+02  0.7816164E-02  0.1186339E+00
        -11   -1    0    0    0    0  0.00000000000E+00  0.00000000000E+00  0.45593999997E+02  0.45594000000E+02  0.51100000000E-03 0.  1.
         11   -1    0    0    0    0 -0.00000000000E+00 -0.00000000000E+00 -0.45593999997E+02  0.45594000000E+02  0.51100000000E-03 0. -1.
    9900012    2    1    2    0    0  0.12175184146E+00  0.70808254029E+00  0.93633273136E+00  0.90007778250E+02  0.90000040123E+02 0.  0.
        -12    1    1    2    0    0 -0.12175184146E+00 -0.70808254029E+00 -0.93633273136E+00  0.11802217497E+01  0.00000000000E+00 0.  1.
         11    1    3    3    0    0 -0.93150576333E+01  0.49027758827E+01 -0.42446550611E+01  0.11350092815E+02  0.51100000000E-03 0. -1.
        -11    1    3    3    0    0 -0.11817884957E+01  0.25600682169E+02  0.29265857737E+02  0.38900925193E+02  0.51100000000E-03 0.  1.
         12    1    3    3    0    0  0.10618597970E+02 -0.29795375511E+02 -0.24084869944E+02  0.39756760242E+02  0.00000000000E+00 0. -1.
</event>
<event>
 7    1  0.4555057E-015  0.9000776E+02  0.7816164E-02  0.1186339E+00
        -11   -1    0    0    0    0  0.00000000000E+00  0.00000000000E+00  0.45593999997E+02  0.45594000000E+02  0.51100000000E-03 0.  1.
         11   -1    0    0    0    0 -0.00000000000E+00 -0.00000000000E+00 -0.45593999997E+02  0.45594000000E+02  0.51100000000E-03 0. -1.
    9900012    2    1    2    0    0 -0.11724964171E+01  0.96277432476E-01  0.94599232429E-01  0.90007760106E+02  0.90000021740E+02 0.  0.
        -12    1    1    2    0    0  0.11724964171E+01 -0.96277432476E-01 -0.94599232429E-01  0.11802398938E+01  0.00000000000E+00 0.  1.
         11    1    3    3    0    0  0.11863297576E+01 -0.80924601152E+01  0.65920942567E+01  0.10504808231E+02  0.51100000000E-03 0. -1.
        -11    1    3    3    0    0  0.19136330397E+02 -0.27565597250E+02  0.94155805061E+01  0.34852753828E+02  0.51100000000E-03 0.  1.
         12    1    3    3    0    0 -0.21495156572E+02  0.35754334798E+02 -0.15913075530E+02  0.44650198048E+02  0.00000000000E+00 0. -1.
</event>
<event>
 7    1  0.4555057E-015  0.9000777E+02  0.7816164E-02  0.1186339E+00
        -11   -1    0    0    0    0  0.00000000000E+00  0.00000000000E+00  0.45593999997E+02  0.45594000000E+02  0.51100000000E-03 0.  1.
         11   -1    0    0    0    0 -0.00000000000E+00 -0.00000000000E+00 -0.45593999997E+02  0.45594000000E+02  0.51100000000E-03 0. -1.
    9900012    2    1    2    0    0  0.11152816821E+01 -0.38606472350E+00  0.68879633043E-02  0.90007768393E+02  0.90000030136E+02 0.  0.
        -12    1    1    2    0    0 -0.11152816821E+01  0.38606472350E+00 -0.68879633043E-02  0.11802316066E+01  0.00000000000E+00 0.  1.
         11    1    3    3    0    0 -0.14280666965E+02  0.75228832968E+00 -0.82026022503E+01  0.16485935540E+02  0.51100000000E-03 0. -1.
        -11    1    3    3    0    0 -0.21851719534E+02 -0.85084306557E+01 -0.16092870303E+02  0.28440666547E+02  0.51100000000E-03 0.  1.
        -12    1    3    3    0    0  0.37247668181E+02  0.73700776026E+01  0.24302360516E+02  0.45081166306E+02  0.00000000000E+00 0.  1.
</event>
<event>
 7    1  0.4555057E-015  0.9000775E+02  0.7816164E-02  0.1186339E+00
        -11   -1    0    0    0    0  0.00000000000E+00  0.00000000000E+00  0.45593999997E+02  0.45594000000E+02  0.51100000000E-03 0. -1.
         11   -1    0    0    0    0 -0.00000000000E+00 -0.00000000000E+00 -0.45593999997E+02  0.45594000000E+02  0.51100000000E-03 0.  1.
    9900012    2    1    2    0    0  0.69482112533E+00 -0.92162685909E+00 -0.24661971321E+00  0.90007748439E+02  0.90000009919E+02 0.  0.
        -12    1    1    2    0    0 -0.69482112533E+00  0.92162685909E+00  0.24661971321E+00  0.11802515607E+01  0.00000000000E+00 0.  1.
         11    1    3    3    0    0  0.11417677241E+02 -0.92694112431E+01  0.38118411116E+02  0.40857050856E+02  0.51100000000E-03 0. -1.
        -11    1    3    3    0    0 -0.97305441955E+01 -0.31438006990E+00  0.73344146137E-01  0.97358977395E+01  0.51100000000E-03 0.  1.
        -12    1    3    3    0    0 -0.99231191995E+00  0.86621644539E+01 -0.38438374975E+02  0.39414799844E+02  0.00000000000E+00 0.  1.
</event>
<event>
 7    1  0.4555057E-015  0.9000772E+02  0.7816164E-02  0.1186339E+00
        -11   -1    0    0    0    0  0.00000000000E+00  0.00000000000E+00  0.45593999997E+02  0.45594000000E+02  0.51100000000E-03 0. -1.
         11   -1    0    0    0    0 -0.00000000000E+00 -0.00000000000E+00 -0.45593999997E+02  0.45594000000E+02  0.51100000000E-03 0.  1.
    9900012    2    1    2    0    0 -0.54490112320E+00 -0.53381928418E+00  0.90066095875E+00  0.90007715956E+02  0.89999977006E+02 0.  0.
        -12    1    1    2    0    0  0.54490112320E+00  0.53381928418E+00 -0.90066095875E+00  0.11802840441E+01  0.00000000000E+00 0.  1.
         11    1    3    3    0    0 -0.10189203405E+01  0.96132095271E+01 -0.98387572221E+00  0.97169958202E+01  0.51100000000E-03 0. -1.
        -11    1    3    3    0    0  0.37356015600E+02 -0.15285264731E+02 -0.92791420301E+01  0.41415138495E+02  0.51100000000E-03 0.  1.
         12    1    3    3    0    0 -0.36881996383E+02  0.51382359202E+01  0.11163678711E+02  0.38875581641E+02  0.00000000000E+00 0. -1.
</event>
<event>
 7    1  0.4555057E-015  0.9000785E+02  0.7816164E-02  0.1186339E+00
        -11   -1    0    0    0    0  0.00000000000E+00  0.00000000000E+00  0.45593999997E+02  0.45594000000E+02  0.51100000000E-03 0. -1.
         11   -1    0    0    0    0 -0.00000000000E+00 -0.00000000000E+00 -0.45593999997E+02  0.45594000000E+02  0.51100000000E-03 0.  1.
    9900012    2    1    2    0    0  0.79357798176E+00 -0.85634505132E+00  0.17223646490E+00  0.90007848205E+02  0.90000111001E+02 0.  0.
        -12    1    1    2    0    0 -0.79357798176E+00  0.85634505132E+00 -0.17223646490E+00  0.11801517953E+01  0.00000000000E+00 0.  1.
         11    1    3    3    0    0 -0.70346107603E+01  0.85221990255E+01  0.46653366171E+00  0.11060347133E+02  0.51100000000E-03 0. -1.
        -11    1    3    3    0    0  0.16473244207E+02 -0.14235334101E+02 -0.35900465548E+02  0.41986378011E+02  0.51100000000E-03 0.  1.
         12    1    3    3    0    0 -0.86450554650E+01  0.48567900237E+01  0.35606168351E+02  0.36961123061E+02  0.00000000000E+00 0. -1.
</event>
