<event>
 7    1  0.5158441E-015  0.9000776E+02  0.7816164E-02  0.1186339E+00
        -11   -1    0    0    0    0  0.00000000000E+00  0.00000000000E+00  0.45593999997E+02  0.45594000000E+02  0.51100000000E-03 0. -1.
         11   -1    0    0    0    0 -0.00000000000E+00 -0.00000000000E+00 -0.45593999997E+02  0.45594000000E+02  0.51100000000E-03 0.  1.
    9900012    2    1    2    0    0  0.66802379055E+00 -0.40182770685E+00  0.88613939465E+00  0.90007760907E+02  0.90000022551E+02 0.  0.
        -12    1    1    2    0    0 -0.66802379055E+00  0.40182770685E+00 -0.88613939465E+00  0.11802390934E+01  0.00000000000E+00 0.  1.
         11    1    3    3    0    0  0.37767329097E+01 -0.48842632429E+01  0.72183130507E+01  0.94986200291E+01  0.51100000000E-03 0. -1.
        -11    1    3    3    0    0 -0.25101893662E+02 -0.29795850254E+02 -0.78946686479E+01  0.39752025748E+02  0.51100000000E-03 0.  1.
         12    1    3    3    0    0  0.21993184543E+02  0.34278285790E+02  0.15624949918E+01  0.40757115129E+02  0.00000000000E+00 0. -1.
</event>
<event>
 7    1  0.5158441E-015  0.9000773E+02  0.7816164E-02  0.1186339E+00
        -11   -1    0    0    0    0  0.00000000000E+00  0.00000000000E+00  0.45593999997E+02  0.45594000000E+02  0.51100000000E-03 0. -1.
         11   -1    0    0    0    0 -0.00000000000E+00 -0.00000000000E+00 -0.45593999997E+02  0.45594000000E+02  0.51100000000E-03 0.  1.
    9900012    2    1    2    0    0 -0.20018284178E+00  0.10712618914E+01 -0.45315890717E+00  0.90007733841E+02  0.89999995128E+02 0.  0.
        -12    1    1    2    0    0  0.20018284178E+00 -0.10712618914E+01  0.45315890717E+00  0.11802661586E+01  0.00000000000E+00 0.  1.
         11    1    3    3    0    0 -0.18567018834E+01 -0.27343107637E+01 -0.80222628314E+01  0.86764335089E+01  0.51100000000E-03 0. -1.
        -11    1    3    3    0    0  0.28333318728E+02  0.47828774862E+01 -0.25786956644E+02  0.38608548281E+02  0.51100000000E-03 0.  1.
         12    1    3    3    0    0 -0.26676799686E+02 -0.97730483113E+00  0.33356060568E+02  0.42722752051E+02  0.00000000000E+00 0. -1.
</event>
<event>
 7    1  0.5158441E-015  0.9000770E+02  0.7816164E-02  0.1186339E+00
        -11   -1    0    0    0    0  0.00000000000E+00  0.00000000000E+00  0.45593999997E+02  0.45594000000E+02  0.51100000000E-03 0.  1.
         11   -1    0    0    0    0 -0.00000000000E+00 -0.00000000000E+00 -0.45593999997E+02  0.45594000000E+02  0.51100000000E-03 0. -1.
    9900012    2    1    2    0    0  0.75863830019E+00  0.32174780925E+00  0.84501475713E+00  0.90007701875E+02  0.89999962740E+02 0.  0.
        -12    1    1    2    0    0 -0.75863830019E+00 -0.32174780925E+00 -0.84501475713E+00  0.11802981246E+01  0.00000000000E+00 0.  1.
         11    1    3    3    0    0  0.41496876107E+01  0.22372729078E+02 -0.34029722832E+02  0.40936303570E+02  0.51100000000E-03 0. -1.
        -11    1    3    3    0    0  0.64763770493E+01  0.32686916993E+01  0.59340631625E+01  0.93723482110E+01  0.51100000000E-03 0.  1.
        -12    1    3    3    0    0 -0.98674263598E+01 -0.25319672968E+02  0.28940674426E+02  0.39699050095E+02  0.00000000000E+00 0.  1.
</event>
<event>
 7    1  0.5158441E-015  0.9000769E+02  0.7816164E-02  0.1186339E+00
        -11   -1    0    0    0    0  0.00000000000E+00  0.00000000000E+00  0.45593999997E+02  0.45594000000E+02  0.51100000000E-03 0. -1.
         11   -1    0    0    0    0 -0.00000000000E+00 -0.00000000000E+00 -0.45593999997E+02  0.45594000000E+02  0.51100000000E-03 0.  1.
    9900012    2    1    2    0    0  0.10197669626E+01  0.54530601390E+00  0.23630737959E+00  0.90007693055E+02  0.89999953803E+02 0.  0.
        -12    1    1    2    0    0 -0.10197669626E+01 -0.54530601390E+00 -0.23630737959E+00  0.11803069450E+01  0.00000000000E+00 0.  1.
         11    1    3    3    0    0 -0.31497907347E+02  0.13701955346E+01  0.16670973928E+02  0.35663945029E+02  0.51100000000E-03 0. -1.
        -11    1    3    3    0    0 -0.55969652601E+01 -0.66850671194E+01  0.51752915875E+01  0.10139022921E+02  0.51100000000E-03 0.  1.
        -12    1    3    3    0    0  0.38114639569E+02  0.58601775987E+01 -0.21609958136E+02  0.44204725105E+02  0.00000000000E+00 0.  1.
</event>
<event>
 7    1  0.5637029E-015  0.9000776E+02  0.7816164E-02  0.1186339E+00
        -11   -1    0    0    0    0  0.00000000000E+00  0.00000000000E+00  0.45593999997E+02  0.45594000000E+02  0.51100000000E-03 0.  1.
         11   -1    0    0    0    0 -0.00000000000E+00 -0.00000000000E+00 -0.45593999997E+02  0.45594000000E+02  0.51100000000E-03 0. -1.
    9900012    2    1    2    0    0  0.48463686964E+00 -0.91477290909E+00 -0.56681190956E+00  0.90007763536E+02  0.90000025214E+02 0.  0.
        -12    1    1    2    0    0 -0.48463686964E+00  0.91477290909E+00  0.56681190956E+00  0.11802364642E+01  0.00000000000E+00 0.  1.
         11    1    3    3    0    0  0.11508796390E+02 -0.33090190845E+02 -0.10378730037E+02  0.36539446656E+02  0.51100000000E-03 0. -1.
        -11    1    3    3    0    0 -0.22607676999E+01 -0.95333155349E+01  0.31052210980E+00  0.98026322956E+01  0.51100000000E-03 0.  1.
        -12    1    3    3    0    0 -0.87633918202E+01  0.41708733471E+02  0.95013960181E+01  0.43665684584E+02  0.00000000000E+00 0.  1.
</event>
<event>
 7    1  0.5158441E-015  0.9000778E+02  0.7816164E-02  0.1186339E+00
        -11   -1    0    0    0    0  0.00000000000E+00  0.00000000000E+00  0.45593999997E+02  0.45594000000E+02  0.51100000000E-03 0. -1.
         11   -1    0    0    0    0 -0.00000000000E+00 -0.00000000000E+00 -0.45593999997E+02  0.45594000000E+02  0.51100000000E-03 0.  1.
    9900012    2    1    2    0    0  0.28654326990E+00 -0.97713465302E+00  0.59666999928E+00  0.90007782112E+02  0.90000044036E+02 0.  0.
        -12    1    1    2    0    0 -0.28654326990E+00  0.97713465302E+00 -0.59666999928E+00  0.11802178882E+01  0.00000000000E+00 0.  1.
         11    1    3    3    0    0  0.63785899628E+01 -0.94667671157E+01  0.19509344787E+02  0.22603553345E+02  0.51100000000E-03 0. -1.
        -11    1    3    3    0    0 -0.10602668502E+01  0.35521666084E+02 -0.30688128989E+01  0.35669742641E+02  0.51100000000E-03 0.  1.
         12    1    3    3    0    0 -0.50317798427E+01 -0.27032033622E+02 -0.15843861889E+02  0.31734486126E+02  0.00000000000E+00 0. -1.
</event>
<event>
 7    1  0.5158441E-015  0.9000763E+02  0.7816164E-02  0.1186339E+00
        -11   -1    0    0    0    0  0.00000000000E+00  0.00000000000E+00  0.45593999997E+02  0.45594000000E+02  0.51100000000E-03 0. -1.
         11   -1    0    0    0    0 -0.00000000000E+00 -0.00000000000E+00 -0.45593999997E+02  0.45594000000E+02  0.51100000000E-03 0.  1.
    9900012    2    1    2    0    0  0.76703446758E+00  0.87729554146E+00  0.18783879825E+00  0.90007630246E+02  0.89999890165E+02 0.  0.
        -12    1    1    2    0    0 -0.76703446758E+00 -0.87729554146E+00 -0.18783879825E+00  0.11803697538E+01  0.00000000000E+00 0.  1.
         11    1    3    3    0    0 -0.34040926971E+02  0.51839124320E+01 -0.20638112617E+01  0.34495173203E+02  0.51100000000E-03 0. -1.
        -11    1    3    3    0    0 -0.10790550809E+00 -0.28016729629E+01 -0.15890401413E+02  0.16135856727E+02  0.51100000000E-03 0.  1.
        -12    1    3    3    0    0  0.34915866946E+02 -0.15049439276E+01  0.18142051473E+02  0.39376600316E+02  0.00000000000E+00 0.  1.
</event>
<event>
 7    1  0.5158441E-015  0.9000764E+02  0.7816164E-02  0.1186339E+00
        -11   -1    0    0    0    0  0.00000000000E+00  0.00000000000E+00  0.45593999997E+02  0.45594000000E+02  0.51100000000E-03 0. -1.
         11   -1    0    0    0    0 -0.00000000000E+00 -0.00000000000E+00 -0.45593999997E+02  0.45594000000E+02  0.51100000000E-03 0.  1.
    9900012    2    1    2    0    0  0.11578605016E+01  0.78096791738E-01 -0.21567881483E+00  0.90007636750E+02  0.89999896755E+02 0.  0.
        -12    1    1    2    0    0 -0.11578605016E+01 -0.78096791738E-01  0.21567881483E+00  0.11803632497E+01  0.00000000000E+00 0.  1.
         11    1    3    3    0    0 -0.12227325730E+01 -0.74516884843E+01 -0.64866501880E+01  0.99548665051E+01  0.51100000000E-03 0. -1.
        -11    1    3    3    0    0  0.14185415657E+02 -0.10299559773E+02 -0.31843423458E+02  0.36349835854E+02  0.51100000000E-03 0.  1.
         12    1    3    3    0    0 -0.11804822583E+02  0.17829345049E+02  0.38114394831E+02  0.43702934391E+02  0.00000000000E+00 0. -1.
</event>
<event>
 7    1  0.5158441E-015  0.9000778E+02  0.7816164E-02  0.1186339E+00
        -11   -1    0    0    0    0  0.00000000000E+00  0.00000000000E+00  0.45593999997E+02  0.45594000000E+02  0.51100000000E-03 0. -1.
         11   -1    0    0    0    0 -0.00000000000E+00 -0.00000000000E+00 -0.45593999997E+02  0.45594000000E+02  0.51100000000E-03 0.  1.
    9900012    2    1    2    0    0 -0.10159187195E+01 -0.40268222475E+00  0.44572784329E+00  0.90007780898E+02  0.90000042806E+02 0.  0.
        -12    1    1    2    0    0  0.10159187195E+01  0.40268222475E+00 -0.44572784329E+00  0.11802191021E+01  0.00000000000E+00 0.  1.
         11    1    3    3    0    0 -0.60991194802E+01  0.15665901805E+01 -0.72932344791E+01  0.96355971614E+01  0.51100000000E-03 0. -1.
        -11    1    3    3    0    0 -0.60558198730E+01 -0.35091450432E+02  0.22838328354E+02  0.42304516190E+02  0.51100000000E-03 0.  1.
         12    1    3    3    0    0  0.11139020634E+02  0.33122178027E+02 -0.15099366032E+02  0.38067667547E+02  0.00000000000E+00 0. -1.
</event>
<event>
 7    1  0.5158441E-015  0.9000775E+02  0.7816164E-02  0.1186339E+00
        -11   -1    0    0    0    0  0.00000000000E+00  0.00000000000E+00  0.45593999997E+02  0.45594000000E+02  0.51100000000E-03 0.  1.
         11   -1    0    0    0    0 -0.00000000000E+00 -0.00000000000E+00 -0.45593999997E+02  0.45594000000E+02  0.51100000000E-03 0. -1.
    9900012    2    1    2    0    0  0.84084667876E+00 -0.36751511375E+00 -0.74223186156E+00  0.90007746369E+02  0.90000007822E+02 0.  0.
        -12    1    1    2    0    0 -0.84084667876E+00  0.36751511375E+00  0.74223186156E+00  0.11802536305E+01  0.00000000000E+00 0.  1.
         11    1    3    3    0    0  0.82124898114E+01 -0.19294487892E+01 -0.44280571477E+01  0.95276152261E+01  0.51100000000E-03 0. -1.
        -11    1    3    3    0    0  0.11424434951E+02 -0.29480183585E+02  0.23257756346E+02  0.39249486221E+02  0.51100000000E-03 0.  1.
         12    1    3    3    0    0 -0.18796078084E+02  0.31042117260E+02 -0.19571931059E+02  0.41230644922E+02  0.00000000000E+00 0. -1.
</event>
<event>
 7    1  0.5158441E-015  0.9000774E+02  0.7816164E-02  0.1186339E+00
        -11   -1    0    0    0    0  0.00000000000E+00  0.00000000000E+00  0.45593999997E+02  0.45594000000E+02  0.51100000000E-03 0.  1.
         11   -1    0    0    0    0 -0.00000000000E+00 -0.00000000000E+00 -0.45593999997E+02  0.45594000000E+02  0.51100000000E-03 0. -1.
    9900012    2    1    2    0    0  0.15690372412E+00  0.48671660670E+00 -0.10637183876E+01  0.90007742129E+02  0.90000003525E+02 0.  0.
        -12    1    1    2    0    0 -0.15690372412E+00 -0.48671660670E+00  0.10637183876E+01  0.11802578710E+01  0.00000000000E+00 0.  1.
         11    1    3    3    0    0  0.31757659735E+02 -0.30874106934E+01 -0.59361158403E-01  0.31907437701E+02  0.51100000000E-03 0. -1.
        -11    1    3    3    0    0  0.10755008656E+02 -0.70651918502E+01  0.54121234832E+01  0.13959879223E+02  0.51100000000E-03 0.  1.
        -12    1    3    3    0    0 -0.42355764667E+02  0.10639319150E+02 -0.64164807124E+01  0.44140425205E+02  0.00000000000E+00 0.  1.
</event>
<event>
 7    1  0.5158441E-015  0.9000808E+02  0.7816164E-02  0.1186338E+00
        -11   -1    0    0    0    0  0.00000000000E+00  0.00000000000E+00  0.45593999997E+02  0.45594000000E+02  0.51100000000E-03 0.  1.
         11   -1    0    0    0    0 -0.00000000000E+00 -0.00000000000E+00 -0.45593999997E+02  0.45594000000E+02  0.51100000000E-03 0. -1.
    9900012    2    1    2    0    0  0.83833521874E+00 -0.61456054558E+00  0.55832945484E+00  0.90008075264E+02  0.90000341057E+02 0.  0.
        -12    1    1    2    0    0 -0.83833521874E+00  0.61456054558E+00 -0.55832945484E+00  0.11799247363E+01  0.00000000000E+00 0.  1.
         11    1    3    3    0    0  0.27111601711E+02 -0.92881645071E+01 -0.20456699972E+02  0.35210588198E+02  0.51100000000E-03 0. -1.
        -11    1    3    3    0    0 -0.24447816701E+00 -0.40991090023E+01 -0.10918546801E+02  0.11665210186E+02  0.51100000000E-03 0.  1.
        -12    1    3    3    0    0 -0.26028788325E+02  0.12772712964E+02  0.31933576227E+02  0.43132276880E+02  0.00000000000E+00 0.  1.
</event>
<event>
 7    1  0.5158441E-015  0.9000774E+02  0.7816164E-02  0.1186339E+00
        -11   -1    0    0    0    0  0.00000000000E+00  0.00000000000E+00  0.45593999997E+02  0.45594000000E+02  0.51100000000E-03 0. -1.
         11   -1    0    0    0    0 -0.00000000000E+00 -0.00000000000E+00 -0.45593999997E+02  0.45594000000E+02  0.51100000000E-03 0.  1.
    9900012    2    1    2    0    0  0.96996399747E+00 -0.38683914068E+00 -0.55002949110E+00  0.90007742775E+02  0.90000004179E+02 0.  0.
        -12    1    1    2    0    0 -0.96996399747E+00  0.38683914068E+00  0.55002949110E+00  0.11802572255E+01  0.00000000000E+00 0.  1.
         11    1    3    3    0    0  0.12395356622E+02  0.23809109842E+02  0.17488130062E+02  0.32036748751E+02  0.51100000000E-03 0. -1.
        -11    1    3    3    0    0  0.14731681049E+02 -0.63235306996E+01  0.70958754448E+01  0.17531711714E+02  0.51100000000E-03 0.  1.
        -12    1    3    3    0    0 -0.26157073674E+02 -0.17872418283E+02 -0.25134034998E+02  0.40439282309E+02  0.00000000000E+00 0.  1.
</event>
<event>
 7    1  0.5158441E-015  0.9000770E+02  0.7816164E-02  0.1186339E+00
        -11   -1    0    0    0    0  0.00000000000E+00  0.00000000000E+00  0.45593999997E+02  0.45594000000E+02  0.51100000000E-03 0.  1.
         11   -1    0    0    0    0 -0.00000000000E+00 -0.00000000000E+00 -0.45593999997E+02  0.45594000000E+02  0.51100000000E-03 0. -1.
    9900012    2    1    2    0    0 -0.43934014068E+00  0.89557862625E+00  0.63088910868E+00  0.90007702621E+02  0.89999963496E+02 0.  0.
        -12    1    1    2    0    0  0.43934014068E+00 -0.89557862625E+00 -0.63088910868E+00  0.11802973788E+01  0.00000000000E+00 0.  1.
         11    1    3    3    0    0  0.20959247187E+02  0.28444671210E+02 -0.13040509556E+02  0.37662239081E+02  0.51100000000E-03 0. -1.
        -11    1    3    3    0    0 -0.92046155106E+01  0.14585263276E+00 -0.10246025211E+02  0.13774151610E+02  0.51100000000E-03 0.  1.
        -12    1    3    3    0    0 -0.12193971817E+02 -0.27694945216E+02  0.23917423875E+02  0.38571311930E+02  0.00000000000E+00 0.  1.
</event>
<event>
 7    1  0.5158441E-015  0.9000780E+02  0.7816164E-02  0.1186339E+00
        -11   -1    0    0    0    0  0.00000000000E+00  0.00000000000E+00  0.45593999997E+02  0.45594000000E+02  0.51100000000E-03 0.  1.
         11   -1    0    0    0    0 -0.00000000000E+00 -0.00000000000E+00 -0.45593999997E+02  0.45594000000E+02  0.51100000000E-03 0. -1.
    9900012    2    1    2    0    0  0.89145011180E+00 -0.45541664509E+00  0.62512037879E+00  0.90007803783E+02  0.90000065993E+02 0.  0.
        -12    1    1    2    0    0 -0.89145011180E+00  0.45541664509E+00 -0.62512037879E+00  0.11801962169E+01  0.00000000000E+00 0.  1.
         11    1    3    3    0    0 -0.68218467224E+01  0.24894565419E+01  0.66862575578E+01  0.98712221618E+01  0.51100000000E-03 0. -1.
        -11    1    3    3    0    0  0.33483260296E+02 -0.11137847811E+02  0.21665144269E+02  0.41407231860E+02  0.51100000000E-03 0.  1.
         12    1    3    3    0    0 -0.25769963462E+02  0.81929746237E+01 -0.27726281448E+02  0.38729349761E+02  0.00000000000E+00 0. -1.
</event>
<event>
 7    1  0.5158441E-015  0.9000778E+02  0.7816164E-02  0.1186339E+00
        -11   -1    0    0    0    0  0.00000000000E+00  0.00000000000E+00  0.45593999997E+02  0.45594000000E+02  0.51100000000E-03 0. -1.
         11   -1    0    0    0    0 -0.00000000000E+00 -0.00000000000E+00 -0.45593999997E+02  0.45594000000E+02  0.51100000000E-03 0.  1.
    9900012    2    1    2    0    0  0.75994999546E+00  0.89683709514E+00 -0.10523232143E+00  0.90007781964E+02  0.90000043886E+02 0.  0.
        -12    1    1    2    0    0 -0.75994999546E+00 -0.89683709514E+00  0.10523232143E+00  0.11802180359E+01  0.00000000000E+00 0.  1.
         11    1    3    3    0    0 -0.25820436524E+02  0.73796055098E+01 -0.30012604035E+02  0.40272942791E+02  0.51100000000E-03 0. -1.
        -11    1    3    3    0    0 -0.40854617911E+01 -0.50129662463E+01  0.13396323409E+02  0.14875560823E+02  0.51100000000E-03 0.  1.
        -12    1    3    3    0    0  0.30665848311E+02 -0.14698021683E+01  0.16511048304E+02  0.34859278351E+02  0.00000000000E+00 0.  1.
</event>
<event>
 7    1  0.5158441E-015  0.9000766E+02  0.7816164E-02  0.1186339E+00
        -11   -1    0    0    0    0  0.00000000000E+00  0.00000000000E+00  0.45593999997E+02  0.45594000000E+02  0.51100000000E-03 0. -1.
         11   -1    0    0    0    0 -0.00000000000E+00 -0.00000000000E+00 -0.45593999997E+02  0.45594000000E+02  0.51100000000E-03 0.  1.
    9900012    2    1    2    0    0  0.99210289000E+00 -0.44794858380E+00  0.45636613827E+00  0.90007662705E+02  0.89999923053E+02 0.  0.
        -12    1    1    2    0    0 -0.99210289000E+00  0.44794858380E+00 -0.45636613827E+00  0.11803372951E+01  0.00000000000E+00 0.  1.
         11    1    3    3    0    0  0.89519498535E+01 -0.17768145576E+00 -0.15199140363E+02  0.17640375419E+02  0.51100000000E-03 0. -1.
        -11    1    3    3    0    0 -0.93599103861E+01  0.22427574672E+02 -0.19047195739E+02  0.30877171080E+02  0.51100000000E-03 0.  1.
         12    1    3    3    0    0  0.14000634226E+01 -0.22697841800E+02  0.34702702241E+02  0.41490116206E+02  0.00000000000E+00 0. -1.
</event>
<event>
 7    1  0.5158441E-015  0.9000768E+02  0.7816164E-02  0.1186339E+00
        -11   -1    0    0    0    0  0.00000000000E+00  0.00000000000E+00  0.45593999997E+02  0.45594000000E+02  0.51100000000E-03 0.  1.
         11   -1    0    0    0    0 -0.00000000000E+00 -0.00000000000E+00 -0.45593999997E+02  0.45594000000E+02  0.51100000000E-03 0. -1.
    9900012    2    1    2    0    0 -0.10762825017E+01  0.29791477802E+00 -0.38213166786E+00  0.90007677226E+02  0.89999937766E+02 0.  0.
        -12    1    1    2    0    0  0.10762825017E+01 -0.29791477802E+00  0.38213166786E+00  0.11803227737E+01  0.00000000000E+00 0.  1.
         11    1    3    3    0    0  0.56610122123E+01  0.16264348501E+01  0.13455318845E+02  0.14688020801E+02  0.51100000000E-03 0. -1.
        -11    1    3    3    0    0 -0.77224069112E+01  0.20885000645E+00  0.30236564271E+02  0.31207835651E+02  0.51100000000E-03 0.  1.
         12    1    3    3    0    0  0.98511219723E+00 -0.15373700785E+01 -0.44074014784E+02  0.44111820774E+02  0.00000000000E+00 0. -1.
</event>
<event>
 7    1  0.5158441E-015  0.9000762E+02  0.7816164E-02  0.1186339E+00
        -11   -1    0    0    0    0  0.00000000000E+00  0.00000000000E+00  0.45593999997E+02  0.45594000000E+02  0.51100000000E-03 0. -1.
         11   -1    0    0    0    0 -0.00000000000E+00 -0.00000000000E+00 -0.45593999997E+02  0.45594000000E+02  0.51100000000E-03 0.  1.
    9900012    2    1    2    0    0 -0.88336211417E+00  0.78289604312E+00  0.57180570138E-02  0.90007623986E+02  0.89999883822E+02 0.  0.
        -12    1    1    2    0    0  0.88336211417E+00 -0.78289604312E+00 -0.57180570138E-02  0.11803760144E+01  0.00000000000E+00 0.  1.
         11    1    3    3    0    0 -0.21154154725E+02  0.16512741195E+02 -0.84122621459E+01  0.28123567316E+02  0.51100000000E-03 0. -1.
        -11    1    3    3    0    0 -0.10996593375E+02 -0.74776706551E+00 -0.16034394847E+02  0.19457287576E+02  0.51100000000E-03 0.  1.
         12    1    3    3    0    0  0.31267385986E+02 -0.14982078087E+02  0.24452375050E+02  0.42426769094E+02  0.00000000000E+00 0. -1.
</event>
<event>
 7    1  0.5158441E-015  0.9000776E+02  0.7816164E-02  0.1186339E+00
        -11   -1    0    0    0    0  0.00000000000E+00  0.00000000000E+00  0.45593999997E+02  0.45594000000E+02  0.51100000000E-03 0. -1.
         11   -1    0    0    0    0 -0.00000000000E+00 -0.00000000000E+00 -0.45593999997E+02  0.45594000000E+02  0.51100000000E-03 0.  1.
    9900012    2    1    2    0    0 -0.56021994385E+00  0.97523810337E+00  0.35781199222E+00  0.90007760547E+02  0.90000022187E+02 0.  0.
        -12    1    1    2    0    0  0.56021994385E+00 -0.97523810337E+00 -0.35781199222E+00  0.11802394526E+01  0.00000000000E+00 0.  1.
         11    1    3    3    0    0  0.27025887498E+01  0.93323032202E+01  0.62711482773E+00  0.97359715803E+01  0.51100000000E-03 0. -1.
        -11    1    3    3    0    0  0.75095376777E+01  0.33338868801E+02  0.10739550657E+02  0.35821938496E+02  0.51100000000E-03 0.  1.
         12    1    3    3    0    0 -0.10772346371E+02 -0.41695933918E+02 -0.11008853492E+02  0.44449850471E+02  0.00000000000E+00 0. -1.
</event>
<event>
 7    1  0.5158441E-015  0.9000769E+02  0.7816164E-02  0.1186339E+00
        -11   -1    0    0    0    0  0.00000000000E+00  0.00000000000E+00  0.45593999997E+02  0.45594000000E+02  0.51100000000E-03 0. -1.
         11   -1    0    0    0    0 -0.00000000000E+00 -0.00000000000E+00 -0.45593999997E+02  0.45594000000E+02  0.51100000000E-03 0.  1.
    9900012    2    1    2    0    0  0.69733427921E+00  0.77724791305E+00  0.55022365716E+00  0.90007688394E+02  0.89999949080E+02 0.  0.
        -12    1    1    2    0    0 -0.69733427921E+00 -0.77724791305E+00 -0.55022365716E+00  0.11803116064E+01  0.00000000000E+00 0.  1.
         11    1    3    3    0    0 -0.37671694279E+02  0.24346735157E+01 -0.35946110944E+00  0.37751998590E+02  0.51100000000E-03 0. -1.
        -11    1    3    3    0    0 -0.46133410154E+01 -0.67331660672E+01 -0.32283835760E+01  0.87772946508E+01  0.51100000000E-03 0.  1.
        -12    1    3    3    0    0  0.42982369574E+02  0.50757404645E+01  0.41380683426E+01  0.43478395153E+02  0.00000000000E+00 0.  1.
</event>
<event>
 7    1  0.5158441E-015  0.9000710E+02  0.7816164E-02  0.1186340E+00
        -11   -1    0    0    0    0  0.00000000000E+00  0.00000000000E+00  0.45593999997E+02  0.45594000000E+02  0.51100000000E-03 0.  1.
         11   -1    0    0    0    0 -0.00000000000E+00 -0.00000000000E+00 -0.45593999997E+02  0.45594000000E+02  0.51100000000E-03 0. -1.
    9900012    2    1    2    0    0  0.76561826542E+00 -0.38414666586E+00 -0.81288842953E+00  0.90007098824E+02  0.89999351726E+02 0.  0.
        -12    1    1    2    0    0 -0.76561826542E+00  0.38414666586E+00  0.81288842953E+00  0.11809011763E+01  0.00000000000E+00 0.  1.
         11    1    3    3    0    0  0.14922888335E+02 -0.13797218051E+01 -0.44812676578E+01  0.15642186184E+02  0.51100000000E-03 0. -1.
        -11    1    3    3    0    0  0.14429375427E+02 -0.17881697904E+02  0.25042573993E+02  0.33986651903E+02  0.51100000000E-03 0.  1.
         12    1    3    3    0    0 -0.28586645497E+02  0.18877273043E+02 -0.21374194764E+02  0.40378260737E+02  0.00000000000E+00 0. -1.
</event>
<event>
 7    1  0.5158441E-015  0.9000769E+02  0.7816164E-02  0.1186339E+00
        -11   -1    0    0    0    0  0.00000000000E+00  0.00000000000E+00  0.45593999997E+02  0.45594000000E+02  0.51100000000E-03 0.  1.
         11   -1    0    0    0    0 -0.00000000000E+00 -0.00000000000E+00 -0.45593999997E+02  0.45594000000E+02  0.51100000000E-03 0. -1.
    9900012    2    1    2    0    0  0.82561280256E+00  0.30449523449E-01 -0.84295595660E+00  0.90007687152E+02  0.89999947823E+02 0.  0.
        -12    1    1    2    0    0 -0.82561280256E+00 -0.30449523449E-01  0.84295595660E+00  0.11803128475E+01  0.00000000000E+00 0.  1.
         11    1    3    3    0    0  0.20687849493E+01 -0.52089022184E+01 -0.81405409332E+01  0.98833668572E+01  0.51100000000E-03 0. -1.
        -11    1    3    3    0    0  0.17345140211E+02 -0.17616110368E+02  0.32859131676E+02  0.41120600290E+02  0.51100000000E-03 0.  1.
         12    1    3    3    0    0 -0.18588312358E+02  0.22855462110E+02 -0.25561546699E+02  0.39003720005E+02  0.00000000000E+00 0. -1.
</event>
<event>
 7    1  0.5158441E-015  0.9000780E+02  0.7816164E-02  0.1186339E+00
        -11   -1    0    0    0    0  0.00000000000E+00  0.00000000000E+00  0.45593999997E+02  0.45594000000E+02  0.51100000000E-03 0.  1.
         11   -1    0    0    0    0 -0.00000000000E+00 -0.00000000000E+00 -0.45593999997E+02  0.45594000000E+02  0.51100000000E-03 0. -1.
    9900012    2    1    2    0    0  0.94395411067E+00  0.70735722437E+00  0.38269659532E-01  0.90007801638E+02  0.90000063820E+02 0.  0.
        -12    1    1    2    0    0 -0.94395411067E+00 -0.70735722437E+00 -0.38269659532E-01  0.11801983616E+01  0.00000000000E+00 0.  1.
         11    1    3    3    0    0 -0.11685238400E+02 -0.35023126418E+02 -0.16056436689E+02  0.40261313192E+02  0.51100000000E-03 0. -1.
        -11    1    3    3    0    0 -0.73895314228E+01  0.50979705433E+01 -0.15676102144E+01  0.91132804387E+01  0.51100000000E-03 0.  1.
        -12    1    3    3    0    0  0.20018723933E+02  0.30632513099E+02  0.17662316562E+02  0.40633208008E+02  0.00000000000E+00 0.  1.
</event>
<event>
 7    1  0.5158441E-015  0.9000764E+02  0.7816164E-02  0.1186339E+00
        -11   -1    0    0    0    0  0.00000000000E+00  0.00000000000E+00  0.45593999997E+02  0.45594000000E+02  0.51100000000E-03 0.  1.
         11   -1    0    0    0    0 -0.00000000000E+00 -0.00000000000E+00 -0.45593999997E+02  0.45594000000E+02  0.51100000000E-03 0. -1.
    9900012    2    1    2    0    0  0.30951311752E+00 -0.91285416980E+00  0.68129178518E+00  0.90007635818E+02  0.89999895811E+02 0.  0.
        -12    1    1    2    0    0 -0.30951311752E+00  0.91285416980E+00 -0.68129178518E+00  0.11803641818E+01  0.00000000000E+00 0.  1.
         11    1    3    3    0    0  0.34308324604E+02 -0.11756549138E+02 -0.13750493307E+02  0.38785998133E+02  0.51100000000E-03 0. -1.
        -11    1    3    3    0    0 -0.25064000472E+01 -0.11853083629E+01 -0.94888622496E+01  0.98856210814E+01  0.51100000000E-03 0.  1.
        -12    1    3    3    0    0 -0.31492411439E+02  0.12029003331E+02  0.23920647342E+02  0.41336016603E+02  0.00000000000E+00 0.  1.
</event>
<event>
 7    1  0.5158441E-015  0.9000790E+02  0.7816164E-02  0.1186339E+00
        -11   -1    0    0    0    0  0.00000000000E+00  0.00000000000E+00  0.45593999997E+02  0.45594000000E+02  0.51100000000E-03 0.  1.
         11   -1    0    0    0    0 -0.00000000000E+00 -0.00000000000E+00 -0.45593999997E+02  0.45594000000E+02  0.51100000000E-03 0. -1.
    9900012    2    1    2    0    0  0.87134462162E+00  0.24554778049E+00 -0.75703442479E+00  0.90007899885E+02  0.90000163363E+02 0.  0.
        -12    1    1    2    0    0 -0.87134462162E+00 -0.24554778049E+00  0.75703442479E+00  0.11801001154E+01  0.00000000000E+00 0.  1.
         11    1    3    3    0    0 -0.37914371097E+02 -0.15828837886E+02 -0.75115371665E+00  0.41092771587E+02  0.51100000000E-03 0. -1.
        -11    1    3    3    0    0  0.28116021829E+01 -0.60423418392E+01  0.49923345740E+00  0.66831307067E+01  0.51100000000E-03 0.  1.
        -12    1    3    3    0    0  0.35974113536E+02  0.22116727505E+02 -0.50511416555E+00  0.42231997591E+02  0.00000000000E+00 0.  1.
</event>
<event>
 7    1  0.5158441E-015  0.9000764E+02  0.7816164E-02  0.1186339E+00
        -11   -1    0    0    0    0  0.00000000000E+00  0.00000000000E+00  0.45593999997E+02  0.45594000000E+02  0.51100000000E-03 0.  1.
         11   -1    0    0    0    0 -0.00000000000E+00 -0.00000000000E+00 -0.45593999997E+02  0.45594000000E+02  0.51100000000E-03 0. -1.
    9900012    2    1    2    0    0  0.81045486977E+00  0.53251743260E+00 -0.67293368625E+00  0.90007639183E+02  0.89999899220E+02 0.  0.
        -12    1    1    2    0    0 -0.81045486977E+00 -0.53251743260E+00  0.67293368625E+00  0.11803608169E+01  0.00000000000E+00 0.  1.
         11    1    3    3    0    0  0.87859938341E+01 -0.41775819278E+01 -0.51116123712E+01  0.10989743387E+02  0.51100000000E-03 0. -1.
        -11    1    3    3    0    0  0.13450387081E+02 -0.32195272991E+02 -0.51769006849E+01  0.35273911274E+02  0.51100000000E-03 0.  1.
         12    1    3    3    0    0 -0.21425926045E+02  0.36905372351E+02  0.96155793698E+01  0.43743984522E+02  0.00000000000E+00 0. -1.
</event>
<event>
 7    1  0.5158441E-015  0.9000777E+02  0.7816164E-02  0.1186339E+00
        -11   -1    0    0    0    0  0.00000000000E+00  0.00000000000E+00  0.45593999997E+02  0.45594000000E+02  0.51100000000E-03 0.  1.
         11   -1    0    0    0    0 -0.00000000000E+00 -0.00000000000E+00 -0.45593999997E+02  0.45594000000E+02  0.51100000000E-03 0. -1.
    9900012    2    1    2    0    0  0.66980503874E+00  0.74850753833E+00 -0.61971226819E+00  0.90007768828E+02  0.90000030576E+02 0.  0.
        -12    1    1    2    0    0 -0.66980503874E+00 -0.74850753833E+00  0.61971226819E+00  0.11802311724E+01  0.00000000000E+00 0.  1.
         11    1    3    3    0    0  0.11556292305E+02 -0.35810113840E+01 -0.23480532284E+01  0.12324158737E+02  0.51100000000E-03 0. -1.
        -11    1    3    3    0    0  0.14024203632E+02 -0.26110534987E+02  0.18483871065E+02  0.34929812691E+02  0.51100000000E-03 0.  1.
         12    1    3    3    0    0 -0.24910690897E+02  0.30440053909E+02 -0.16755530105E+02  0.42753797399E+02  0.00000000000E+00 0. -1.
</event>
<event>
 7    1  0.5158441E-015  0.9000774E+02  0.7816164E-02  0.1186339E+00
        -11   -1    0    0    0    0  0.00000000000E+00  0.00000000000E+00  0.45593999997E+02  0.45594000000E+02  0.51100000000E-03 0.  1.
         11   -1    0    0    0    0 -0.00000000000E+00 -0.00000000000E+00 -0.45593999997E+02  0.45594000000E+02  0.51100000000E-03 0. -1.
    9900012    2    1    2    0    0  0.14487127888E+00 -0.51453152935E+00 -0.10522707419E+01  0.90007744055E+02  0.90000005476E+02 0.  0.
        -12    1    1    2    0    0 -0.14487127888E+00  0.51453152935E+00  0.10522707419E+01  0.11802559453E+01  0.00000000000E+00 0.  1.
         11    1    3    3    0    0 -0.20182794001E+01  0.31058545240E+01  0.86389954718E+01  0.93995758992E+01  0.51100000000E-03 0. -1.
        -11    1    3    3    0    0 -0.13374254603E+02 -0.19199771527E+02  0.28290716765E+02  0.36713302333E+02  0.51100000000E-03 0.  1.
         12    1    3    3    0    0  0.15537405282E+02  0.15579385473E+02 -0.37981982978E+02  0.43894865823E+02  0.00000000000E+00 0. -1.
</event>
<event>
 7    1  0.5158441E-015  0.9000772E+02  0.7816164E-02  0.1186339E+00
        -11   -1    0    0    0    0  0.00000000000E+00  0.00000000000E+00  0.45593999997E+02  0.45594000000E+02  0.51100000000E-03 0. -1.
         11   -1    0    0    0    0 -0.00000000000E+00 -0.00000000000E+00 -0.45593999997E+02  0.45594000000E+02  0.51100000000E-03 0.  1.
    9900012    2    1    2    0    0 -0.18741456947E+00  0.73514500134E+00  0.90415209792E+00  0.90007723164E+02  0.89999984310E+02 0.  0.
        -12    1    1    2    0    0  0.18741456947E+00 -0.73514500134E+00 -0.90415209792E+00  0.11802768362E+01  0.00000000000E+00 0.  1.
         11    1    3    3    0    0  0.98046981411E+01 -0.19689090623E+02  0.15342320486E+02  0.26817516540E+02  0.51100000000E-03 0. -1.
        -11    1    3    3    0    0  0.21416075765E+01 -0.64582241030E+01  0.18062695108E+02  0.19301712266E+02  0.51100000000E-03 0.  1.
        -12    1    3    3    0    0 -0.12133720287E+02  0.26882459727E+02 -0.32500863496E+02  0.43888494358E+02  0.00000000000E+00 0.  1.
</event>
<event>
 7    1  0.5158441E-015  0.9000773E+02  0.7816164E-02  0.1186339E+00
        -11   -1    0    0    0    0  0.00000000000E+00  0.00000000000E+00  0.45593999997E+02  0.45594000000E+02  0.51100000000E-03 0. -1.
         11   -1    0    0    0    0 -0.00000000000E+00 -0.00000000000E+00 -0.45593999997E+02  0.45594000000E+02  0.51100000000E-03 0.  1.
    9900012    2    1    2    0    0  0.10135713649E+01  0.23340812947E+00  0.55787671681E+00  0.90007731938E+02  0.89999993200E+02 0.  0.
        -12    1    1    2    0    0 -0.10135713649E+01 -0.23340812947E+00 -0.55787671681E+00  0.11802680619E+01  0.00000000000E+00 0.  1.
         11    1    3    3    0    0  0.66187083998E+00 -0.50327658294E+01 -0.94590125048E+01  0.10734976606E+02  0.51100000000E-03 0. -1.
        -11    1    3    3    0    0  0.49917130456E+00  0.11089023069E+02 -0.33539487336E+02  0.35328640161E+02  0.51100000000E-03 0.  1.
         12    1    3    3    0    0 -0.14747077961E+00 -0.58228491101E+01  0.43556376557E+02  0.43944115171E+02  0.00000000000E+00 0. -1.
</event>
<event>
 7    1  0.5158441E-015  0.9000776E+02  0.7816164E-02  0.1186339E+00
        -11   -1    0    0    0    0  0.00000000000E+00  0.00000000000E+00  0.45593999997E+02  0.45594000000E+02  0.51100000000E-03 0.  1.
         11   -1    0    0    0    0 -0.00000000000E+00 -0.00000000000E+00 -0.45593999997E+02  0.45594000000E+02  0.51100000000E-03 0. -1.
    9900012    2    1    2    0    0  0.42116768892E+00  0.93452108202E+00 -0.58503466460E+00  0.90007755350E+02  0.90000016921E+02 0.  0.
        -12    1    1    2    0    0 -0.42116768892E+00 -0.93452108202E+00  0.58503466460E+00  0.11802446499E+01  0.00000000000E+00 0.  1.
         11    1    3    3    0    0  0.17242681247E+02 -0.30335515749E+02 -0.10976952813E+02  0.36579325659E+02  0.51100000000E-03 0. -1.
        -11    1    3    3    0    0 -0.75561165198E+01 -0.42663586592E+01 -0.84851214522E+01  0.12136473927E+02  0.51100000000E-03 0.  1.
        -12    1    3    3    0    0 -0.92653970383E+01  0.35536395490E+02  0.18877039601E+02  0.41291955764E+02  0.00000000000E+00 0.  1.
</event>
<event>
 7    1  0.5265888E-015  0.9000774E+02  0.7816164E-02  0.1186339E+00
        -11   -1    0    0    0    0  0.00000000000E+00  0.00000000000E+00  0.45593999997E+02  0.45594000000E+02  0.51100000000E-03 0. -1.
         11   -1    0    0    0    0 -0.00000000000E+00 -0.00000000000E+00 -0.45593999997E+02  0.45594000000E+02  0.51100000000E-03 0.  1.
    9900012    2    1    2    0    0  0.81180416287E+00  0.13474387484E+00  0.84606536097E+00  0.90007742187E+02  0.90000003584E+02 0.  0.
        -12    1    1    2    0    0 -0.81180416287E+00 -0.13474387484E+00 -0.84606536097E+00  0.11802578132E+01  0.00000000000E+00 0.  1.
         11    1    3    3    0    0 -0.41544327591E+02 -0.26941637805E+01  0.61122577399E+01  0.42077896435E+02  0.51100000000E-03 0. -1.
        -11    1    3    3    0    0  0.42054717118E+01  0.64090598372E+01 -0.57923052430E+01  0.96079571504E+01  0.51100000000E-03 0.  1.
        -12    1    3    3    0    0  0.38150660042E+02 -0.35801521818E+01  0.52611286400E+00  0.38321888602E+02  0.00000000000E+00 0.  1.
</event>
<event>
 7    1  0.5158441E-015  0.9000779E+02  0.7816164E-02  0.1186339E+00
        -11   -1    0    0    0    0  0.00000000000E+00  0.00000000000E+00  0.45593999997E+02  0.45594000000E+02  0.51100000000E-03 0.  1.
         11   -1    0    0    0    0 -0.00000000000E+00 -0.00000000000E+00 -0.45593999997E+02  0.45594000000E+02  0.51100000000E-03 0. -1.
    9900012    2    1    2    0    0 -0.60758832923E+00  0.44555234457E+00 -0.90841149526E+00  0.90007791580E+02  0.90000053629E+02 0.  0.
        -12    1    1    2    0    0  0.60758832923E+00 -0.44555234457E+00  0.90841149526E+00  0.11802084199E+01  0.00000000000E+00 0.  1.
         11    1    3    3    0    0  0.30675068102E+02  0.18832442915E+02 -0.15219536827E+02  0.39080110167E+02  0.51100000000E-03 0. -1.
        -11    1    3    3    0    0  0.18123808028E+01 -0.35487062491E+01 -0.75803771854E+01  0.85638868950E+01  0.51100000000E-03 0.  1.
        -12    1    3    3    0    0 -0.33095037234E+02 -0.14838184321E+02  0.21891502517E+02  0.42363794518E+02  0.00000000000E+00 0.  1.
</event>
<event>
 7    1  0.5158441E-015  0.9000777E+02  0.7816164E-02  0.1186339E+00
        -11   -1    0    0    0    0  0.00000000000E+00  0.00000000000E+00  0.45593999997E+02  0.45594000000E+02  0.51100000000E-03 0.  1.
         11   -1    0    0    0    0 -0.00000000000E+00 -0.00000000000E+00 -0.45593999997E+02  0.45594000000E+02  0.51100000000E-03 0. -1.
    9900012    2    1    2    0    0 -0.21152497113E+00  0.33242927175E+00 -0.11125172284E+01  0.90007768405E+02  0.90000030148E+02 0.  0.
        -12    1    1    2    0    0  0.21152497113E+00 -0.33242927175E+00  0.11125172284E+01  0.11802315949E+01  0.00000000000E+00 0.  1.
         11    1    3    3    0    0  0.12475418120E+02 -0.16077081880E+02 -0.27852256215E+02  0.34494300914E+02  0.51100000000E-03 0. -1.
        -11    1    3    3    0    0  0.38147402452E+01  0.18996311810E+01 -0.11025667792E+02  0.11820583415E+02  0.51100000000E-03 0.  1.
        -12    1    3    3    0    0 -0.16501683337E+02  0.14509879971E+02  0.37765406778E+02  0.43692884075E+02  0.00000000000E+00 0.  1.
</event>
<event>
 7    1  0.5158441E-015  0.9000775E+02  0.7816164E-02  0.1186339E+00
        -11   -1    0    0    0    0  0.00000000000E+00  0.00000000000E+00  0.45593999997E+02  0.45594000000E+02  0.51100000000E-03 0. -1.
         11   -1    0    0    0    0 -0.00000000000E+00 -0.00000000000E+00 -0.45593999997E+02  0.45594000000E+02  0.51100000000E-03 0.  1.
    9900012    2    1    2    0    0 -0.93862151570E+00 -0.13951376348E+00 -0.70179727402E+00  0.90007748394E+02  0.90000009873E+02 0.  0.
        -12    1    1    2    0    0  0.93862151570E+00  0.13951376348E+00  0.70179727402E+00  0.11802516061E+01  0.00000000000E+00 0.  1.
         11    1    3    3    0    0  0.86455884173E+01 -0.29843944676E+01  0.14031226760E+00  0.91472671991E+01  0.51100000000E-03 0. -1.
        -11    1    3    3    0    0  0.12007817626E+02 -0.52775585340E+00 -0.36838402771E+02  0.38749633926E+02  0.51100000000E-03 0.  1.
         12    1    3    3    0    0 -0.21592027559E+02  0.33726365575E+01  0.35996293229E+02  0.42110847269E+02  0.00000000000E+00 0. -1.
</event>
<event>
 7    1  0.5158441E-015  0.9000643E+02  0.7816164E-02  0.1186342E+00
        -11   -1    0    0    0    0  0.00000000000E+00  0.00000000000E+00  0.45593999997E+02  0.45594000000E+02  0.51100000000E-03 0. -1.
         11   -1    0    0    0    0 -0.00000000000E+00 -0.00000000000E+00 -0.45593999997E+02  0.45594000000E+02  0.51100000000E-03 0.  1.
    9900012    2    1    2    0    0 -0.30566444318E+00 -0.24258870411E+00  0.11152673071E+01  0.90006432737E+02  0.89998676839E+02 0.  0.
        -12    1    1    2    0    0  0.30566444318E+00  0.24258870411E+00 -0.11152673071E+01  0.11815672632E+01  0.00000000000E+00 0.  1.
         11    1    3    3    0    0 -0.42175662513E+01  0.62973516314E+01  0.41741600748E+01  0.86526363176E+01  0.51100000000E-03 0. -1.
        -11    1    3    3    0    0 -0.20579035658E+02 -0.16067243792E+02  0.29577721143E+02  0.39452434906E+02  0.51100000000E-03 0.  1.
         12    1    3    3    0    0  0.24490937466E+02  0.95273034564E+01 -0.32636613911E+02  0.41901361514E+02  0.00000000000E+00 0. -1.
</event>
<event>
 7    1  0.5158441E-015  0.9000782E+02  0.7816164E-02  0.1186339E+00
        -11   -1    0    0    0    0  0.00000000000E+00  0.00000000000E+00  0.45593999997E+02  0.45594000000E+02  0.51100000000E-03 0. -1.
         11   -1    0    0    0    0 -0.00000000000E+00 -0.00000000000E+00 -0.45593999997E+02  0.45594000000E+02  0.51100000000E-03 0.  1.
    9900012    2    1    2    0    0 -0.92794408944E+00  0.72097109584E+00  0.10926157834E+00  0.90007823044E+02  0.90000085508E+02 0.  0.
        -12    1    1    2    0    0  0.92794408944E+00 -0.72097109584E+00 -0.10926157834E+00  0.11801769557E+01  0.00000000000E+00 0.  1.
         11    1    3    3    0    0  0.37462531840E+01 -0.13452335462E+01  0.40299188620E+02  0.40495291947E+02  0.51100000000E-03 0. -1.
        -11    1    3    3    0    0  0.27023802882E+01  0.83854589570E+01 -0.69141686805E+00  0.88372415769E+01  0.51100000000E-03 0.  1.
        -12    1    3    3    0    0 -0.73765775616E+01 -0.63192543150E+01 -0.39498510174E+02  0.40675289520E+02  0.00000000000E+00 0.  1.
</event>
<event>
 7    1  0.5158441E-015  0.9000778E+02  0.7816164E-02  0.1186339E+00
        -11   -1    0    0    0    0  0.00000000000E+00  0.00000000000E+00  0.45593999997E+02  0.45594000000E+02  0.51100000000E-03 0.  1.
         11   -1    0    0    0    0 -0.00000000000E+00 -0.00000000000E+00 -0.45593999997E+02  0.45594000000E+02  0.51100000000E-03 0. -1.
    9900012    2    1    2    0    0 -0.15060296109E+00  0.10916764992E+01 -0.42246395902E+00  0.90007781958E+02  0.90000043879E+02 0.  0.
        -12    1    1    2    0    0  0.15060296109E+00 -0.10916764992E+01  0.42246395902E+00  0.11802180424E+01  0.00000000000E+00 0.  1.
         11    1    3    3    0    0  0.31690562209E+02 -0.12319389016E+02  0.22260105572E+02  0.40639529760E+02  0.51100000000E-03 0. -1.
        -11    1    3    3    0    0 -0.38043001302E+01 -0.76725301236E+01 -0.26149882663E+01  0.89542493751E+01  0.51100000000E-03 0.  1.
        -12    1    3    3    0    0 -0.28036865040E+02  0.21083595638E+02 -0.20067581265E+02  0.40414002822E+02  0.00000000000E+00 0.  1.
</event>
<event>
 7    1  0.6251708E-015  0.9000750E+02  0.7816164E-02  0.1186340E+00
        -11   -1    0    0    0    0  0.00000000000E+00  0.00000000000E+00  0.45593999997E+02  0.45594000000E+02  0.51100000000E-03 0. -1.
         11   -1    0    0    0    0 -0.00000000000E+00 -0.00000000000E+00 -0.45593999997E+02  0.45594000000E+02  0.51100000000E-03 0.  1.
    9900012    2    1    2    0    0 -0.11551722971E-01  0.11774631984E+01  0.83776472643E-01  0.90007503696E+02  0.89999761945E+02 0.  0.
        -12    1    1    2    0    0  0.11551722971E-01 -0.11774631984E+01 -0.83776472643E-01  0.11804963038E+01  0.00000000000E+00 0.  1.
         11    1    3    3    0    0 -0.25062703837E+02  0.30336211231E+02 -0.20930210524E+01  0.39405654073E+02  0.51100000000E-03 0. -1.
        -11    1    3    3    0    0 -0.80147056127E+01 -0.46262384893E+01  0.17993886067E+01  0.94273744085E+01  0.51100000000E-03 0.  1.
        -12    1    3    3    0    0  0.33065857727E+02 -0.24532509543E+02  0.37740891828E+00  0.41174475215E+02  0.00000000000E+00 0.  1.
</event>
<event>
 7    1  0.5158441E-015  0.9000772E+02  0.7816164E-02  0.1186339E+00
        -11   -1    0    0    0    0  0.00000000000E+00  0.00000000000E+00  0.45593999997E+02  0.45594000000E+02  0.51100000000E-03 0. -1.
         11   -1    0    0    0    0 -0.00000000000E+00 -0.00000000000E+00 -0.45593999997E+02  0.45594000000E+02  0.51100000000E-03 0.  1.
    9900012    2    1    2    0    0  0.80764774907E+00  0.78218661869E+00  0.35908249921E+00  0.90007724170E+02  0.89999985329E+02 0.  0.
        -12    1    1    2    0    0 -0.80764774907E+00 -0.78218661869E+00 -0.35908249921E+00  0.11802758297E+01  0.00000000000E+00 0.  1.
         11    1    3    3    0    0 -0.26043117487E+02 -0.30104777814E+01  0.49727123126E+01  0.26683980455E+02  0.51100000000E-03 0. -1.
        -11    1    3    3    0    0 -0.11441620155E+02 -0.15776217138E+02  0.27933414890E+01  0.19687621896E+02  0.51100000000E-03 0.  1.
        -12    1    3    3    0    0  0.38292385391E+02  0.19568881538E+02 -0.74069713023E+01  0.43636121820E+02  0.00000000000E+00 0.  1.
</event>
<event>
 7    1  0.5158441E-015  0.9000785E+02  0.7816164E-02  0.1186339E+00
        -11   -1    0    0    0    0  0.00000000000E+00  0.00000000000E+00  0.45593999997E+02  0.45594000000E+02  0.51100000000E-03 0. -1.
         11   -1    0    0    0    0 -0.00000000000E+00 -0.00000000000E+00 -0.45593999997E+02  0.45594000000E+02  0.51100000000E-03 0.  1.
    9900012    2    1    2    0    0  0.19233355213E+00 -0.11194359388E+01  0.32034649384E+00  0.90007851326E+02  0.90000114164E+02 0.  0.
        -12    1    1    2    0    0 -0.19233355213E+00  0.11194359388E+01 -0.32034649384E+00  0.11801486739E+01  0.00000000000E+00 0.  1.
         11    1    3    3    0    0 -0.62308265367E+01 -0.13006529573E+01 -0.58270958920E+01  0.86295969919E+01  0.51100000000E-03 0. -1.
        -11    1    3    3    0    0 -0.69930487891E+01  0.11371779652E+02 -0.34576945578E+02  0.37064609395E+02  0.51100000000E-03 0.  1.
         12    1    3    3    0    0  0.13416208878E+02 -0.11190562634E+02  0.40724387964E+02  0.44313644939E+02  0.00000000000E+00 0. -1.
</event>
<event>
 7    1  0.5158441E-015  0.9000776E+02  0.7816164E-02  0.1186339E+00
        -11   -1    0    0    0    0  0.00000000000E+00  0.00000000000E+00  0.45593999997E+02  0.45594000000E+02  0.51100000000E-03 0. -1.
         11   -1    0    0    0    0 -0.00000000000E+00 -0.00000000000E+00 -0.45593999997E+02  0.45594000000E+02  0.51100000000E-03 0.  1.
    9900012    2    1    2    0    0  0.82598783749E+00  0.47733900866E-01  0.84168713321E+00  0.90007757795E+02  0.90000019398E+02 0.  0.
        -12    1    1    2    0    0 -0.82598783749E+00 -0.47733900866E-01 -0.84168713321E+00  0.11802422053E+01  0.00000000000E+00 0.  1.
         11    1    3    3    0    0 -0.54554940091E+01  0.35586995881E+01 -0.71500687046E+01  0.96721373223E+01  0.51100000000E-03 0. -1.
        -11    1    3    3    0    0 -0.25819662612E+02 -0.98127728672E+01 -0.22491717983E+02  0.35620539957E+02  0.51100000000E-03 0.  1.
         12    1    3    3    0    0  0.32101144459E+02  0.63018071800E+01  0.30483473821E+02  0.44715080515E+02  0.00000000000E+00 0. -1.
</event>
<event>
 7    1  0.5158441E-015  0.9000772E+02  0.7816164E-02  0.1186339E+00
        -11   -1    0    0    0    0  0.00000000000E+00  0.00000000000E+00  0.45593999997E+02  0.45594000000E+02  0.51100000000E-03 0.  1.
         11   -1    0    0    0    0 -0.00000000000E+00 -0.00000000000E+00 -0.45593999997E+02  0.45594000000E+02  0.51100000000E-03 0. -1.
    9900012    2    1    2    0    0  0.37672895399E+00  0.90410803412E+00 -0.65857740612E+00  0.90007720270E+02  0.89999981377E+02 0.  0.
        -12    1    1    2    0    0 -0.37672895399E+00 -0.90410803412E+00  0.65857740612E+00  0.11802797304E+01  0.00000000000E+00 0.  1.
         11    1    3    3    0    0  0.39900588928E+02  0.10566133977E+01 -0.76966610854E+01  0.40649871104E+02  0.51100000000E-03 0. -1.
        -11    1    3    3    0    0 -0.32728099592E+01  0.60886722312E+01 -0.71378776052E+01  0.99364234781E+01  0.51100000000E-03 0.  1.
        -12    1    3    3    0    0 -0.36251050014E+02 -0.62411775947E+01  0.14175961285E+02  0.39421425688E+02  0.00000000000E+00 0.  1.
</event>
<event>
 7    1  0.5158441E-015  0.9000764E+02  0.7816164E-02  0.1186339E+00
        -11   -1    0    0    0    0  0.00000000000E+00  0.00000000000E+00  0.45593999997E+02  0.45594000000E+02  0.51100000000E-03 0. -1.
         11   -1    0    0    0    0 -0.00000000000E+00 -0.00000000000E+00 -0.45593999997E+02  0.45594000000E+02  0.51100000000E-03 0.  1.
    9900012    2    1    2    0    0  0.41702924498E+00 -0.11022393827E+01 -0.66327110344E-01  0.90007642286E+02  0.89999902364E+02 0.  0.
        -12    1    1    2    0    0 -0.41702924498E+00  0.11022393827E+01  0.66327110344E-01  0.11803577143E+01  0.00000000000E+00 0.  1.
         11    1    3    3    0    0  0.43169219338E+01 -0.29182409790E+01 -0.68702332972E+01  0.86227635485E+01  0.51100000000E-03 0. -1.
        -11    1    3    3    0    0  0.16012740590E+02  0.11234296573E+02  0.38267450264E+02  0.42976912763E+02  0.51100000000E-03 0.  1.
         12    1    3    3    0    0 -0.19912633279E+02 -0.94182949767E+01 -0.31463544077E+02  0.38407965974E+02  0.00000000000E+00 0. -1.
</event>
<event>
 7    1  0.5158441E-015  0.9000770E+02  0.7816164E-02  0.1186339E+00
        -11   -1    0    0    0    0  0.00000000000E+00  0.00000000000E+00  0.45593999997E+02  0.45594000000E+02  0.51100000000E-03 0.  1.
         11   -1    0    0    0    0 -0.00000000000E+00 -0.00000000000E+00 -0.45593999997E+02  0.45594000000E+02  0.51100000000E-03 0. -1.
    9900012    2    1    2    0    0  0.60633506766E+00 -0.82119293379E+00 -0.59254558517E+00  0.90007699056E+02  0.89999959883E+02 0.  0.
        -12    1    1    2    0    0 -0.60633506766E+00  0.82119293379E+00  0.59254558517E+00  0.11803009444E+01  0.00000000000E+00 0.  1.
         11    1    3    3    0    0 -0.60546411108E+01  0.61274628166E+01 -0.71503711238E+01  0.11195190352E+02  0.51100000000E-03 0. -1.
        -11    1    3    3    0    0  0.34735959545E+02  0.15207126929E+02 -0.10272936469E+02  0.39285834838E+02  0.51100000000E-03 0.  1.
         12    1    3    3    0    0 -0.28074983367E+02 -0.22155782679E+02  0.16830762007E+02  0.39526673866E+02  0.00000000000E+00 0. -1.
</event>
<event>
 7    1  0.5158441E-015  0.9000777E+02  0.7816164E-02  0.1186339E+00
        -11   -1    0    0    0    0  0.00000000000E+00  0.00000000000E+00  0.45593999997E+02  0.45594000000E+02  0.51100000000E-03 0. -1.
         11   -1    0    0    0    0 -0.00000000000E+00 -0.00000000000E+00 -0.45593999997E+02  0.45594000000E+02  0.51100000000E-03 0.  1.
    9900012    2    1    2    0    0 -0.86184715826E+00  0.34429390032E+00  0.72913275678E+00  0.90007765536E+02  0.90000027241E+02 0.  0.
        -12    1    1    2    0    0  0.86184715826E+00 -0.34429390032E+00 -0.72913275678E+00  0.11802344644E+01  0.00000000000E+00 0.  1.
         11    1    3    3    0    0  0.15397882937E+01 -0.66853000437E+01  0.34921600457E+01  0.76980105683E+01  0.51100000000E-03 0. -1.
        -11    1    3    3    0    0  0.17745576429E+02  0.32895315015E+02  0.20004761593E+02  0.42393368813E+02  0.51100000000E-03 0.  1.
         12    1    3    3    0    0 -0.20147211880E+02 -0.25865721071E+02 -0.22767788881E+02  0.39916386154E+02  0.00000000000E+00 0. -1.
</event>
<event>
 7    1  0.5158441E-015  0.9000771E+02  0.7816164E-02  0.1186339E+00
        -11   -1    0    0    0    0  0.00000000000E+00  0.00000000000E+00  0.45593999997E+02  0.45594000000E+02  0.51100000000E-03 0.  1.
         11   -1    0    0    0    0 -0.00000000000E+00 -0.00000000000E+00 -0.45593999997E+02  0.45594000000E+02  0.51100000000E-03 0. -1.
    9900012    2    1    2    0    0  0.85879243335E+00 -0.65157417633E+00  0.48062734675E+00  0.90007713595E+02  0.89999974615E+02 0.  0.
        -12    1    1    2    0    0 -0.85879243335E+00  0.65157417633E+00 -0.48062734675E+00  0.11802864048E+01  0.00000000000E+00 0.  1.
         11    1    3    3    0    0  0.64401052804E+01  0.41160765540E+02 -0.12710103649E+02  0.43557207336E+02  0.51100000000E-03 0. -1.
        -11    1    3    3    0    0 -0.28754526080E+01 -0.80169284852E+01 -0.27995332433E+01  0.89653085100E+01  0.51100000000E-03 0.  1.
        -12    1    3    3    0    0 -0.27058602390E+01 -0.33795411231E+02  0.15990264239E+02  0.37485197750E+02  0.00000000000E+00 0.  1.
</event>
<event>
 7    1  0.5158441E-015  0.9000773E+02  0.7816164E-02  0.1186339E+00
        -11   -1    0    0    0    0  0.00000000000E+00  0.00000000000E+00  0.45593999997E+02  0.45594000000E+02  0.51100000000E-03 0.  1.
         11   -1    0    0    0    0 -0.00000000000E+00 -0.00000000000E+00 -0.45593999997E+02  0.45594000000E+02  0.51100000000E-03 0. -1.
    9900012    2    1    2    0    0  0.11567611430E+01 -0.22256861338E+00 -0.73576776841E-01  0.90007726018E+02  0.89999987202E+02 0.  0.
        -12    1    1    2    0    0 -0.11567611430E+01  0.22256861338E+00  0.73576776841E-01  0.11802739817E+01  0.00000000000E+00 0.  1.
         11    1    3    3    0    0 -0.24941589162E+02 -0.15614744266E+02 -0.29854058956E+02  0.41918587104E+02  0.51100000000E-03 0. -1.
        -11    1    3    3    0    0  0.85470730309E+01  0.51481600502E+01 -0.21816356560E+01  0.10213498113E+02  0.51100000000E-03 0.  1.
        -12    1    3    3    0    0  0.17551277274E+02  0.10244015602E+02  0.31962117835E+02  0.37875640802E+02  0.00000000000E+00 0.  1.
</event>
<event>
 7    1  0.5158441E-015  0.9000770E+02  0.7816164E-02  0.1186339E+00
        -11   -1    0    0    0    0  0.00000000000E+00  0.00000000000E+00  0.45593999997E+02  0.45594000000E+02  0.51100000000E-03 0. -1.
         11   -1    0    0    0    0 -0.00000000000E+00 -0.00000000000E+00 -0.45593999997E+02  0.45594000000E+02  0.51100000000E-03 0.  1.
    9900012    2    1    2    0    0 -0.21622464251E+00  0.49046574206E+00 -0.10515708034E+01  0.90007698812E+02  0.89999959636E+02 0.  0.
        -12    1    1    2    0    0  0.21622464251E+00 -0.49046574206E+00  0.10515708034E+01  0.11803011882E+01  0.00000000000E+00 0.  1.
         11    1    3    3    0    0 -0.39170830512E+01  0.14260510974E+01  0.66362348365E+01  0.78368855056E+01  0.51100000000E-03 0. -1.
        -11    1    3    3    0    0 -0.30638547117E+02  0.19388510681E+02  0.11303243369E+02  0.37978918189E+02  0.51100000000E-03 0.  1.
         12    1    3    3    0    0  0.34339405526E+02 -0.20324096037E+02 -0.18991049009E+02  0.44191895117E+02  0.00000000000E+00 0. -1.
</event>
<event>
 7    1  0.5158441E-015  0.9000783E+02  0.7816164E-02  0.1186339E+00
        -11   -1    0    0    0    0  0.00000000000E+00  0.00000000000E+00  0.45593999997E+02  0.45594000000E+02  0.51100000000E-03 0. -1.
         11   -1    0    0    0    0 -0.00000000000E+00 -0.00000000000E+00 -0.45593999997E+02  0.45594000000E+02  0.51100000000E-03 0.  1.
    9900012    2    1    2    0    0 -0.53006118160E+00  0.99124950811E+00  0.35952989902E+00  0.90007829592E+02  0.90000092143E+02 0.  0.
        -12    1    1    2    0    0  0.53006118160E+00 -0.99124950811E+00 -0.35952989902E+00  0.11801704080E+01  0.00000000000E+00 0.  1.
         11    1    3    3    0    0  0.24321110600E+02 -0.18460223939E+02  0.22430238098E+02  0.37886829771E+02  0.51100000000E-03 0. -1.
        -11    1    3    3    0    0  0.39769346387E+01 -0.70265656544E+01 -0.36595093435E+01  0.88645723480E+01  0.51100000000E-03 0.  1.
        -12    1    3    3    0    0 -0.28828106420E+02  0.26478039101E+02 -0.18411198856E+02  0.43256427473E+02  0.00000000000E+00 0.  1.
</event>
<event>
 7    1  0.7317486E-015  0.9000743E+02  0.7816164E-02  0.1186340E+00
        -11   -1    0    0    0    0  0.00000000000E+00  0.00000000000E+00  0.45593999997E+02  0.45594000000E+02  0.51100000000E-03 0. -1.
         11   -1    0    0    0    0 -0.00000000000E+00 -0.00000000000E+00 -0.45593999997E+02  0.45594000000E+02  0.51100000000E-03 0.  1.
    9900012    2    1    2    0    0 -0.36823350320E+00 -0.37681102861E+00  0.10564895711E+01  0.90007426970E+02  0.89999684206E+02 0.  0.
        -12    1    1    2    0    0  0.36823350320E+00  0.37681102861E+00 -0.10564895711E+01  0.11805730295E+01  0.00000000000E+00 0.  1.
         11    1    3    3    0    0 -0.34564924599E+02  0.17385259841E+02  0.32695622305E+01  0.38828743344E+02  0.51100000000E-03 0. -1.
        -11    1    3    3    0    0 -0.54705024432E+01 -0.51290194711E+01 -0.56757467122E+01  0.94046445291E+01  0.51100000000E-03 0.  1.
        -12    1    3    3    0    0  0.39667193539E+02 -0.12633051398E+02  0.34626740529E+01  0.41774039097E+02  0.00000000000E+00 0.  1.
</event>
<event>
 7    1  0.5158441E-015  0.9000773E+02  0.7816164E-02  0.1186339E+00
        -11   -1    0    0    0    0  0.00000000000E+00  0.00000000000E+00  0.45593999997E+02  0.45594000000E+02  0.51100000000E-03 0.  1.
         11   -1    0    0    0    0 -0.00000000000E+00 -0.00000000000E+00 -0.45593999997E+02  0.45594000000E+02  0.51100000000E-03 0. -1.
    9900012    2    1    2    0    0  0.18795350422E+00  0.96553178064E+00 -0.65228024022E+00  0.90007725604E+02  0.89999986781E+02 0.  0.
        -12    1    1    2    0    0 -0.18795350422E+00 -0.96553178064E+00  0.65228024022E+00  0.11802743965E+01  0.00000000000E+00 0.  1.
         11    1    3    3    0    0 -0.74910322402E+01 -0.77637678271E+01 -0.72482626836E+00  0.10812817777E+02  0.51100000000E-03 0. -1.
        -11    1    3    3    0    0 -0.29012202158E+02  0.12833900368E+02  0.19738889054E+02  0.37363626886E+02  0.51100000000E-03 0.  1.
         12    1    3    3    0    0  0.36691187903E+02 -0.41046007605E+01 -0.19666343026E+02  0.41831280941E+02  0.00000000000E+00 0. -1.
</event>
<event>
 7    1  0.5158441E-015  0.9000863E+02  0.7816164E-02  0.1186337E+00
        -11   -1    0    0    0    0  0.00000000000E+00  0.00000000000E+00  0.45593999997E+02  0.45594000000E+02  0.51100000000E-03 0.  1.
         11   -1    0    0    0    0 -0.00000000000E+00 -0.00000000000E+00 -0.45593999997E+02  0.45594000000E+02  0.51100000000E-03 0. -1.
    9900012    2    1    2    0    0 -0.23834123922E+00  0.35534052427E+00 -0.10990202442E+01  0.90008627738E+02  0.90000900820E+02 0.  0.
        -12    1    1    2    0    0  0.23834123922E+00 -0.35534052427E+00  0.10990202442E+01  0.11793722617E+01  0.00000000000E+00 0.  1.
         11    1    3    3    0    0 -0.58685827971E+01 -0.70901880832E+01 -0.30462583125E+01  0.96948811787E+01  0.51100000000E-03 0. -1.
        -11    1    3    3    0    0 -0.70350117369E+00 -0.18268511339E+02  0.34080176486E+02  0.38674175492E+02  0.51100000000E-03 0.  1.
         12    1    3    3    0    0  0.63337427316E+01  0.25714039946E+02 -0.32132938417E+02  0.41639571067E+02  0.00000000000E+00 0. -1.
</event>
<event>
 7    1  0.5158441E-015  0.9000778E+02  0.7816164E-02  0.1186339E+00
        -11   -1    0    0    0    0  0.00000000000E+00  0.00000000000E+00  0.45593999997E+02  0.45594000000E+02  0.51100000000E-03 0.  1.
         11   -1    0    0    0    0 -0.00000000000E+00 -0.00000000000E+00 -0.45593999997E+02  0.45594000000E+02  0.51100000000E-03 0. -1.
    9900012    2    1    2    0    0  0.71683246429E+00 -0.93683802162E+00  0.37451049630E-01  0.90007781020E+02  0.90000042929E+02 0.  0.
        -12    1    1    2    0    0 -0.71683246429E+00  0.93683802162E+00 -0.37451049630E-01  0.11802189804E+01  0.00000000000E+00 0.  1.
         11    1    3    3    0    0  0.42505579242E+01 -0.72986683540E+01 -0.35650062174E+01  0.91677190184E+01  0.51100000000E-03 0. -1.
        -11    1    3    3    0    0  0.30003122887E+02 -0.21214622422E+02  0.65357186307E+01  0.37322422292E+02  0.51100000000E-03 0.  1.
         12    1    3    3    0    0 -0.33536848347E+02  0.27576452755E+02 -0.29332613637E+01  0.43517639709E+02  0.00000000000E+00 0. -1.
</event>
<event>
 7    1  0.5552361E-015  0.9000777E+02  0.7816164E-02  0.1186339E+00
        -11   -1    0    0    0    0  0.00000000000E+00  0.00000000000E+00  0.45593999997E+02  0.45594000000E+02  0.51100000000E-03 0. -1.
         11   -1    0    0    0    0 -0.00000000000E+00 -0.00000000000E+00 -0.45593999997E+02  0.45594000000E+02  0.51100000000E-03 0.  1.
    9900012    2    1    2    0    0  0.31125947505E+00 -0.40010527792E+00  0.10658231841E+01  0.90007768771E+02  0.90000030519E+02 0.  0.
        -12    1    1    2    0    0 -0.31125947505E+00  0.40010527792E+00 -0.10658231841E+01  0.11802312290E+01  0.00000000000E+00 0.  1.
         11    1    3    3    0    0  0.21752478182E+01 -0.39004240617E+02 -0.27753306528E+01  0.39163311270E+02  0.51100000000E-03 0. -1.
        -11    1    3    3    0    0  0.89714499099E-01  0.38931303144E+00 -0.10108434886E+02  0.10116326875E+02  0.51100000000E-03 0.  1.
        -12    1    3    3    0    0 -0.19537028423E+01  0.38214822307E+02  0.13949588723E+02  0.40728130626E+02  0.00000000000E+00 0.  1.
</event>
<event>
 7    1  0.5158441E-015  0.9000767E+02  0.7816164E-02  0.1186339E+00
        -11   -1    0    0    0    0  0.00000000000E+00  0.00000000000E+00  0.45593999997E+02  0.45594000000E+02  0.51100000000E-03 0. -1.
         11   -1    0    0    0    0 -0.00000000000E+00 -0.00000000000E+00 -0.45593999997E+02  0.45594000000E+02  0.51100000000E-03 0.  1.
    9900012    2    1    2    0    0 -0.10910320361E+01 -0.24513860579E+00 -0.37780187863E+00  0.90007670343E+02  0.89999930791E+02 0.  0.
        -12    1    1    2    0    0  0.10910320361E+01  0.24513860579E+00  0.37780187863E+00  0.11803296571E+01  0.00000000000E+00 0.  1.
         11    1    3    3    0    0  0.11023344554E+02  0.26896039322E+02  0.32460800461E+02  0.43573095175E+02  0.51100000000E-03 0. -1.
        -11    1    3    3    0    0 -0.54399260755E+01 -0.15016464212E+01 -0.98747956961E+01  0.11373624224E+02  0.51100000000E-03 0.  1.
        -12    1    3    3    0    0 -0.66744505149E+01 -0.25639531506E+02 -0.22963806643E+02  0.35060950944E+02  0.00000000000E+00 0.  1.
</event>
<event>
 7    1  0.5158441E-015  0.9000777E+02  0.7816164E-02  0.1186339E+00
        -11   -1    0    0    0    0  0.00000000000E+00  0.00000000000E+00  0.45593999997E+02  0.45594000000E+02  0.51100000000E-03 0. -1.
         11   -1    0    0    0    0 -0.00000000000E+00 -0.00000000000E+00 -0.45593999997E+02  0.45594000000E+02  0.51100000000E-03 0.  1.
    9900012    2    1    2    0    0  0.94367031042E+00  0.33619506413E+00  0.62401741318E+00  0.90007771841E+02  0.90000033629E+02 0.  0.
        -12    1    1    2    0    0 -0.94367031042E+00 -0.33619506413E+00 -0.62401741318E+00  0.11802281592E+01  0.00000000000E+00 0.  1.
         11    1    3    3    0    0  0.27066493499E+02 -0.98086884439E+01  0.14073039591E+02  0.32044592101E+02  0.51100000000E-03 0. -1.
        -11    1    3    3    0    0  0.13486897305E+02 -0.76281523169E+00 -0.98567890552E+01  0.16722277857E+02  0.51100000000E-03 0.  1.
         12    1    3    3    0    0 -0.39609720493E+02  0.10907698740E+02 -0.35922331222E+01  0.41240901883E+02  0.00000000000E+00 0. -1.
</event>
<event>
 7    1  0.5158441E-015  0.9000755E+02  0.7816164E-02  0.1186339E+00
        -11   -1    0    0    0    0  0.00000000000E+00  0.00000000000E+00  0.45593999997E+02  0.45594000000E+02  0.51100000000E-03 0. -1.
         11   -1    0    0    0    0 -0.00000000000E+00 -0.00000000000E+00 -0.45593999997E+02  0.45594000000E+02  0.51100000000E-03 0.  1.
    9900012    2    1    2    0    0  0.29587373916E+00 -0.11295092774E+01  0.17356526997E+00  0.90007552043E+02  0.89999810929E+02 0.  0.
        -12    1    1    2    0    0 -0.29587373916E+00  0.11295092774E+01 -0.17356526997E+00  0.11804479575E+01  0.00000000000E+00 0.  1.
         11    1    3    3    0    0  0.94785742852E+00  0.19595294606E+02 -0.19749190657E+02  0.27837107182E+02  0.51100000000E-03 0. -1.
        -11    1    3    3    0    0 -0.22679375036E+01 -0.16783054272E+02 -0.17589355137E+02  0.24417204295E+02  0.51100000000E-03 0.  1.
         12    1    3    3    0    0  0.16159538143E+01 -0.39417496120E+01  0.37512111063E+02  0.37753240565E+02  0.00000000000E+00 0. -1.
</event>
<event>
 7    1  0.5158441E-015  0.9000768E+02  0.7816164E-02  0.1186339E+00
        -11   -1    0    0    0    0  0.00000000000E+00  0.00000000000E+00  0.45593999997E+02  0.45594000000E+02  0.51100000000E-03 0.  1.
         11   -1    0    0    0    0 -0.00000000000E+00 -0.00000000000E+00 -0.45593999997E+02  0.45594000000E+02  0.51100000000E-03 0. -1.
    9900012    2    1    2    0    0 -0.89047864435E+00  0.66118344554E-01  0.77190406192E+00  0.90007678123E+02  0.89999938675E+02 0.  0.
        -12    1    1    2    0    0  0.89047864435E+00 -0.66118344554E-01 -0.77190406192E+00  0.11803218766E+01  0.00000000000E+00 0.  1.
         11    1    3    3    0    0 -0.11524630926E+02  0.16021071763E-01 -0.25326754899E+01  0.11799653387E+02  0.51100000000E-03 0. -1.
        -11    1    3    3    0    0  0.76962888251E+01 -0.38493722161E+02 -0.13134391974E+01  0.39277533404E+02  0.51100000000E-03 0.  1.
         12    1    3    3    0    0  0.29378634564E+01  0.38543819434E+02  0.46180187492E+01  0.38930491333E+02  0.00000000000E+00 0. -1.
</event>
<event>
 7    1  0.5158441E-015  0.9000736E+02  0.7816164E-02  0.1186340E+00
        -11   -1    0    0    0    0  0.00000000000E+00  0.00000000000E+00  0.45593999997E+02  0.45594000000E+02  0.51100000000E-03 0.  1.
         11   -1    0    0    0    0 -0.00000000000E+00 -0.00000000000E+00 -0.45593999997E+02  0.45594000000E+02  0.51100000000E-03 0. -1.
    9900012    2    1    2    0    0  0.78469767653E+00  0.41129089634E+00 -0.78038255627E+00  0.90007361368E+02  0.89999617737E+02 0.  0.
        -12    1    1    2    0    0 -0.78469767653E+00 -0.41129089634E+00  0.78038255627E+00  0.11806386319E+01  0.00000000000E+00 0.  1.
         11    1    3    3    0    0  0.97317806256E+01 -0.20822650941E+01  0.56236313348E+01  0.11431037211E+02  0.51100000000E-03 0. -1.
        -11    1    3    3    0    0  0.59489250767E+01 -0.32101466381E+02 -0.20282234477E+02  0.38435177754E+02  0.51100000000E-03 0.  1.
         12    1    3    3    0    0 -0.14896008026E+02  0.34595022371E+02  0.13878220586E+02  0.40141146403E+02  0.00000000000E+00 0. -1.
</event>
<event>
 7    1  0.5158441E-015  0.9000758E+02  0.7816164E-02  0.1186339E+00
        -11   -1    0    0    0    0  0.00000000000E+00  0.00000000000E+00  0.45593999997E+02  0.45594000000E+02  0.51100000000E-03 0. -1.
         11   -1    0    0    0    0 -0.00000000000E+00 -0.00000000000E+00 -0.45593999997E+02  0.45594000000E+02  0.51100000000E-03 0.  1.
    9900012    2    1    2    0    0  0.62149689588E+00 -0.75656525521E+00  0.65934793447E+00  0.90007580975E+02  0.89999840243E+02 0.  0.
        -12    1    1    2    0    0 -0.62149689588E+00  0.75656525521E+00 -0.65934793447E+00  0.11804190255E+01  0.00000000000E+00 0.  1.
         11    1    3    3    0    0  0.83112147539E+01  0.52871908169E+00 -0.38244596858E+00  0.83367919330E+01  0.51100000000E-03 0. -1.
        -11    1    3    3    0    0 -0.11298493949E+02 -0.38735647885E+02  0.12667872912E+02  0.42291623130E+02  0.51100000000E-03 0.  1.
         12    1    3    3    0    0  0.36087760908E+01  0.37450363548E+02 -0.11626079009E+02  0.39379165912E+02  0.00000000000E+00 0. -1.
</event>
<event>
 7    1  0.5158441E-015  0.9000769E+02  0.7816164E-02  0.1186339E+00
        -11   -1    0    0    0    0  0.00000000000E+00  0.00000000000E+00  0.45593999997E+02  0.45594000000E+02  0.51100000000E-03 0.  1.
         11   -1    0    0    0    0 -0.00000000000E+00 -0.00000000000E+00 -0.45593999997E+02  0.45594000000E+02  0.51100000000E-03 0. -1.
    9900012    2    1    2    0    0 -0.48542041090E+00  0.29646960539E+00 -0.10342111475E+01  0.90007694997E+02  0.89999955771E+02 0.  0.
        -12    1    1    2    0    0  0.48542041090E+00 -0.29646960539E+00  0.10342111475E+01  0.11803050029E+01  0.00000000000E+00 0.  1.
         11    1    3    3    0    0  0.16612109781E-02  0.36421667027E+02 -0.10192674455E+02  0.37821005336E+02  0.51100000000E-03 0. -1.
        -11    1    3    3    0    0  0.42192684681E+01  0.26181741146E+01 -0.81095390976E+01  0.95090318507E+01  0.51100000000E-03 0.  1.
        -12    1    3    3    0    0 -0.47063500899E+01 -0.38743371536E+02  0.17268002405E+02  0.42677657811E+02  0.00000000000E+00 0.  1.
</event>
<event>
 7    1  0.6394130E-015  0.9000770E+02  0.7816164E-02  0.1186339E+00
        -11   -1    0    0    0    0  0.00000000000E+00  0.00000000000E+00  0.45593999997E+02  0.45594000000E+02  0.51100000000E-03 0.  1.
         11   -1    0    0    0    0 -0.00000000000E+00 -0.00000000000E+00 -0.45593999997E+02  0.45594000000E+02  0.51100000000E-03 0. -1.
    9900012    2    1    2    0    0 -0.88516761041E+00 -0.77771215405E+00  0.68910144333E-01  0.90007700673E+02  0.89999961522E+02 0.  0.
        -12    1    1    2    0    0  0.88516761041E+00  0.77771215405E+00 -0.68910144333E-01  0.11802993269E+01  0.00000000000E+00 0.  1.
         11    1    3    3    0    0  0.24426726615E+02 -0.58055494894E+01 -0.26709687424E+02  0.36657561029E+02  0.51100000000E-03 0. -1.
        -11    1    3    3    0    0  0.75433041088E+01  0.59574638927E+01 -0.18185826256E+01  0.97826405402E+01  0.51100000000E-03 0.  1.
        -12    1    3    3    0    0 -0.32855198335E+02 -0.92962655734E+00  0.28597180194E+02  0.43567499104E+02  0.00000000000E+00 0.  1.
</event>
<event>
 7    1  0.5158441E-015  0.9000772E+02  0.7816164E-02  0.1186339E+00
        -11   -1    0    0    0    0  0.00000000000E+00  0.00000000000E+00  0.45593999997E+02  0.45594000000E+02  0.51100000000E-03 0.  1.
         11   -1    0    0    0    0 -0.00000000000E+00 -0.00000000000E+00 -0.45593999997E+02  0.45594000000E+02  0.51100000000E-03 0. -1.
    9900012    2    1    2    0    0 -0.34692682140E+00  0.10960390598E+01  0.26722848652E+00  0.90007715753E+02  0.89999976801E+02 0.  0.
        -12    1    1    2    0    0  0.34692682140E+00 -0.10960390598E+01 -0.26722848652E+00  0.11802842471E+01  0.00000000000E+00 0.  1.
         11    1    3    3    0    0 -0.38189199828E+01 -0.82263088111E+01 -0.91823474765E+00  0.91158906204E+01  0.51100000000E-03 0. -1.
        -11    1    3    3    0    0 -0.15047007238E+02 -0.30361444113E+02  0.11711554018E+02  0.35852339021E+02  0.51100000000E-03 0.  1.
         12    1    3    3    0    0  0.18519000399E+02  0.39683791984E+02 -0.10526090784E+02  0.45039486112E+02  0.00000000000E+00 0. -1.
</event>
<event>
 7    1  0.5158441E-015  0.9000781E+02  0.7816164E-02  0.1186339E+00
        -11   -1    0    0    0    0  0.00000000000E+00  0.00000000000E+00  0.45593999997E+02  0.45594000000E+02  0.51100000000E-03 0. -1.
         11   -1    0    0    0    0 -0.00000000000E+00 -0.00000000000E+00 -0.45593999997E+02  0.45594000000E+02  0.51100000000E-03 0.  1.
    9900012    2    1    2    0    0  0.96904388706E+00  0.38177346023E+00  0.55502290879E+00  0.90007810414E+02  0.90000072711E+02 0.  0.
        -12    1    1    2    0    0 -0.96904388706E+00 -0.38177346023E+00 -0.55502290879E+00  0.11801895862E+01  0.00000000000E+00 0.  1.
         11    1    3    3    0    0 -0.37555384516E+01 -0.36303312058E+01  0.81850567118E+01  0.97097130422E+01  0.51100000000E-03 0. -1.
        -11    1    3    3    0    0 -0.16718358781E+02  0.98482170424E+01 -0.37999129884E+02  0.42666436123E+02  0.51100000000E-03 0.  1.
         12    1    3    3    0    0  0.21442941120E+02 -0.58361123764E+01  0.30369096081E+02  0.37631661248E+02  0.00000000000E+00 0. -1.
</event>
<event>
 7    1  0.5158441E-015  0.9000783E+02  0.7816164E-02  0.1186339E+00
        -11   -1    0    0    0    0  0.00000000000E+00  0.00000000000E+00  0.45593999997E+02  0.45594000000E+02  0.51100000000E-03 0.  1.
         11   -1    0    0    0    0 -0.00000000000E+00 -0.00000000000E+00 -0.45593999997E+02  0.45594000000E+02  0.51100000000E-03 0. -1.
    9900012    2    1    2    0    0  0.15370093046E+00 -0.74174067088E+00  0.90498734566E+00  0.90007828277E+02  0.90000090811E+02 0.  0.
        -12    1    1    2    0    0 -0.15370093046E+00  0.74174067088E+00 -0.90498734566E+00  0.11801717225E+01  0.00000000000E+00 0.  1.
         11    1    3    3    0    0  0.30196683240E+02  0.89050780423E+01 -0.21484548902E+02  0.38114642008E+02  0.51100000000E-03 0. -1.
        -11    1    3    3    0    0  0.97674648776E+00  0.72561545595E+01 -0.34811440238E+01  0.81070448789E+01  0.51100000000E-03 0.  1.
        -12    1    3    3    0    0 -0.31019728797E+02 -0.16902973273E+02  0.25870680271E+02  0.43786141390E+02  0.00000000000E+00 0.  1.
</event>
<event>
 7    1  0.5158441E-015  0.9000768E+02  0.7816164E-02  0.1186339E+00
        -11   -1    0    0    0    0  0.00000000000E+00  0.00000000000E+00  0.45593999997E+02  0.45594000000E+02  0.51100000000E-03 0. -1.
         11   -1    0    0    0    0 -0.00000000000E+00 -0.00000000000E+00 -0.45593999997E+02  0.45594000000E+02  0.51100000000E-03 0.  1.
    9900012    2    1    2    0    0 -0.95116627088E+00 -0.61718065948E+00  0.32791509691E+00  0.90007679047E+02  0.89999939610E+02 0.  0.
        -12    1    1    2    0    0  0.95116627088E+00  0.61718065948E+00 -0.32791509691E+00  0.11803209530E+01  0.00000000000E+00 0.  1.
         11    1    3    3    0    0 -0.18732394673E+02  0.26391049830E+02  0.19228585303E+02  0.37644768751E+02  0.51100000000E-03 0. -1.
        -11    1    3    3    0    0 -0.75571656397E+01 -0.10355410329E+02  0.49943362376E+01  0.13758221916E+02  0.51100000000E-03 0.  1.
        -12    1    3    3    0    0  0.25338394042E+02 -0.16652820160E+02 -0.23895006444E+02  0.38604688380E+02  0.00000000000E+00 0.  1.
</event>
<event>
 7    1  0.5158441E-015  0.9000771E+02  0.7816164E-02  0.1186339E+00
        -11   -1    0    0    0    0  0.00000000000E+00  0.00000000000E+00  0.45593999997E+02  0.45594000000E+02  0.51100000000E-03 0.  1.
         11   -1    0    0    0    0 -0.00000000000E+00 -0.00000000000E+00 -0.45593999997E+02  0.45594000000E+02  0.51100000000E-03 0. -1.
    9900012    2    1    2    0    0  0.85630791678E+00  0.37486395357E+00 -0.72062211452E+00  0.90007710856E+02  0.89999971839E+02 0.  0.
        -12    1    1    2    0    0 -0.85630791678E+00 -0.37486395357E+00  0.72062211452E+00  0.11802891442E+01  0.00000000000E+00 0.  1.
         11    1    3    3    0    0 -0.74248972076E+01 -0.35109310932E+02 -0.79380232011E+01  0.36753299515E+02  0.51100000000E-03 0. -1.
        -11    1    3    3    0    0  0.31023723847E+01 -0.82027833816E+01  0.11258444214E+01  0.88418264822E+01  0.51100000000E-03 0.  1.
        -12    1    3    3    0    0  0.51788327398E+01  0.43686958267E+02  0.60915566652E+01  0.44412584858E+02  0.00000000000E+00 0.  1.
</event>
<event>
 7    1  0.5158441E-015  0.9000771E+02  0.7816164E-02  0.1186339E+00
        -11   -1    0    0    0    0  0.00000000000E+00  0.00000000000E+00  0.45593999997E+02  0.45594000000E+02  0.51100000000E-03 0.  1.
         11   -1    0    0    0    0 -0.00000000000E+00 -0.00000000000E+00 -0.45593999997E+02  0.45594000000E+02  0.51100000000E-03 0. -1.
    9900012    2    1    2    0    0 -0.41955286993E-01  0.70311078916E+00 -0.94708341513E+00  0.90007706806E+02  0.89999967736E+02 0.  0.
        -12    1    1    2    0    0  0.41955286993E-01 -0.70311078916E+00  0.94708341513E+00  0.11802931937E+01  0.00000000000E+00 0.  1.
         11    1    3    3    0    0 -0.44789744299E+01  0.11339329854E+02 -0.14766449992E+01  0.12280964709E+02  0.51100000000E-03 0. -1.
        -11    1    3    3    0    0 -0.75049281643E+01  0.22707129788E+02  0.25062884764E+02  0.34642255742E+02  0.51100000000E-03 0.  1.
         12    1    3    3    0    0  0.11941947307E+02 -0.33343348852E+02 -0.24533323180E+02  0.43084486355E+02  0.00000000000E+00 0. -1.
</event>
<event>
 7    1  0.5158441E-015  0.9000767E+02  0.7816164E-02  0.1186339E+00
        -11   -1    0    0    0    0  0.00000000000E+00  0.00000000000E+00  0.45593999997E+02  0.45594000000E+02  0.51100000000E-03 0.  1.
         11   -1    0    0    0    0 -0.00000000000E+00 -0.00000000000E+00 -0.45593999997E+02  0.45594000000E+02  0.51100000000E-03 0. -1.
    9900012    2    1    2    0    0 -0.57030015966E+00 -0.33247815745E-01 -0.10328710356E+01  0.90007673661E+02  0.89999934154E+02 0.  0.
        -12    1    1    2    0    0  0.57030015966E+00  0.33247815745E-01  0.10328710356E+01  0.11803263386E+01  0.00000000000E+00 0.  1.
         11    1    3    3    0    0 -0.60904006966E+01  0.42863646292E+01 -0.61805614733E+01  0.96780805311E+01  0.51100000000E-03 0. -1.
        -11    1    3    3    0    0  0.37735893488E+02  0.19347056527E+01 -0.16272393283E+02  0.41140388023E+02  0.51100000000E-03 0.  1.
         12    1    3    3    0    0 -0.32215792951E+02 -0.62543180976E+01  0.21420083721E+02  0.39189205107E+02  0.00000000000E+00 0. -1.
</event>
<event>
 7    1  0.5158441E-015  0.9000825E+02  0.7816164E-02  0.1186338E+00
        -11   -1    0    0    0    0  0.00000000000E+00  0.00000000000E+00  0.45593999997E+02  0.45594000000E+02  0.51100000000E-03 0.  1.
         11   -1    0    0    0    0 -0.00000000000E+00 -0.00000000000E+00 -0.45593999997E+02  0.45594000000E+02  0.51100000000E-03 0. -1.
    9900012    2    1    2    0    0 -0.10916643589E+01 -0.42634198300E+00 -0.13534737211E+00  0.90008246860E+02  0.90000514918E+02 0.  0.
        -12    1    1    2    0    0  0.10916643589E+01  0.42634198300E+00  0.13534737211E+00  0.11797531395E+01  0.00000000000E+00 0.  1.
         11    1    3    3    0    0  0.24463518888E+02 -0.22586893643E+02 -0.49460070693E+01  0.33661469175E+02  0.51100000000E-03 0. -1.
        -11    1    3    3    0    0  0.94884125805E+01  0.11003876015E+01 -0.90676037956E+01  0.13170507394E+02  0.51100000000E-03 0.  1.
        -12    1    3    3    0    0 -0.35043595827E+02  0.21060164058E+02  0.13878263493E+02  0.43176270291E+02  0.00000000000E+00 0.  1.
</event>
<event>
 7    1  0.5158441E-015  0.9000773E+02  0.7816164E-02  0.1186339E+00
        -11   -1    0    0    0    0  0.00000000000E+00  0.00000000000E+00  0.45593999997E+02  0.45594000000E+02  0.51100000000E-03 0.  1.
         11   -1    0    0    0    0 -0.00000000000E+00 -0.00000000000E+00 -0.45593999997E+02  0.45594000000E+02  0.51100000000E-03 0. -1.
    9900012    2    1    2    0    0  0.10454581626E+01  0.75951435989E-01 -0.54248670550E+00  0.90007727482E+02  0.89999988685E+02 0.  0.
        -12    1    1    2    0    0 -0.10454581626E+01 -0.75951435989E-01  0.54248670550E+00  0.11802725177E+01  0.00000000000E+00 0.  1.
         11    1    3    3    0    0  0.77360854672E+01  0.49562532239E+01 -0.11858681827E+01  0.92637869138E+01  0.51100000000E-03 0. -1.
        -11    1    3    3    0    0  0.21045754106E+02 -0.30047033162E+02  0.16310235752E+02  0.40146877317E+02  0.51100000000E-03 0.  1.
         12    1    3    3    0    0 -0.27736381411E+02  0.25166731374E+02 -0.15666854275E+02  0.40597063252E+02  0.00000000000E+00 0. -1.
</event>
<event>
 7    1  0.5158441E-015  0.9000774E+02  0.7816164E-02  0.1186339E+00
        -11   -1    0    0    0    0  0.00000000000E+00  0.00000000000E+00  0.45593999997E+02  0.45594000000E+02  0.51100000000E-03 0.  1.
         11   -1    0    0    0    0 -0.00000000000E+00 -0.00000000000E+00 -0.45593999997E+02  0.45594000000E+02  0.51100000000E-03 0. -1.
    9900012    2    1    2    0    0  0.84203741687E+00 -0.81424202758E+00  0.14491285995E+00  0.90007738661E+02  0.90000000012E+02 0.  0.
        -12    1    1    2    0    0 -0.84203741687E+00  0.81424202758E+00 -0.14491285995E+00  0.11802613388E+01  0.00000000000E+00 0.  1.
         11    1    3    3    0    0 -0.27728939841E+01  0.35995489283E+02 -0.36969066522E+01  0.36290925985E+02  0.51100000000E-03 0. -1.
        -11    1    3    3    0    0 -0.26619037173E+01  0.18391999330E+01 -0.11286100848E+02  0.11740718053E+02  0.51100000000E-03 0.  1.
        -12    1    3    3    0    0  0.62768351183E+01 -0.38648931244E+02  0.15127920360E+02  0.41976094623E+02  0.00000000000E+00 0.  1.
</event>
<event>
 7    1  0.5158441E-015  0.9000766E+02  0.7816164E-02  0.1186339E+00
        -11   -1    0    0    0    0  0.00000000000E+00  0.00000000000E+00  0.45593999997E+02  0.45594000000E+02  0.51100000000E-03 0.  1.
         11   -1    0    0    0    0 -0.00000000000E+00 -0.00000000000E+00 -0.45593999997E+02  0.45594000000E+02  0.51100000000E-03 0. -1.
    9900012    2    1    2    0    0  0.10201731455E+01  0.49202719427E+00 -0.33218656141E+00  0.90007664489E+02  0.89999924860E+02 0.  0.
        -12    1    1    2    0    0 -0.10201731455E+01 -0.49202719427E+00  0.33218656141E+00  0.11803355109E+01  0.00000000000E+00 0.  1.
         11    1    3    3    0    0 -0.69500340491E+01  0.15524765123E+02 -0.32364689926E+02  0.36562199875E+02  0.51100000000E-03 0. -1.
        -11    1    3    3    0    0 -0.14883100250E+02 -0.15271353455E+01  0.55742122134E+01  0.15965921755E+02  0.51100000000E-03 0.  1.
        -12    1    3    3    0    0  0.22853307445E+02 -0.13505602583E+02  0.26458291151E+02  0.37479542859E+02  0.00000000000E+00 0.  1.
</event>
<event>
 7    1  0.5158441E-015  0.9000847E+02  0.7816164E-02  0.1186338E+00
        -11   -1    0    0    0    0  0.00000000000E+00  0.00000000000E+00  0.45593999997E+02  0.45594000000E+02  0.51100000000E-03 0.  1.
         11   -1    0    0    0    0 -0.00000000000E+00 -0.00000000000E+00 -0.45593999997E+02  0.45594000000E+02  0.51100000000E-03 0. -1.
    9900012    2    1    2    0    0 -0.19440200020E+00  0.94996639656E+00 -0.67161160597E+00  0.90008470246E+02  0.90000741250E+02 0.  0.
        -12    1    1    2    0    0  0.19440200020E+00 -0.94996639656E+00  0.67161160597E+00  0.11795297544E+01  0.00000000000E+00 0.  1.
         11    1    3    3    0    0  0.31457002912E+02  0.19576828702E+02  0.74184241560E+01  0.37786614977E+02  0.51100000000E-03 0. -1.
        -11    1    3    3    0    0  0.13069442428E+01  0.60675545162E+01  0.60609173908E+01  0.86751392462E+01  0.51100000000E-03 0.  1.
        -12    1    3    3    0    0 -0.32958349155E+02 -0.24694416821E+02 -0.14150953153E+02  0.43546716022E+02  0.00000000000E+00 0.  1.
</event>
<event>
 7    1  0.5158441E-015  0.9000772E+02  0.7816164E-02  0.1186339E+00
        -11   -1    0    0    0    0  0.00000000000E+00  0.00000000000E+00  0.45593999997E+02  0.45594000000E+02  0.51100000000E-03 0.  1.
         11   -1    0    0    0    0 -0.00000000000E+00 -0.00000000000E+00 -0.45593999997E+02  0.45594000000E+02  0.51100000000E-03 0. -1.
    9900012    2    1    2    0    0 -0.93031388949E+00 -0.50703767682E+00 -0.52009749116E+00  0.90007715060E+02  0.89999976099E+02 0.  0.
        -12    1    1    2    0    0  0.93031388949E+00  0.50703767682E+00  0.52009749116E+00  0.11802849397E+01  0.00000000000E+00 0.  1.
         11    1    3    3    0    0 -0.49066624490E+01  0.39307939720E+01  0.78654336087E+01  0.10069335815E+02  0.51100000000E-03 0. -1.
        -11    1    3    3    0    0  0.42782854195E+01 -0.19526754616E+02  0.31491904326E+02  0.37300642224E+02  0.51100000000E-03 0.  1.
         12    1    3    3    0    0 -0.30193686000E+00  0.15088922967E+02 -0.39877435426E+02  0.42637737022E+02  0.00000000000E+00 0. -1.
</event>
<event>
 7    1  0.5158441E-015  0.9000720E+02  0.7816164E-02  0.1186340E+00
        -11   -1    0    0    0    0  0.00000000000E+00  0.00000000000E+00  0.45593999997E+02  0.45594000000E+02  0.51100000000E-03 0. -1.
         11   -1    0    0    0    0 -0.00000000000E+00 -0.00000000000E+00 -0.45593999997E+02  0.45594000000E+02  0.51100000000E-03 0.  1.
    9900012    2    1    2    0    0  0.88437213607E+00  0.77384491250E+00  0.11552469020E+00  0.90007196893E+02  0.89999451090E+02 0.  0.
        -12    1    1    2    0    0 -0.88437213607E+00 -0.77384491250E+00 -0.11552469020E+00  0.11808031071E+01  0.00000000000E+00 0.  1.
         11    1    3    3    0    0 -0.19472962880E+01  0.96491646139E+01 -0.29391713243E+01  0.10273123620E+02  0.51100000000E-03 0. -1.
        -11    1    3    3    0    0 -0.25644813001E+02 -0.32358538817E+02 -0.60190173863E+01  0.41724813226E+02  0.51100000000E-03 0.  1.
         12    1    3    3    0    0  0.28476481425E+02  0.23483219116E+02  0.90737134008E+01  0.38009260046E+02  0.00000000000E+00 0. -1.
</event>
<event>
 7    1  0.5158441E-015  0.9000779E+02  0.7816164E-02  0.1186339E+00
        -11   -1    0    0    0    0  0.00000000000E+00  0.00000000000E+00  0.45593999997E+02  0.45594000000E+02  0.51100000000E-03 0.  1.
         11   -1    0    0    0    0 -0.00000000000E+00 -0.00000000000E+00 -0.45593999997E+02  0.45594000000E+02  0.51100000000E-03 0. -1.
    9900012    2    1    2    0    0  0.91693659788E+00  0.42384559614E+00 -0.61031380562E+00  0.90007787835E+02  0.90000049834E+02 0.  0.
        -12    1    1    2    0    0 -0.91693659788E+00 -0.42384559614E+00  0.61031380562E+00  0.11802121653E+01  0.00000000000E+00 0.  1.
         11    1    3    3    0    0 -0.14552718778E+02 -0.11040738551E+02 -0.38951911736E+01  0.18677581377E+02  0.51100000000E-03 0. -1.
        -11    1    3    3    0    0  0.31470942743E+01 -0.10935278074E+01  0.34948410751E+02  0.35106857161E+02  0.51100000000E-03 0.  1.
         12    1    3    3    0    0  0.12322561101E+02  0.12558111954E+02 -0.31663533383E+02  0.36223349296E+02  0.00000000000E+00 0. -1.
</event>
<event>
 7    1  0.5158441E-015  0.9000769E+02  0.7816164E-02  0.1186339E+00
        -11   -1    0    0    0    0  0.00000000000E+00  0.00000000000E+00  0.45593999997E+02  0.45594000000E+02  0.51100000000E-03 0.  1.
         11   -1    0    0    0    0 -0.00000000000E+00 -0.00000000000E+00 -0.45593999997E+02  0.45594000000E+02  0.51100000000E-03 0. -1.
    9900012    2    1    2    0    0  0.57086016903E+00 -0.66416690422E+00 -0.79128836231E+00  0.90007688058E+02  0.89999948740E+02 0.  0.
        -12    1    1    2    0    0 -0.57086016903E+00  0.66416690422E+00  0.79128836231E+00  0.11803119425E+01  0.00000000000E+00 0.  1.
         11    1    3    3    0    0  0.35875976431E+01  0.94557644818E+00 -0.81017282970E+01  0.89108346033E+01  0.51100000000E-03 0. -1.
        -11    1    3    3    0    0 -0.25278767770E+01 -0.32696338903E+02 -0.21087823865E+02  0.38988935024E+02  0.51100000000E-03 0.  1.
         12    1    3    3    0    0 -0.48886069707E+00  0.31086595551E+02  0.28398263800E+02  0.42107918430E+02  0.00000000000E+00 0. -1.
</event>
<event>
 7    1  0.5158441E-015  0.9000772E+02  0.7816164E-02  0.1186339E+00
        -11   -1    0    0    0    0  0.00000000000E+00  0.00000000000E+00  0.45593999997E+02  0.45594000000E+02  0.51100000000E-03 0. -1.
         11   -1    0    0    0    0 -0.00000000000E+00 -0.00000000000E+00 -0.45593999997E+02  0.45594000000E+02  0.51100000000E-03 0.  1.
    9900012    2    1    2    0    0 -0.43644250228E+00  0.86260580582E+00  0.67711037589E+00  0.90007724907E+02  0.89999986076E+02 0.  0.
        -12    1    1    2    0    0  0.43644250228E+00 -0.86260580582E+00 -0.67711037589E+00  0.11802750930E+01  0.00000000000E+00 0.  1.
         11    1    3    3    0    0 -0.46775136633E+00 -0.60852266655E+01 -0.55111225933E+01  0.82232139344E+01  0.51100000000E-03 0. -1.
        -11    1    3    3    0    0 -0.28186495683E+02  0.21377320040E+02 -0.20029440385E+02  0.40652759234E+02  0.51100000000E-03 0.  1.
         12    1    3    3    0    0  0.28217804547E+02 -0.14429487569E+02  0.26217673354E+02  0.41131751738E+02  0.00000000000E+00 0. -1.
</event>
<event>
 7    1  0.5158441E-015  0.9000776E+02  0.7816164E-02  0.1186339E+00
        -11   -1    0    0    0    0  0.00000000000E+00  0.00000000000E+00  0.45593999997E+02  0.45594000000E+02  0.51100000000E-03 0.  1.
         11   -1    0    0    0    0 -0.00000000000E+00 -0.00000000000E+00 -0.45593999997E+02  0.45594000000E+02  0.51100000000E-03 0. -1.
    9900012    2    1    2    0    0 -0.93163399214E+00 -0.65340382184E+00 -0.31318009078E+00  0.90007762643E+02  0.90000024310E+02 0.  0.
        -12    1    1    2    0    0  0.93163399214E+00  0.65340382184E+00  0.31318009078E+00  0.11802373571E+01  0.00000000000E+00 0.  1.
         11    1    3    3    0    0  0.16043240078E+02 -0.15964820463E+02 -0.73988529037E+01  0.23811847244E+02  0.51100000000E-03 0. -1.
        -11    1    3    3    0    0  0.13478478751E+02  0.12168219213E+02 -0.18775430730E+02  0.26119949227E+02  0.51100000000E-03 0.  1.
        -12    1    3    3    0    0 -0.30453352821E+02  0.31431974284E+01  0.25861103543E+02  0.40075966172E+02  0.00000000000E+00 0.  1.
</event>
<event>
 7    1  0.5158441E-015  0.9000772E+02  0.7816164E-02  0.1186339E+00
        -11   -1    0    0    0    0  0.00000000000E+00  0.00000000000E+00  0.45593999997E+02  0.45594000000E+02  0.51100000000E-03 0. -1.
         11   -1    0    0    0    0 -0.00000000000E+00 -0.00000000000E+00 -0.45593999997E+02  0.45594000000E+02  0.51100000000E-03 0.  1.
    9900012    2    1    2    0    0  0.11574703034E+01 -0.18874362880E+00  0.13301311065E+00  0.90007722851E+02  0.89999983993E+02 0.  0.
        -12    1    1    2    0    0 -0.11574703034E+01  0.18874362880E+00 -0.13301311065E+00  0.11802771489E+01  0.00000000000E+00 0.  1.
         11    1    3    3    0    0 -0.25363520410E+02 -0.14124645784E+02  0.27556107846E+02  0.40026901779E+02  0.51100000000E-03 0. -1.
        -11    1    3    3    0    0  0.41853537256E+01  0.12683355358E+02  0.14731986644E+01  0.13437075706E+02  0.51100000000E-03 0.  1.
        -12    1    3    3    0    0  0.22335636988E+02  0.12525467967E+01 -0.28896293400E+02  0.36543745367E+02  0.00000000000E+00 0.  1.
</event>
<event>
 7    1  0.5158441E-015  0.9000773E+02  0.7816164E-02  0.1186339E+00
        -11   -1    0    0    0    0  0.00000000000E+00  0.00000000000E+00  0.45593999997E+02  0.45594000000E+02  0.51100000000E-03 0.  1.
         11   -1    0    0    0    0 -0.00000000000E+00 -0.00000000000E+00 -0.45593999997E+02  0.45594000000E+02  0.51100000000E-03 0. -1.
    9900012    2    1    2    0    0 -0.10932586763E+01  0.35748180711E+00 -0.26464762248E+00  0.90007726244E+02  0.89999987430E+02 0.  0.
        -12    1    1    2    0    0  0.10932586763E+01 -0.35748180711E+00  0.26464762248E+00  0.11802737563E+01  0.00000000000E+00 0.  1.
         11    1    3    3    0    0 -0.12874073254E+02  0.48623351320E+01 -0.13851070721E+01  0.13831217840E+02  0.51100000000E-03 0. -1.
        -11    1    3    3    0    0  0.19517415976E+01  0.27737030884E+02  0.22920195043E+02  0.36034532307E+02  0.51100000000E-03 0.  1.
         12    1    3    3    0    0  0.98290729799E+01 -0.32241884209E+02 -0.21799735593E+02  0.40141976096E+02  0.00000000000E+00 0. -1.
</event>
<event>
 7    1  0.5158441E-015  0.9000777E+02  0.7816164E-02  0.1186339E+00
        -11   -1    0    0    0    0  0.00000000000E+00  0.00000000000E+00  0.45593999997E+02  0.45594000000E+02  0.51100000000E-03 0.  1.
         11   -1    0    0    0    0 -0.00000000000E+00 -0.00000000000E+00 -0.45593999997E+02  0.45594000000E+02  0.51100000000E-03 0. -1.
    9900012    2    1    2    0    0 -0.40912398068E+00 -0.93501237313E+00 -0.59272364670E+00  0.90007766171E+02  0.90000027885E+02 0.  0.
        -12    1    1    2    0    0  0.40912398068E+00  0.93501237313E+00  0.59272364670E+00  0.11802338289E+01  0.00000000000E+00 0.  1.
         11    1    3    3    0    0  0.11379846380E+02  0.50915816470E+01 -0.42058245960E+01  0.13157281942E+02  0.51100000000E-03 0. -1.
        -11    1    3    3    0    0  0.30095962837E+02  0.72420725752E+01  0.98256965679E+01  0.32477052015E+02  0.51100000000E-03 0.  1.
         12    1    3    3    0    0 -0.41884933198E+02 -0.13268666595E+02 -0.62125956186E+01  0.44373432215E+02  0.00000000000E+00 0. -1.
</event>
<event>
 7    1  0.5158441E-015  0.9000770E+02  0.7816164E-02  0.1186339E+00
        -11   -1    0    0    0    0  0.00000000000E+00  0.00000000000E+00  0.45593999997E+02  0.45594000000E+02  0.51100000000E-03 0.  1.
         11   -1    0    0    0    0 -0.00000000000E+00 -0.00000000000E+00 -0.45593999997E+02  0.45594000000E+02  0.51100000000E-03 0. -1.
    9900012    2    1    2    0    0 -0.94959533235E+00  0.43949455531E+00  0.54610535257E+00  0.90007695880E+02  0.89999956666E+02 0.  0.
        -12    1    1    2    0    0  0.94959533235E+00 -0.43949455531E+00 -0.54610535257E+00  0.11803041199E+01  0.00000000000E+00 0.  1.
         11    1    3    3    0    0  0.36056012467E+02  0.16410926979E+01 -0.11984191747E+02  0.38030909433E+02  0.51100000000E-03 0. -1.
        -11    1    3    3    0    0  0.61129958636E+00  0.71664966263E+01 -0.58596639233E+01  0.92772853052E+01  0.51100000000E-03 0.  1.
        -12    1    3    3    0    0 -0.37616907385E+02 -0.83680947689E+01  0.18389961023E+02  0.42699501141E+02  0.00000000000E+00 0.  1.
</event>
<event>
 7    1  0.5158441E-015  0.9000740E+02  0.7816164E-02  0.1186340E+00
        -11   -1    0    0    0    0  0.00000000000E+00  0.00000000000E+00  0.45593999997E+02  0.45594000000E+02  0.51100000000E-03 0. -1.
         11   -1    0    0    0    0 -0.00000000000E+00 -0.00000000000E+00 -0.45593999997E+02  0.45594000000E+02  0.51100000000E-03 0.  1.
    9900012    2    1    2    0    0  0.35855026667E+00  0.11095099919E+01 -0.18506381372E+00  0.90007398742E+02  0.89999655604E+02 0.  0.
        -12    1    1    2    0    0 -0.35855026667E+00 -0.11095099919E+01  0.18506381372E+00  0.11806012583E+01  0.00000000000E+00 0.  1.
         11    1    3    3    0    0 -0.38700991636E+01  0.12462947062E+01  0.79659637286E+01  0.89435729112E+01  0.51100000000E-03 0. -1.
        -11    1    3    3    0    0 -0.62013620149E+01 -0.38151768425E+02  0.61326016247E+01  0.39135956967E+02  0.51100000000E-03 0.  1.
         12    1    3    3    0    0  0.10430011445E+02  0.38014983710E+02 -0.14283629167E+02  0.41927868863E+02  0.00000000000E+00 0. -1.
</event>
<event>
 7    1  0.5158441E-015  0.9000776E+02  0.7816164E-02  0.1186339E+00
        -11   -1    0    0    0    0  0.00000000000E+00  0.00000000000E+00  0.45593999997E+02  0.45594000000E+02  0.51100000000E-03 0. -1.
         11   -1    0    0    0    0 -0.00000000000E+00 -0.00000000000E+00 -0.45593999997E+02  0.45594000000E+02  0.51100000000E-03 0.  1.
    9900012    2    1    2    0    0 -0.82223226168E+00 -0.79023214234E+00  0.30404569369E+00  0.90007755739E+02  0.90000017315E+02 0.  0.
        -12    1    1    2    0    0  0.82223226168E+00  0.79023214234E+00 -0.30404569369E+00  0.11802442606E+01  0.00000000000E+00 0.  1.
         11    1    3    3    0    0  0.16215156856E+02 -0.31378872295E+02 -0.17915114474E+02  0.39604498043E+02  0.51100000000E-03 0. -1.
        -11    1    3    3    0    0 -0.87732658227E+01  0.11346583658E+01 -0.65779693535E+01  0.11023943209E+02  0.51100000000E-03 0.  1.
        -12    1    3    3    0    0 -0.82641232949E+01  0.29453981787E+02  0.24797129521E+02  0.39379314487E+02  0.00000000000E+00 0.  1.
</event>
<event>
 7    1  0.5158441E-015  0.9000774E+02  0.7816164E-02  0.1186339E+00
        -11   -1    0    0    0    0  0.00000000000E+00  0.00000000000E+00  0.45593999997E+02  0.45594000000E+02  0.51100000000E-03 0.  1.
         11   -1    0    0    0    0 -0.00000000000E+00 -0.00000000000E+00 -0.45593999997E+02  0.45594000000E+02  0.51100000000E-03 0. -1.
    9900012    2    1    2    0    0  0.72931218411E+00  0.88001093663E+00  0.29445064973E+00  0.90007738717E+02  0.90000000068E+02 0.  0.
        -12    1    1    2    0    0 -0.72931218411E+00 -0.88001093663E+00 -0.29445064973E+00  0.11802612828E+01  0.00000000000E+00 0.  1.
         11    1    3    3    0    0  0.27903118463E+01 -0.22477732504E+02 -0.31439281154E+02  0.38748712217E+02  0.51100000000E-03 0. -1.
        -11    1    3    3    0    0  0.83017130933E+01 -0.33242310612E+01  0.59362116944E+00  0.89622172918E+01  0.51100000000E-03 0.  1.
        -12    1    3    3    0    0 -0.10362712755E+02  0.26681974502E+02  0.31140110634E+02  0.42296809209E+02  0.00000000000E+00 0.  1.
</event>
<event>
 7    1  0.6738360E-015  0.9000773E+02  0.7816164E-02  0.1186339E+00
        -11   -1    0    0    0    0  0.00000000000E+00  0.00000000000E+00  0.45593999997E+02  0.45594000000E+02  0.51100000000E-03 0. -1.
         11   -1    0    0    0    0 -0.00000000000E+00 -0.00000000000E+00 -0.45593999997E+02  0.45594000000E+02  0.51100000000E-03 0.  1.
    9900012    2    1    2    0    0  0.70002615702E+00 -0.10832767673E+00  0.94407434827E+00  0.90007725506E+02  0.89999986683E+02 0.  0.
        -12    1    1    2    0    0 -0.70002615702E+00  0.10832767673E+00 -0.94407434827E+00  0.11802744940E+01  0.00000000000E+00 0.  1.
         11    1    3    3    0    0  0.11656903141E+02 -0.34199405565E+02 -0.19385305942E+01  0.36183430365E+02  0.51100000000E-03 0. -1.
        -11    1    3    3    0    0  0.20629060107E+01 -0.78854558598E+01  0.54418684720E+01  0.98005065203E+01  0.51100000000E-03 0.  1.
        -12    1    3    3    0    0 -0.13019782995E+02  0.41976533748E+02 -0.25592635295E+01  0.44023788621E+02  0.00000000000E+00 0.  1.
</event>
<event>
 7    1  0.5198227E-015  0.9000780E+02  0.7816164E-02  0.1186339E+00
        -11   -1    0    0    0    0  0.00000000000E+00  0.00000000000E+00  0.45593999997E+02  0.45594000000E+02  0.51100000000E-03 0.  1.
         11   -1    0    0    0    0 -0.00000000000E+00 -0.00000000000E+00 -0.45593999997E+02  0.45594000000E+02  0.51100000000E-03 0. -1.
    9900012    2    1    2    0    0 -0.72560771168E+00  0.50183920792E+00 -0.78392243758E+00  0.90007795132E+02  0.90000057228E+02 0.  0.
        -12    1    1    2    0    0  0.72560771168E+00 -0.50183920792E+00  0.78392243758E+00  0.11802048678E+01  0.00000000000E+00 0.  1.
         11    1    3    3    0    0 -0.24192080930E+02  0.11229695078E+02 -0.28613194930E+02  0.39116208349E+02  0.51100000000E-03 0. -1.
        -11    1    3    3    0    0 -0.87621117466E+01 -0.30054852995E+01  0.40924597102E+01  0.10126982319E+02  0.51100000000E-03 0.  1.
        -12    1    3    3    0    0  0.32228584965E+02 -0.77223705705E+01  0.23736812782E+02  0.40764604464E+02  0.00000000000E+00 0.  1.
</event>
<event>
 7    1  0.5158441E-015  0.9000773E+02  0.7816164E-02  0.1186339E+00
        -11   -1    0    0    0    0  0.00000000000E+00  0.00000000000E+00  0.45593999997E+02  0.45594000000E+02  0.51100000000E-03 0. -1.
         11   -1    0    0    0    0 -0.00000000000E+00 -0.00000000000E+00 -0.45593999997E+02  0.45594000000E+02  0.51100000000E-03 0.  1.
    9900012    2    1    2    0    0  0.50813148418E+00 -0.55477955359E+00  0.90942299045E+00  0.90007733872E+02  0.89999995159E+02 0.  0.
        -12    1    1    2    0    0 -0.50813148418E+00  0.55477955359E+00 -0.90942299045E+00  0.11802661284E+01  0.00000000000E+00 0.  1.
         11    1    3    3    0    0  0.11633395188E+02 -0.92490013956E+01  0.16793612934E+02  0.22425551187E+02  0.51100000000E-03 0. -1.
        -11    1    3    3    0    0 -0.17039937693E+02  0.26782040110E+02 -0.30164571795E+02  0.43789708161E+02  0.51100000000E-03 0.  1.
         12    1    3    3    0    0  0.59146739885E+01 -0.18087818268E+02  0.14280381851E+02  0.23792474523E+02  0.00000000000E+00 0. -1.
</event>
<event>
 7    1  0.5158441E-015  0.9000772E+02  0.7816164E-02  0.1186339E+00
        -11   -1    0    0    0    0  0.00000000000E+00  0.00000000000E+00  0.45593999997E+02  0.45594000000E+02  0.51100000000E-03 0. -1.
         11   -1    0    0    0    0 -0.00000000000E+00 -0.00000000000E+00 -0.45593999997E+02  0.45594000000E+02  0.51100000000E-03 0.  1.
    9900012    2    1    2    0    0  0.11290095187E+01  0.22152938181E+00  0.26328153680E+00  0.90007722521E+02  0.89999983658E+02 0.  0.
        -12    1    1    2    0    0 -0.11290095187E+01 -0.22152938181E+00 -0.26328153680E+00  0.11802774792E+01  0.00000000000E+00 0.  1.
         11    1    3    3    0    0  0.34091110740E+01  0.39265287591E+01  0.78404849143E+01  0.94081278883E+01  0.51100000000E-03 0. -1.
        -11    1    3    3    0    0  0.30448550725E+02  0.17141662722E+02  0.12245440935E+02  0.37025689272E+02  0.51100000000E-03 0.  1.
         12    1    3    3    0    0 -0.32728652281E+02 -0.20846662099E+02 -0.19822644313E+02  0.43573905360E+02  0.00000000000E+00 0. -1.
</event>
<event>
 7    1  0.5918895E-015  0.9000768E+02  0.7816164E-02  0.1186339E+00
        -11   -1    0    0    0    0  0.00000000000E+00  0.00000000000E+00  0.45593999997E+02  0.45594000000E+02  0.51100000000E-03 0.  1.
         11   -1    0    0    0    0 -0.00000000000E+00 -0.00000000000E+00 -0.45593999997E+02  0.45594000000E+02  0.51100000000E-03 0. -1.
    9900012    2    1    2    0    0 -0.63321648640E+00  0.32043925289E+00 -0.94314350017E+00  0.90007676275E+02  0.89999936802E+02 0.  0.
        -12    1    1    2    0    0  0.63321648640E+00 -0.32043925289E+00  0.94314350017E+00  0.11803237248E+01  0.00000000000E+00 0.  1.
         11    1    3    3    0    0  0.20631614572E+02 -0.32062732178E+02 -0.28177806582E+01  0.38231167948E+02  0.51100000000E-03 0. -1.
        -11    1    3    3    0    0  0.87065866527E+01  0.32784191534E+01  0.35691233570E+01  0.99645032533E+01  0.51100000000E-03 0.  1.
        -12    1    3    3    0    0 -0.29971417711E+02  0.29104752278E+02 -0.16944861990E+01  0.41812005073E+02  0.00000000000E+00 0.  1.
</event>
<event>
 7    1  0.5158441E-015  0.9000763E+02  0.7816164E-02  0.1186339E+00
        -11   -1    0    0    0    0  0.00000000000E+00  0.00000000000E+00  0.45593999997E+02  0.45594000000E+02  0.51100000000E-03 0. -1.
         11   -1    0    0    0    0 -0.00000000000E+00 -0.00000000000E+00 -0.45593999997E+02  0.45594000000E+02  0.51100000000E-03 0.  1.
    9900012    2    1    2    0    0  0.12151023749E+00 -0.11712706971E+01  0.81442300485E-01  0.90007630299E+02  0.89999890218E+02 0.  0.
        -12    1    1    2    0    0 -0.12151023749E+00  0.11712706971E+01 -0.81442300485E-01  0.11803697014E+01  0.00000000000E+00 0.  1.
         11    1    3    3    0    0 -0.68480148026E+01  0.46930911819E+01  0.30069488407E+01  0.88296179516E+01  0.51100000000E-03 0. -1.
        -11    1    3    3    0    0 -0.34853438717E+02 -0.14128780822E+02 -0.73416603107E+01  0.38318202128E+02  0.51100000000E-03 0.  1.
         12    1    3    3    0    0  0.41822963757E+02  0.82644189428E+01  0.44161537705E+01  0.42859810219E+02  0.00000000000E+00 0. -1.
</event>
<event>
 7    1  0.5158441E-015  0.9000790E+02  0.7816164E-02  0.1186339E+00
        -11   -1    0    0    0    0  0.00000000000E+00  0.00000000000E+00  0.45593999997E+02  0.45594000000E+02  0.51100000000E-03 0. -1.
         11   -1    0    0    0    0 -0.00000000000E+00 -0.00000000000E+00 -0.45593999997E+02  0.45594000000E+02  0.51100000000E-03 0.  1.
    9900012    2    1    2    0    0  0.10892128042E+01  0.33640287950E+00  0.30509910576E+00  0.90007899625E+02  0.90000163100E+02 0.  0.
        -12    1    1    2    0    0 -0.10892128042E+01 -0.33640287950E+00 -0.30509910576E+00  0.11801003747E+01  0.00000000000E+00 0.  1.
         11    1    3    3    0    0 -0.13643379174E+02 -0.12357614169E+02 -0.20749698364E+02  0.27738103860E+02  0.51100000000E-03 0. -1.
        -11    1    3    3    0    0  0.44551471404E+01  0.22058087472E+02 -0.12646167090E+02  0.25813428701E+02  0.51100000000E-03 0.  1.
        -12    1    3    3    0    0  0.10277444838E+02 -0.93640704227E+01  0.33700964560E+02  0.36456367065E+02  0.00000000000E+00 0.  1.
</event>
<event>
 7    1  0.5158441E-015  0.9000776E+02  0.7816164E-02  0.1186339E+00
        -11   -1    0    0    0    0  0.00000000000E+00  0.00000000000E+00  0.45593999997E+02  0.45594000000E+02  0.51100000000E-03 0. -1.
         11   -1    0    0    0    0 -0.00000000000E+00 -0.00000000000E+00 -0.45593999997E+02  0.45594000000E+02  0.51100000000E-03 0.  1.
    9900012    2    1    2    0    0  0.21443262399E+00  0.78875018888E+00 -0.85137916314E+00  0.90007764985E+02  0.90000026683E+02 0.  0.
        -12    1    1    2    0    0 -0.21443262399E+00 -0.78875018888E+00  0.85137916314E+00  0.11802350148E+01  0.00000000000E+00 0.  1.
         11    1    3    3    0    0 -0.13020418012E+01  0.22966114082E+01 -0.12039789186E+02  0.12325837120E+02  0.51100000000E-03 0. -1.
        -11    1    3    3    0    0 -0.32247370562E+02  0.19921912195E+01 -0.14201358057E+02  0.35292213092E+02  0.51100000000E-03 0.  1.
         12    1    3    3    0    0  0.33763844987E+02 -0.35000524388E+01  0.25389768080E+02  0.42389714773E+02  0.00000000000E+00 0. -1.
</event>
<event>
 7    1  0.6987804E-015  0.9000779E+02  0.7816164E-02  0.1186339E+00
        -11   -1    0    0    0    0  0.00000000000E+00  0.00000000000E+00  0.45593999997E+02  0.45594000000E+02  0.51100000000E-03 0. -1.
         11   -1    0    0    0    0 -0.00000000000E+00 -0.00000000000E+00 -0.45593999997E+02  0.45594000000E+02  0.51100000000E-03 0.  1.
    9900012    2    1    2    0    0  0.78862245059E+00 -0.64208811433E+00  0.59891195225E+00  0.90007788984E+02  0.90000050998E+02 0.  0.
        -12    1    1    2    0    0 -0.78862245059E+00  0.64208811433E+00 -0.59891195225E+00  0.11802110162E+01  0.00000000000E+00 0.  1.
         11    1    3    3    0    0 -0.99940985774E+01  0.29970137518E+02  0.21247453220E+02  0.38072896105E+02  0.51100000000E-03 0. -1.
        -11    1    3    3    0    0  0.12749497063E+00  0.76696363165E+01 -0.53617089307E+01  0.93588193227E+01  0.51100000000E-03 0.  1.
        -12    1    3    3    0    0  0.10655226057E+02 -0.38281861949E+02 -0.15286832337E+02  0.42576073556E+02  0.00000000000E+00 0.  1.
</event>
<event>
 7    1  0.5158441E-015  0.9000774E+02  0.7816164E-02  0.1186339E+00
        -11   -1    0    0    0    0  0.00000000000E+00  0.00000000000E+00  0.45593999997E+02  0.45594000000E+02  0.51100000000E-03 0.  1.
         11   -1    0    0    0    0 -0.00000000000E+00 -0.00000000000E+00 -0.45593999997E+02  0.45594000000E+02  0.51100000000E-03 0. -1.
    9900012    2    1    2    0    0  0.20437481627E+00  0.31656819719E+00 -0.11184962609E+01  0.90007738006E+02  0.89999999348E+02 0.  0.
        -12    1    1    2    0    0 -0.20437481627E+00 -0.31656819719E+00  0.11184962609E+01  0.11802619941E+01  0.00000000000E+00 0.  1.
         11    1    3    3    0    0  0.88017358893E+01  0.38478061620E+01 -0.14608458067E+01  0.97164930740E+01  0.51100000000E-03 0. -1.
        -11    1    3    3    0    0 -0.49503542422E+01  0.27536066636E+02  0.27231292611E+02  0.39042083326E+02  0.51100000000E-03 0.  1.
         12    1    3    3    0    0 -0.36470068308E+01 -0.31067304601E+02 -0.26888943065E+02  0.41249161606E+02  0.00000000000E+00 0. -1.
</event>
<event>
 7    1  0.5158441E-015  0.9000772E+02  0.7816164E-02  0.1186339E+00
        -11   -1    0    0    0    0  0.00000000000E+00  0.00000000000E+00  0.45593999997E+02  0.45594000000E+02  0.51100000000E-03 0. -1.
         11   -1    0    0    0    0 -0.00000000000E+00 -0.00000000000E+00 -0.45593999997E+02  0.45594000000E+02  0.51100000000E-03 0.  1.
    9900012    2    1    2    0    0 -0.54187561954E+00  0.39950383447E+00  0.96944725559E+00  0.90007720168E+02  0.89999981274E+02 0.  0.
        -12    1    1    2    0    0  0.54187561954E+00 -0.39950383447E+00 -0.96944725559E+00  0.11802798321E+01  0.00000000000E+00 0.  1.
         11    1    3    3    0    0 -0.58947249643E+01  0.67765660498E+01  0.22559006484E+01  0.92606002953E+01  0.51100000000E-03 0. -1.
        -11    1    3    3    0    0  0.27715460835E+02  0.27213883446E+02 -0.84790642767E+01  0.39757222649E+02  0.51100000000E-03 0.  1.
         12    1    3    3    0    0 -0.22362611490E+02 -0.33590945661E+02  0.71926108838E+01  0.40989897224E+02  0.00000000000E+00 0. -1.
</event>
<event>
 7    1  0.5158441E-015  0.9000776E+02  0.7816164E-02  0.1186339E+00
        -11   -1    0    0    0    0  0.00000000000E+00  0.00000000000E+00  0.45593999997E+02  0.45594000000E+02  0.51100000000E-03 0.  1.
         11   -1    0    0    0    0 -0.00000000000E+00 -0.00000000000E+00 -0.45593999997E+02  0.45594000000E+02  0.51100000000E-03 0. -1.
    9900012    2    1    2    0    0  0.46390868641E-02 -0.59142744244E+00 -0.10213463732E+01  0.90007764280E+02  0.90000025968E+02 0.  0.
        -12    1    1    2    0    0 -0.46390868641E-02  0.59142744244E+00  0.10213463732E+01  0.11802357201E+01  0.00000000000E+00 0.  1.
         11    1    3    3    0    0  0.26522176780E+02 -0.21997942338E+02 -0.79541281867E+01  0.35363872578E+02  0.51100000000E-03 0. -1.
        -11    1    3    3    0    0  0.70325579812E+01 -0.67473640925E+01 -0.19883593467E+01  0.99467264519E+01  0.51100000000E-03 0.  1.
        -12    1    3    3    0    0 -0.33550095674E+02  0.28153878988E+02  0.89211411602E+01  0.44697165250E+02  0.00000000000E+00 0.  1.
</event>
<event>
 7    1  0.5158441E-015  0.9000769E+02  0.7816164E-02  0.1186339E+00
        -11   -1    0    0    0    0  0.00000000000E+00  0.00000000000E+00  0.45593999997E+02  0.45594000000E+02  0.51100000000E-03 0.  1.
         11   -1    0    0    0    0 -0.00000000000E+00 -0.00000000000E+00 -0.45593999997E+02  0.45594000000E+02  0.51100000000E-03 0. -1.
    9900012    2    1    2    0    0  0.88079540972E+00  0.59825557664E+00 -0.50932732216E+00  0.90007693002E+02  0.89999953749E+02 0.  0.
        -12    1    1    2    0    0 -0.88079540972E+00 -0.59825557664E+00  0.50932732216E+00  0.11803069981E+01  0.00000000000E+00 0.  1.
         11    1    3    3    0    0  0.62837584007E+01  0.13305886588E+01 -0.97118160895E+01  0.11643687467E+02  0.51100000000E-03 0. -1.
        -11    1    3    3    0    0 -0.11813313257E+01  0.38364373279E+02  0.24140441504E+01  0.38458396875E+02  0.51100000000E-03 0.  1.
         12    1    3    3    0    0 -0.42216316652E+01 -0.39096706361E+02  0.67884446170E+01  0.39905608660E+02  0.00000000000E+00 0. -1.
</event>
<event>
 7    1  0.5158441E-015  0.9000773E+02  0.7816164E-02  0.1186339E+00
        -11   -1    0    0    0    0  0.00000000000E+00  0.00000000000E+00  0.45593999997E+02  0.45594000000E+02  0.51100000000E-03 0.  1.
         11   -1    0    0    0    0 -0.00000000000E+00 -0.00000000000E+00 -0.45593999997E+02  0.45594000000E+02  0.51100000000E-03 0. -1.
    9900012    2    1    2    0    0  0.47499234142E+00 -0.96679974897E+00 -0.48240749547E+00  0.90007730340E+02  0.89999991580E+02 0.  0.
        -12    1    1    2    0    0 -0.47499234142E+00  0.96679974897E+00  0.48240749547E+00  0.11802696602E+01  0.00000000000E+00 0.  1.
         11    1    3    3    0    0 -0.43492944035E+01  0.83607923413E+00  0.79417004465E+01  0.90931840703E+01  0.51100000000E-03 0. -1.
        -11    1    3    3    0    0  0.32368108786E+02  0.25468674681E+00  0.22523107805E+02  0.39434118694E+02  0.51100000000E-03 0.  1.
         12    1    3    3    0    0 -0.27543822041E+02 -0.20575657299E+01 -0.30947215747E+02  0.41480427575E+02  0.00000000000E+00 0. -1.
</event>
<event>
 7    1  0.5158441E-015  0.9000771E+02  0.7816164E-02  0.1186339E+00
        -11   -1    0    0    0    0  0.00000000000E+00  0.00000000000E+00  0.45593999997E+02  0.45594000000E+02  0.51100000000E-03 0. -1.
         11   -1    0    0    0    0 -0.00000000000E+00 -0.00000000000E+00 -0.45593999997E+02  0.45594000000E+02  0.51100000000E-03 0.  1.
    9900012    2    1    2    0    0  0.56237950154E+00 -0.92814790905E+00 -0.46405758989E+00  0.90007712454E+02  0.89999973458E+02 0.  0.
        -12    1    1    2    0    0 -0.56237950154E+00  0.92814790905E+00  0.46405758989E+00  0.11802875461E+01  0.00000000000E+00 0.  1.
         11    1    3    3    0    0  0.74695968827E+01  0.52714929045E+01 -0.14871758453E+01  0.92625702312E+01  0.51100000000E-03 0. -1.
        -11    1    3    3    0    0  0.15512447701E+00 -0.11956295414E+02 -0.38433290677E+02  0.40250402434E+02  0.51100000000E-03 0.  1.
         12    1    3    3    0    0 -0.70623418582E+01  0.57566546000E+01  0.39456408932E+02  0.40494739788E+02  0.00000000000E+00 0. -1.
</event>
<event>
 7    1  0.5158441E-015  0.9000772E+02  0.7816164E-02  0.1186339E+00
        -11   -1    0    0    0    0  0.00000000000E+00  0.00000000000E+00  0.45593999997E+02  0.45594000000E+02  0.51100000000E-03 0.  1.
         11   -1    0    0    0    0 -0.00000000000E+00 -0.00000000000E+00 -0.45593999997E+02  0.45594000000E+02  0.51100000000E-03 0. -1.
    9900012    2    1    2    0    0 -0.88979830882E+00  0.47534470872E+00 -0.61267264823E+00  0.90007719781E+02  0.89999980882E+02 0.  0.
        -12    1    1    2    0    0  0.88979830882E+00 -0.47534470872E+00  0.61267264823E+00  0.11802802194E+01  0.00000000000E+00 0.  1.
         11    1    3    3    0    0 -0.62044959228E+01  0.99586299686E+01 -0.51662627006E+01  0.12820310100E+02  0.51100000000E-03 0. -1.
        -11    1    3    3    0    0  0.12328073253E+02  0.54114389580E+01  0.37779280059E+02  0.40106596262E+02  0.51100000000E-03 0.  1.
         12    1    3    3    0    0 -0.70133756386E+01 -0.14894724218E+02 -0.33225690006E+02  0.37080813418E+02  0.00000000000E+00 0. -1.
</event>
<event>
 7    1  0.5158441E-015  0.9000735E+02  0.7816164E-02  0.1186340E+00
        -11   -1    0    0    0    0  0.00000000000E+00  0.00000000000E+00  0.45593999997E+02  0.45594000000E+02  0.51100000000E-03 0.  1.
         11   -1    0    0    0    0 -0.00000000000E+00 -0.00000000000E+00 -0.45593999997E+02  0.45594000000E+02  0.51100000000E-03 0. -1.
    9900012    2    1    2    0    0 -0.87012902548E+00 -0.66277086816E+00 -0.44447164853E+00  0.90007345609E+02  0.89999601770E+02 0.  0.
        -12    1    1    2    0    0  0.87012902548E+00  0.66277086816E+00  0.44447164853E+00  0.11806543910E+01  0.00000000000E+00 0.  1.
         11    1    3    3    0    0 -0.10951354831E+02 -0.69289166671E+01 -0.14194989391E+02  0.19220816395E+02  0.51100000000E-03 0. -1.
        -11    1    3    3    0    0 -0.20518156308E+02 -0.13409436034E+02  0.22606789518E+02  0.33344784384E+02  0.51100000000E-03 0.  1.
         12    1    3    3    0    0  0.30599382113E+02  0.19675581833E+02 -0.88562717753E+01  0.37441744830E+02  0.00000000000E+00 0. -1.
</event>
<event>
 7    1  0.5158441E-015  0.9000776E+02  0.7816164E-02  0.1186339E+00
        -11   -1    0    0    0    0  0.00000000000E+00  0.00000000000E+00  0.45593999997E+02  0.45594000000E+02  0.51100000000E-03 0.  1.
         11   -1    0    0    0    0 -0.00000000000E+00 -0.00000000000E+00 -0.45593999997E+02  0.45594000000E+02  0.51100000000E-03 0. -1.
    9900012    2    1    2    0    0 -0.26633802562E+00  0.25520632890E-01 -0.11495148183E+01  0.90007757837E+02  0.90000019440E+02 0.  0.
        -12    1    1    2    0    0  0.26633802562E+00 -0.25520632890E-01  0.11495148183E+01  0.11802421633E+01  0.00000000000E+00 0.  1.
         11    1    3    3    0    0 -0.60498554568E+01 -0.50880621189E+01 -0.46455681983E+01  0.91689929284E+01  0.51100000000E-03 0. -1.
        -11    1    3    3    0    0 -0.43865347269E+01 -0.11395206061E+01  0.41118499187E+02  0.41367513459E+02  0.51100000000E-03 0.  1.
         12    1    3    3    0    0  0.10170052158E+02  0.62531033579E+01 -0.37622445807E+02  0.39471251450E+02  0.00000000000E+00 0. -1.
</event>
<event>
 7    1  0.5158441E-015  0.9000774E+02  0.7816164E-02  0.1186339E+00
        -11   -1    0    0    0    0  0.00000000000E+00  0.00000000000E+00  0.45593999997E+02  0.45594000000E+02  0.51100000000E-03 0.  1.
         11   -1    0    0    0    0 -0.00000000000E+00 -0.00000000000E+00 -0.45593999997E+02  0.45594000000E+02  0.51100000000E-03 0. -1.
    9900012    2    1    2    0    0 -0.51049848338E+00 -0.93461221449E+00  0.50883694060E+00  0.90007735739E+02  0.89999997051E+02 0.  0.
        -12    1    1    2    0    0  0.51049848338E+00  0.93461221449E+00 -0.50883694060E+00  0.11802642607E+01  0.00000000000E+00 0.  1.
         11    1    3    3    0    0 -0.10549635449E+02 -0.42551630640E+01 -0.52524710391E+00  0.11387585591E+02  0.51100000000E-03 0. -1.
        -11    1    3    3    0    0  0.35065459324E+02 -0.20238459354E+02  0.12524316066E+02  0.42379714107E+02  0.51100000000E-03 0.  1.
         12    1    3    3    0    0 -0.25026322359E+02  0.23559010203E+02 -0.11490232021E+02  0.36240436041E+02  0.00000000000E+00 0. -1.
</event>
<event>
 7    1  0.5158441E-015  0.9000781E+02  0.7816164E-02  0.1186339E+00
        -11   -1    0    0    0    0  0.00000000000E+00  0.00000000000E+00  0.45593999997E+02  0.45594000000E+02  0.51100000000E-03 0.  1.
         11   -1    0    0    0    0 -0.00000000000E+00 -0.00000000000E+00 -0.45593999997E+02  0.45594000000E+02  0.51100000000E-03 0. -1.
    9900012    2    1    2    0    0  0.18944037662E+00 -0.82948737185E+00 -0.81787700266E+00  0.90007805208E+02  0.90000067436E+02 0.  0.
        -12    1    1    2    0    0 -0.18944037662E+00  0.82948737185E+00  0.81787700266E+00  0.11801947923E+01  0.00000000000E+00 0.  1.
         11    1    3    3    0    0  0.17008619896E+02  0.35368698874E+01  0.28680741911E+01  0.17607624746E+02  0.51100000000E-03 0. -1.
        -11    1    3    3    0    0  0.51732470064E+01 -0.31176694282E+02  0.12684667136E+02  0.34053627289E+02  0.51100000000E-03 0.  1.
         12    1    3    3    0    0 -0.21992426526E+02  0.26810337022E+02 -0.16370618330E+02  0.38346553173E+02  0.00000000000E+00 0. -1.
</event>
<event>
 7    1  0.5158441E-015  0.9000771E+02  0.7816164E-02  0.1186339E+00
        -11   -1    0    0    0    0  0.00000000000E+00  0.00000000000E+00  0.45593999997E+02  0.45594000000E+02  0.51100000000E-03 0. -1.
         11   -1    0    0    0    0 -0.00000000000E+00 -0.00000000000E+00 -0.45593999997E+02  0.45594000000E+02  0.51100000000E-03 0.  1.
    9900012    2    1    2    0    0 -0.11266245518E+01  0.12823421721E+00  0.32764254172E+00  0.90007713369E+02  0.89999974386E+02 0.  0.
        -12    1    1    2    0    0  0.11266245518E+01 -0.12823421721E+00 -0.32764254172E+00  0.11802866305E+01  0.00000000000E+00 0.  1.
         11    1    3    3    0    0  0.13536973260E+02  0.14438230920E+02  0.31515848008E+02  0.37215061911E+02  0.51100000000E-03 0. -1.
        -11    1    3    3    0    0 -0.36209412400E+01  0.52664910949E+01  0.63695493190E+01  0.90232091134E+01  0.51100000000E-03 0.  1.
        -12    1    3    3    0    0 -0.11042656572E+02 -0.19576487798E+02 -0.37557754785E+02  0.43769442345E+02  0.00000000000E+00 0.  1.
</event>
<event>
 7    1  0.5665590E-015  0.9000772E+02  0.7816164E-02  0.1186339E+00
        -11   -1    0    0    0    0  0.00000000000E+00  0.00000000000E+00  0.45593999997E+02  0.45594000000E+02  0.51100000000E-03 0.  1.
         11   -1    0    0    0    0 -0.00000000000E+00 -0.00000000000E+00 -0.45593999997E+02  0.45594000000E+02  0.51100000000E-03 0. -1.
    9900012    2    1    2    0    0  0.36858792215E+00  0.98334383301E+00 -0.53874089765E+00  0.90007718718E+02  0.89999979805E+02 0.  0.
        -12    1    1    2    0    0 -0.36858792215E+00 -0.98334383301E+00  0.53874089765E+00  0.11802812822E+01  0.00000000000E+00 0.  1.
         11    1    3    3    0    0 -0.24801937039E+02 -0.38866825334E+01 -0.29314536137E+02  0.38595134554E+02  0.51100000000E-03 0. -1.
        -11    1    3    3    0    0 -0.78529193085E+01 -0.33535327187E+01  0.49596778799E+01  0.98748634570E+01  0.51100000000E-03 0.  1.
        -12    1    3    3    0    0  0.33023444270E+02  0.82235590852E+01  0.23816117360E+02  0.41537720707E+02  0.00000000000E+00 0.  1.
</event>
<event>
 7    1  0.5158441E-015  0.9000762E+02  0.7816164E-02  0.1186339E+00
        -11   -1    0    0    0    0  0.00000000000E+00  0.00000000000E+00  0.45593999997E+02  0.45594000000E+02  0.51100000000E-03 0.  1.
         11   -1    0    0    0    0 -0.00000000000E+00 -0.00000000000E+00 -0.45593999997E+02  0.45594000000E+02  0.51100000000E-03 0. -1.
    9900012    2    1    2    0    0  0.83172868708E+00  0.35411161665E+00 -0.75903790357E+00  0.90007616086E+02  0.89999875818E+02 0.  0.
        -12    1    1    2    0    0 -0.83172868708E+00 -0.35411161665E+00  0.75903790357E+00  0.11803839142E+01  0.00000000000E+00 0.  1.
         11    1    3    3    0    0 -0.33177282497E+02  0.18007714957E+02  0.10743317978E+02  0.39248296183E+02  0.51100000000E-03 0. -1.
        -11    1    3    3    0    0  0.26198418681E+01  0.82426291258E+01 -0.81926169332E+00  0.86876749653E+01  0.51100000000E-03 0.  1.
        -12    1    3    3    0    0  0.31389169316E+02 -0.25896232467E+02 -0.10683094188E+02  0.42071644937E+02  0.00000000000E+00 0.  1.
</event>
<event>
 7    1  0.5158441E-015  0.9000773E+02  0.7816164E-02  0.1186339E+00
        -11   -1    0    0    0    0  0.00000000000E+00  0.00000000000E+00  0.45593999997E+02  0.45594000000E+02  0.51100000000E-03 0.  1.
         11   -1    0    0    0    0 -0.00000000000E+00 -0.00000000000E+00 -0.45593999997E+02  0.45594000000E+02  0.51100000000E-03 0. -1.
    9900012    2    1    2    0    0 -0.88207442699E+00 -0.14391187810E+00 -0.77089727892E+00  0.90007725228E+02  0.89999986401E+02 0.  0.
        -12    1    1    2    0    0  0.88207442699E+00  0.14391187810E+00  0.77089727892E+00  0.11802747723E+01  0.00000000000E+00 0.  1.
         11    1    3    3    0    0  0.27545716686E+02 -0.17128774145E+02 -0.25752113475E+02  0.41416575911E+02  0.51100000000E-03 0. -1.
        -11    1    3    3    0    0 -0.73172593554E+01 -0.22613388671E+01 -0.33485430092E+01  0.83587486200E+01  0.51100000000E-03 0.  1.
        -12    1    3    3    0    0 -0.21110531758E+02  0.19246201134E+02  0.28329759205E+02  0.40232400697E+02  0.00000000000E+00 0.  1.
</event>
<event>
 7    1  0.5158441E-015  0.9000780E+02  0.7816164E-02  0.1186339E+00
        -11   -1    0    0    0    0  0.00000000000E+00  0.00000000000E+00  0.45593999997E+02  0.45594000000E+02  0.51100000000E-03 0. -1.
         11   -1    0    0    0    0 -0.00000000000E+00 -0.00000000000E+00 -0.45593999997E+02  0.45594000000E+02  0.51100000000E-03 0.  1.
    9900012    2    1    2    0    0 -0.45199861764E+00 -0.64363449893E+00  0.87994751749E+00  0.90007798427E+02  0.90000060567E+02 0.  0.
        -12    1    1    2    0    0  0.45199861764E+00  0.64363449893E+00 -0.87994751749E+00  0.11802015727E+01  0.00000000000E+00 0.  1.
         11    1    3    3    0    0 -0.92328143658E+01 -0.29782467312E+01 -0.30618058952E+01  0.10172977455E+02  0.51100000000E-03 0. -1.
        -11    1    3    3    0    0  0.20228816293E+02 -0.20925619887E+02 -0.26839383113E+02  0.39590896206E+02  0.51100000000E-03 0.  1.
         12    1    3    3    0    0 -0.11448000545E+02  0.23260232119E+02  0.30781136526E+02  0.40243924766E+02  0.00000000000E+00 0. -1.
</event>
<event>
 7    1  0.5158441E-015  0.9000778E+02  0.7816164E-02  0.1186339E+00
        -11   -1    0    0    0    0  0.00000000000E+00  0.00000000000E+00  0.45593999997E+02  0.45594000000E+02  0.51100000000E-03 0.  1.
         11   -1    0    0    0    0 -0.00000000000E+00 -0.00000000000E+00 -0.45593999997E+02  0.45594000000E+02  0.51100000000E-03 0. -1.
    9900012    2    1    2    0    0  0.57905353927E+00  0.95597677085E+00 -0.37910308686E+00  0.90007782334E+02  0.90000044261E+02 0.  0.
        -12    1    1    2    0    0 -0.57905353927E+00 -0.95597677085E+00  0.37910308686E+00  0.11802176656E+01  0.00000000000E+00 0.  1.
         11    1    3    3    0    0  0.48884406721E+01 -0.16241337426E+02  0.50228421760E+01  0.17689172885E+02  0.51100000000E-03 0. -1.
        -11    1    3    3    0    0 -0.56283719363E+01 -0.19871007084E+02  0.18883005221E+02  0.27983984341E+02  0.51100000000E-03 0.  1.
         12    1    3    3    0    0  0.13189848035E+01  0.37068321280E+02 -0.24284950484E+02  0.44334625108E+02  0.00000000000E+00 0. -1.
</event>
<event>
 7    1  0.5158441E-015  0.9000769E+02  0.7816164E-02  0.1186339E+00
        -11   -1    0    0    0    0  0.00000000000E+00  0.00000000000E+00  0.45593999997E+02  0.45594000000E+02  0.51100000000E-03 0.  1.
         11   -1    0    0    0    0 -0.00000000000E+00 -0.00000000000E+00 -0.45593999997E+02  0.45594000000E+02  0.51100000000E-03 0. -1.
    9900012    2    1    2    0    0  0.39814001874E+00 -0.11031740743E+01 -0.13277098795E+00  0.90007687902E+02  0.89999948583E+02 0.  0.
        -12    1    1    2    0    0 -0.39814001874E+00  0.11031740743E+01  0.13277098795E+00  0.11803120977E+01  0.00000000000E+00 0.  1.
         11    1    3    3    0    0  0.67499195902E+01 -0.23130561049E+01  0.44487113424E+01  0.84084883236E+01  0.51100000000E-03 0. -1.
        -11    1    3    3    0    0  0.17750802369E+02 -0.11793772151E+02  0.30428896639E+02  0.37149721361E+02  0.51100000000E-03 0.  1.
         12    1    3    3    0    0 -0.24102581941E+02  0.13003654181E+02 -0.35010378969E+02  0.44449478218E+02  0.00000000000E+00 0. -1.
</event>
<event>
 7    1  0.5158441E-015  0.9000781E+02  0.7816164E-02  0.1186339E+00
        -11   -1    0    0    0    0  0.00000000000E+00  0.00000000000E+00  0.45593999997E+02  0.45594000000E+02  0.51100000000E-03 0.  1.
         11   -1    0    0    0    0 -0.00000000000E+00 -0.00000000000E+00 -0.45593999997E+02  0.45594000000E+02  0.51100000000E-03 0. -1.
    9900012    2    1    2    0    0  0.10697545702E+01  0.49774520425E+00 -0.27055707491E-01  0.90007806312E+02  0.90000068556E+02 0.  0.
        -12    1    1    2    0    0 -0.10697545702E+01 -0.49774520425E+00  0.27055707491E-01  0.11801936875E+01  0.00000000000E+00 0.  1.
         11    1    3    3    0    0  0.21483594439E+02 -0.30119392573E+02  0.48185072360E+01  0.37308720847E+02  0.51100000000E-03 0. -1.
        -11    1    3    3    0    0  0.55092024461E+01 -0.34534210935E+01  0.56568014650E+01  0.86184007749E+01  0.51100000000E-03 0.  1.
        -12    1    3    3    0    0 -0.25923042314E+02  0.34070558871E+02 -0.10502364409E+02  0.44080684691E+02  0.00000000000E+00 0.  1.
</event>
<event>
 7    1  0.5158441E-015  0.9000781E+02  0.7816164E-02  0.1186339E+00
        -11   -1    0    0    0    0  0.00000000000E+00  0.00000000000E+00  0.45593999997E+02  0.45594000000E+02  0.51100000000E-03 0. -1.
         11   -1    0    0    0    0 -0.00000000000E+00 -0.00000000000E+00 -0.45593999997E+02  0.45594000000E+02  0.51100000000E-03 0.  1.
    9900012    2    1    2    0    0  0.94459724542E+00 -0.61969688230E+00 -0.34141598281E+00  0.90007808043E+02  0.90000070309E+02 0.  0.
        -12    1    1    2    0    0 -0.94459724542E+00  0.61969688230E+00  0.34141598281E+00  0.11801919570E+01  0.00000000000E+00 0.  1.
         11    1    3    3    0    0 -0.17859730399E+02  0.21807468517E+02  0.29863582331E+02  0.41065425883E+02  0.51100000000E-03 0. -1.
        -11    1    3    3    0    0 -0.41215691451E+01 -0.82724701884E+01 -0.11439325620E+01  0.93128769563E+01  0.51100000000E-03 0.  1.
        -12    1    3    3    0    0  0.22925896790E+02 -0.14154695210E+02 -0.29061065751E+02  0.39629505204E+02  0.00000000000E+00 0.  1.
</event>
<event>
 7    1  0.5158441E-015  0.9000737E+02  0.7816164E-02  0.1186340E+00
        -11   -1    0    0    0    0  0.00000000000E+00  0.00000000000E+00  0.45593999997E+02  0.45594000000E+02  0.51100000000E-03 0. -1.
         11   -1    0    0    0    0 -0.00000000000E+00 -0.00000000000E+00 -0.45593999997E+02  0.45594000000E+02  0.51100000000E-03 0.  1.
    9900012    2    1    2    0    0  0.49359412516E+00  0.24690105837E+00  0.10436896068E+01  0.90007371655E+02  0.89999628160E+02 0.  0.
        -12    1    1    2    0    0 -0.49359412516E+00 -0.24690105837E+00 -0.10436896068E+01  0.11806283447E+01  0.00000000000E+00 0.  1.
         11    1    3    3    0    0 -0.78530075944E+01 -0.40303113784E+01  0.73360480973E+01  0.11477401275E+02  0.51100000000E-03 0. -1.
        -11    1    3    3    0    0 -0.29564412228E+02  0.70827330091E+01 -0.21867090816E+02  0.37448487797E+02  0.51100000000E-03 0.  1.
         12    1    3    3    0    0  0.37911013947E+02 -0.28055205723E+01  0.15574732326E+02  0.41081482583E+02  0.00000000000E+00 0. -1.
</event>
<event>
 7    1  0.5158441E-015  0.9000750E+02  0.7816164E-02  0.1186340E+00
        -11   -1    0    0    0    0  0.00000000000E+00  0.00000000000E+00  0.45593999997E+02  0.45594000000E+02  0.51100000000E-03 0.  1.
         11   -1    0    0    0    0 -0.00000000000E+00 -0.00000000000E+00 -0.45593999997E+02  0.45594000000E+02  0.51100000000E-03 0. -1.
    9900012    2    1    2    0    0 -0.92879439484E+00  0.71844956542E+00  0.12149134416E+00  0.90007496314E+02  0.89999754465E+02 0.  0.
        -12    1    1    2    0    0  0.92879439484E+00 -0.71844956542E+00 -0.12149134416E+00  0.11805036860E+01  0.00000000000E+00 0.  1.
         11    1    3    3    0    0 -0.14521166913E+01  0.97704942048E+01 -0.33574334705E+02  0.34997244907E+02  0.51100000000E-03 0. -1.
        -11    1    3    3    0    0 -0.38001246282E+00  0.41779748727E+01 -0.92000469969E+01  0.10111416741E+02  0.51100000000E-03 0.  1.
        -12    1    3    3    0    0  0.90333475930E+00 -0.13230019512E+02  0.42895873046E+02  0.44898834666E+02  0.00000000000E+00 0.  1.
</event>
<event>
 7    1  0.5158441E-015  0.9000779E+02  0.7816164E-02  0.1186339E+00
        -11   -1    0    0    0    0  0.00000000000E+00  0.00000000000E+00  0.45593999997E+02  0.45594000000E+02  0.51100000000E-03 0.  1.
         11   -1    0    0    0    0 -0.00000000000E+00 -0.00000000000E+00 -0.45593999997E+02  0.45594000000E+02  0.51100000000E-03 0. -1.
    9900012    2    1    2    0    0 -0.75898397421E+00 -0.39510218488E+00 -0.81285512789E+00  0.90007789905E+02  0.90000051932E+02 0.  0.
        -12    1    1    2    0    0  0.75898397421E+00  0.39510218488E+00  0.81285512789E+00  0.11802100951E+01  0.00000000000E+00 0.  1.
         11    1    3    3    0    0  0.11747374598E+02  0.29841480000E+01  0.44285290516E+01  0.12904178357E+02  0.51100000000E-03 0. -1.
        -11    1    3    3    0    0 -0.15916888263E+02 -0.14757379401E+02  0.31632754444E+02  0.38363507826E+02  0.51100000000E-03 0.  1.
         12    1    3    3    0    0  0.34105296910E+01  0.11378129216E+02 -0.36874138623E+02  0.38740103722E+02  0.00000000000E+00 0. -1.
</event>
<event>
 7    1  0.5158441E-015  0.9000777E+02  0.7816164E-02  0.1186339E+00
        -11   -1    0    0    0    0  0.00000000000E+00  0.00000000000E+00  0.45593999997E+02  0.45594000000E+02  0.51100000000E-03 0.  1.
         11   -1    0    0    0    0 -0.00000000000E+00 -0.00000000000E+00 -0.45593999997E+02  0.45594000000E+02  0.51100000000E-03 0. -1.
    9900012    2    1    2    0    0  0.68182621160E+00 -0.26851539950E+00 -0.92518334952E+00  0.90007766238E+02  0.90000027952E+02 0.  0.
        -12    1    1    2    0    0 -0.68182621160E+00  0.26851539950E+00  0.92518334952E+00  0.11802337619E+01  0.00000000000E+00 0.  1.
         11    1    3    3    0    0  0.95883480426E+01  0.30442922033E+01 -0.38289390526E+02  0.39588907036E+02  0.51100000000E-03 0. -1.
        -11    1    3    3    0    0 -0.96242220527E+01  0.49584877985E+01 -0.12717796897E+01  0.10900902495E+02  0.51100000000E-03 0.  1.
        -12    1    3    3    0    0  0.71770022173E+00 -0.82712954014E+01  0.38635986866E+02  0.39517956707E+02  0.00000000000E+00 0.  1.
</event>
<event>
 7    1  0.5158441E-015  0.9000763E+02  0.7816164E-02  0.1186339E+00
        -11   -1    0    0    0    0  0.00000000000E+00  0.00000000000E+00  0.45593999997E+02  0.45594000000E+02  0.51100000000E-03 0.  1.
         11   -1    0    0    0    0 -0.00000000000E+00 -0.00000000000E+00 -0.45593999997E+02  0.45594000000E+02  0.51100000000E-03 0. -1.
    9900012    2    1    2    0    0 -0.69651719018E+00 -0.16328127214E+00 -0.93886964681E+00  0.90007630065E+02  0.89999889982E+02 0.  0.
        -12    1    1    2    0    0  0.69651719018E+00  0.16328127214E+00  0.93886964681E+00  0.11803699351E+01  0.00000000000E+00 0.  1.
         11    1    3    3    0    0  0.41375289161E+00  0.83310885955E+01 -0.15455066910E+01  0.84833259890E+01  0.51100000000E-03 0. -1.
        -11    1    3    3    0    0  0.25997813280E+02  0.25511095067E+02  0.83082140880E+01  0.37359452464E+02  0.51100000000E-03 0.  1.
         12    1    3    3    0    0 -0.27108083361E+02 -0.34005464934E+02 -0.77015770439E+01  0.44164851612E+02  0.00000000000E+00 0. -1.
</event>
<event>
 7    1  0.5158441E-015  0.9000770E+02  0.7816164E-02  0.1186339E+00
        -11   -1    0    0    0    0  0.00000000000E+00  0.00000000000E+00  0.45593999997E+02  0.45594000000E+02  0.51100000000E-03 0. -1.
         11   -1    0    0    0    0 -0.00000000000E+00 -0.00000000000E+00 -0.45593999997E+02  0.45594000000E+02  0.51100000000E-03 0.  1.
    9900012    2    1    2    0    0 -0.63406404276E+00 -0.36320927726E+00  0.92690434560E+00  0.90007699252E+02  0.89999960082E+02 0.  0.
        -12    1    1    2    0    0  0.63406404276E+00  0.36320927726E+00 -0.92690434560E+00  0.11803007478E+01  0.00000000000E+00 0.  1.
         11    1    3    3    0    0  0.14296827705E+02  0.88744847406E+01  0.60577644724E+01  0.17884414234E+02  0.51100000000E-03 0. -1.
        -11    1    3    3    0    0  0.43493049512E+01 -0.23965652330E+02 -0.29147478342E+02  0.37984792209E+02  0.51100000000E-03 0.  1.
         12    1    3    3    0    0 -0.19280196699E+02  0.14727958313E+02  0.24016618215E+02  0.34138492809E+02  0.00000000000E+00 0. -1.
</event>
<event>
 7    1  0.5158441E-015  0.9000772E+02  0.7816164E-02  0.1186339E+00
        -11   -1    0    0    0    0  0.00000000000E+00  0.00000000000E+00  0.45593999997E+02  0.45594000000E+02  0.51100000000E-03 0. -1.
         11   -1    0    0    0    0 -0.00000000000E+00 -0.00000000000E+00 -0.45593999997E+02  0.45594000000E+02  0.51100000000E-03 0.  1.
    9900012    2    1    2    0    0 -0.54029117581E+00 -0.48855211127E+00  0.92868331717E+00  0.90007724429E+02  0.89999985591E+02 0.  0.
        -12    1    1    2    0    0  0.54029117581E+00  0.48855211127E+00 -0.92868331717E+00  0.11802755711E+01  0.00000000000E+00 0.  1.
         11    1    3    3    0    0 -0.23929797229E+02  0.72364760102E+01  0.35572652504E+02  0.43478907379E+02  0.51100000000E-03 0. -1.
        -11    1    3    3    0    0  0.16750380663E+00 -0.68796676815E+01 -0.36456322875E+01  0.77877159662E+01  0.51100000000E-03 0.  1.
        -12    1    3    3    0    0  0.23222002247E+02 -0.84536043989E+00 -0.30998336899E+02  0.38741101083E+02  0.00000000000E+00 0.  1.
</event>
<event>
 7    1  0.5158441E-015  0.9000764E+02  0.7816164E-02  0.1186339E+00
        -11   -1    0    0    0    0  0.00000000000E+00  0.00000000000E+00  0.45593999997E+02  0.45594000000E+02  0.51100000000E-03 0.  1.
         11   -1    0    0    0    0 -0.00000000000E+00 -0.00000000000E+00 -0.45593999997E+02  0.45594000000E+02  0.51100000000E-03 0. -1.
    9900012    2    1    2    0    0  0.26517245690E-01  0.73033120630E-01 -0.11777959349E+01  0.90007644009E+02  0.89999904110E+02 0.  0.
        -12    1    1    2    0    0 -0.26517245690E-01 -0.73033120630E-01  0.11777959349E+01  0.11803559910E+01  0.00000000000E+00 0.  1.
         11    1    3    3    0    0 -0.78554842408E+01 -0.80271811870E+01  0.33278133261E+01  0.11714034841E+02  0.51100000000E-03 0. -1.
        -11    1    3    3    0    0  0.71800783640E+01  0.10409801873E+02  0.35773175928E+02  0.37942556801E+02  0.51100000000E-03 0.  1.
         12    1    3    3    0    0  0.70192312253E+00 -0.23095875657E+01 -0.40278785189E+02  0.40351052367E+02  0.00000000000E+00 0. -1.
</event>
<event>
 7    1  0.5158441E-015  0.9000736E+02  0.7816164E-02  0.1186340E+00
        -11   -1    0    0    0    0  0.00000000000E+00  0.00000000000E+00  0.45593999997E+02  0.45594000000E+02  0.51100000000E-03 0.  1.
         11   -1    0    0    0    0 -0.00000000000E+00 -0.00000000000E+00 -0.45593999997E+02  0.45594000000E+02  0.51100000000E-03 0. -1.
    9900012    2    1    2    0    0 -0.82332472814E-01  0.24558849724E+00 -0.11518779838E+01  0.90007358126E+02  0.89999614452E+02 0.  0.
        -12    1    1    2    0    0  0.82332472814E-01 -0.24558849724E+00  0.11518779838E+01  0.11806418744E+01  0.00000000000E+00 0.  1.
         11    1    3    3    0    0  0.32678161900E+02 -0.20156490069E+02 -0.13429221193E+01  0.38418092055E+02  0.51100000000E-03 0. -1.
        -11    1    3    3    0    0  0.77787493092E+00 -0.40588548381E+01 -0.82514125364E+01  0.92284993965E+01  0.51100000000E-03 0.  1.
        -12    1    3    3    0    0 -0.33538369304E+02  0.24460933404E+02  0.84424566719E+01  0.42360766674E+02  0.00000000000E+00 0.  1.
</event>
<event>
 7    1  0.5158441E-015  0.9000771E+02  0.7816164E-02  0.1186339E+00
        -11   -1    0    0    0    0  0.00000000000E+00  0.00000000000E+00  0.45593999997E+02  0.45594000000E+02  0.51100000000E-03 0. -1.
         11   -1    0    0    0    0 -0.00000000000E+00 -0.00000000000E+00 -0.45593999997E+02  0.45594000000E+02  0.51100000000E-03 0.  1.
    9900012    2    1    2    0    0  0.76995065462E+00  0.17449370097E+00  0.87739487108E+00  0.90007706044E+02  0.89999966964E+02 0.  0.
        -12    1    1    2    0    0 -0.76995065462E+00 -0.17449370097E+00 -0.87739487108E+00  0.11802939558E+01  0.00000000000E+00 0.  1.
         11    1    3    3    0    0  0.58376812262E+01  0.36755135691E+02 -0.12046436619E+02  0.39116942074E+02  0.51100000000E-03 0. -1.
        -11    1    3    3    0    0 -0.19572802618E+01  0.76718060197E+00 -0.77910734076E+01  0.80697172938E+01  0.51100000000E-03 0.  1.
        -12    1    3    3    0    0 -0.31104503098E+01 -0.37347822592E+02  0.20714904897E+02  0.42821046676E+02  0.00000000000E+00 0.  1.
</event>
<event>
 7    1  0.5158441E-015  0.9000777E+02  0.7816164E-02  0.1186339E+00
        -11   -1    0    0    0    0  0.00000000000E+00  0.00000000000E+00  0.45593999997E+02  0.45594000000E+02  0.51100000000E-03 0.  1.
         11   -1    0    0    0    0 -0.00000000000E+00 -0.00000000000E+00 -0.45593999997E+02  0.45594000000E+02  0.51100000000E-03 0. -1.
    9900012    2    1    2    0    0  0.37334264878E+00 -0.11025339822E+01  0.19485483303E+00  0.90007773614E+02  0.90000035426E+02 0.  0.
        -12    1    1    2    0    0 -0.37334264878E+00  0.11025339822E+01 -0.19485483303E+00  0.11802263856E+01  0.00000000000E+00 0.  1.
         11    1    3    3    0    0  0.30472663472E+02 -0.15624542091E+01 -0.49861907079E+01  0.30917415485E+02  0.51100000000E-03 0. -1.
        -11    1    3    3    0    0 -0.11436019746E+02 -0.29132077384E-01 -0.22768302053E+02  0.25478990854E+02  0.51100000000E-03 0.  1.
        -12    1    3    3    0    0 -0.18663301077E+02  0.48905230431E+00  0.27949347594E+02  0.33611367276E+02  0.00000000000E+00 0.  1.
</event>
<event>
 7    1  0.5158441E-015  0.9000781E+02  0.7816164E-02  0.1186339E+00
        -11   -1    0    0    0    0  0.00000000000E+00  0.00000000000E+00  0.45593999997E+02  0.45594000000E+02  0.51100000000E-03 0. -1.
         11   -1    0    0    0    0 -0.00000000000E+00 -0.00000000000E+00 -0.45593999997E+02  0.45594000000E+02  0.51100000000E-03 0.  1.
    9900012    2    1    2    0    0 -0.11072030195E+01  0.35894041941E+00  0.19521791516E+00  0.90007810699E+02  0.90000073000E+02 0.  0.
        -12    1    1    2    0    0  0.11072030195E+01 -0.35894041941E+00 -0.19521791516E+00  0.11801893007E+01  0.00000000000E+00 0.  1.
         11    1    3    3    0    0  0.98209958599E+01 -0.21033145331E+02  0.24547044998E+01  0.23342466379E+02  0.51100000000E-03 0. -1.
        -11    1    3    3    0    0  0.70885293478E+01 -0.75502319476E+01 -0.24063304361E+02  0.26197249241E+02  0.51100000000E-03 0.  1.
         12    1    3    3    0    0 -0.18016728227E+02  0.28942317698E+02  0.21803817776E+02  0.40468095080E+02  0.00000000000E+00 0. -1.
</event>
<event>
 7    1  0.5158441E-015  0.9000722E+02  0.7816164E-02  0.1186340E+00
        -11   -1    0    0    0    0  0.00000000000E+00  0.00000000000E+00  0.45593999997E+02  0.45594000000E+02  0.51100000000E-03 0. -1.
         11   -1    0    0    0    0 -0.00000000000E+00 -0.00000000000E+00 -0.45593999997E+02  0.45594000000E+02  0.51100000000E-03 0.  1.
    9900012    2    1    2    0    0  0.63809947468E+00  0.50585860855E+00 -0.85509559756E+00  0.90007215366E+02  0.89999469807E+02 0.  0.
        -12    1    1    2    0    0 -0.63809947468E+00 -0.50585860855E+00  0.85509559756E+00  0.11807846342E+01  0.00000000000E+00 0.  1.
         11    1    3    3    0    0 -0.19805078722E+02  0.29370647844E+02  0.28701866967E+01  0.35540316119E+02  0.51100000000E-03 0. -1.
        -11    1    3    3    0    0 -0.75355288217E+01  0.53295289856E+01 -0.45212027771E+01  0.10277613957E+02  0.51100000000E-03 0.  1.
        -12    1    3    3    0    0  0.27978707018E+02 -0.34194318221E+02  0.79592048286E+00  0.44189285290E+02  0.00000000000E+00 0.  1.
</event>
<event>
 7    1  0.5158441E-015  0.9000770E+02  0.7816164E-02  0.1186339E+00
        -11   -1    0    0    0    0  0.00000000000E+00  0.00000000000E+00  0.45593999997E+02  0.45594000000E+02  0.51100000000E-03 0.  1.
         11   -1    0    0    0    0 -0.00000000000E+00 -0.00000000000E+00 -0.45593999997E+02  0.45594000000E+02  0.51100000000E-03 0. -1.
    9900012    2    1    2    0    0  0.90560947512E+00  0.29395428202E+00  0.69754926785E+00  0.90007698080E+02  0.89999958895E+02 0.  0.
        -12    1    1    2    0    0 -0.90560947512E+00 -0.29395428202E+00 -0.69754926785E+00  0.11803019200E+01  0.00000000000E+00 0.  1.
         11    1    3    3    0    0  0.78819466273E+01 -0.78170952350E+00  0.55791198414E+01  0.96882780142E+01  0.51100000000E-03 0. -1.
        -11    1    3    3    0    0 -0.16868701927E+01  0.18816619013E+00  0.37530854792E+02  0.37569216112E+02  0.51100000000E-03 0.  1.
         12    1    3    3    0    0 -0.52894669595E+01  0.88749761539E+00 -0.42412425366E+02  0.42750203954E+02  0.00000000000E+00 0. -1.
</event>
<event>
 7    1  0.5158441E-015  0.9000772E+02  0.7816164E-02  0.1186339E+00
        -11   -1    0    0    0    0  0.00000000000E+00  0.00000000000E+00  0.45593999997E+02  0.45594000000E+02  0.51100000000E-03 0. -1.
         11   -1    0    0    0    0 -0.00000000000E+00 -0.00000000000E+00 -0.45593999997E+02  0.45594000000E+02  0.51100000000E-03 0.  1.
    9900012    2    1    2    0    0 -0.25611057226E+00  0.38072049436E+00  0.10874411502E+01  0.90007716570E+02  0.89999977629E+02 0.  0.
        -12    1    1    2    0    0  0.25611057226E+00 -0.38072049436E+00 -0.10874411502E+01  0.11802834300E+01  0.00000000000E+00 0.  1.
         11    1    3    3    0    0 -0.74091869715E+01  0.54801382871E+01  0.18885409788E+01  0.94071544323E+01  0.51100000000E-03 0. -1.
        -11    1    3    3    0    0 -0.36007208537E+02 -0.51479699651E+01  0.61330238786E+01  0.36886781420E+02  0.51100000000E-03 0.  1.
         12    1    3    3    0    0  0.43160284936E+02  0.48552172325E-01 -0.69341237072E+01  0.43713780718E+02  0.00000000000E+00 0. -1.
</event>
<event>
 7    1  0.5158441E-015  0.9000893E+02  0.7816164E-02  0.1186337E+00
        -11   -1    0    0    0    0  0.00000000000E+00  0.00000000000E+00  0.45593999997E+02  0.45594000000E+02  0.51100000000E-03 0.  1.
         11   -1    0    0    0    0 -0.00000000000E+00 -0.00000000000E+00 -0.45593999997E+02  0.45594000000E+02  0.51100000000E-03 0. -1.
    9900012    2    1    2    0    0 -0.31305372381E+00 -0.11307498688E+01 -0.11663222978E+00  0.90008932158E+02  0.90001209254E+02 0.  0.
        -12    1    1    2    0    0  0.31305372381E+00  0.11307498688E+01  0.11663222978E+00  0.11790678423E+01  0.00000000000E+00 0.  1.
         11    1    3    3    0    0 -0.13246206434E+01  0.65017908462E+01  0.43652889706E+01  0.79425217730E+01  0.51100000000E-03 0. -1.
        -11    1    3    3    0    0 -0.29534259018E+02  0.11514253911E+02  0.20906790212E+02  0.37972942684E+02  0.51100000000E-03 0.  1.
         12    1    3    3    0    0  0.30545825938E+02 -0.19146794626E+02 -0.25388711412E+02  0.44093467700E+02  0.00000000000E+00 0. -1.
</event>
<event>
 7    1  0.5158441E-015  0.9000778E+02  0.7816164E-02  0.1186339E+00
        -11   -1    0    0    0    0  0.00000000000E+00  0.00000000000E+00  0.45593999997E+02  0.45594000000E+02  0.51100000000E-03 0. -1.
         11   -1    0    0    0    0 -0.00000000000E+00 -0.00000000000E+00 -0.45593999997E+02  0.45594000000E+02  0.51100000000E-03 0.  1.
    9900012    2    1    2    0    0  0.37658216316E+00 -0.35446419237E+00  0.10608755572E+01  0.90007781403E+02  0.90000043317E+02 0.  0.
        -12    1    1    2    0    0 -0.37658216316E+00  0.35446419237E+00 -0.10608755572E+01  0.11802185972E+01  0.00000000000E+00 0.  1.
         11    1    3    3    0    0  0.43949197322E+01 -0.10242901464E+02  0.23181123279E+01  0.11384462872E+02  0.51100000000E-03 0. -1.
        -11    1    3    3    0    0  0.19244253596E+02  0.20390093334E+02 -0.29403251932E+02  0.40628172825E+02  0.51100000000E-03 0.  1.
         12    1    3    3    0    0 -0.23262591165E+02 -0.10501656062E+02  0.28146015161E+02  0.37995145706E+02  0.00000000000E+00 0. -1.
</event>
<event>
 7    1  0.5158441E-015  0.9000774E+02  0.7816164E-02  0.1186339E+00
        -11   -1    0    0    0    0  0.00000000000E+00  0.00000000000E+00  0.45593999997E+02  0.45594000000E+02  0.51100000000E-03 0.  1.
         11   -1    0    0    0    0 -0.00000000000E+00 -0.00000000000E+00 -0.45593999997E+02  0.45594000000E+02  0.51100000000E-03 0. -1.
    9900012    2    1    2    0    0  0.75107554290E+00 -0.81869219097E+00 -0.39829090719E+00  0.90007742816E+02  0.90000004221E+02 0.  0.
        -12    1    1    2    0    0 -0.75107554290E+00  0.81869219097E+00  0.39829090719E+00  0.11802571845E+01  0.00000000000E+00 0.  1.
         11    1    3    3    0    0  0.98346381921E+01 -0.33921428172E+01  0.28615280907E+01  0.10789582223E+02  0.51100000000E-03 0. -1.
        -11    1    3    3    0    0  0.20334533055E+01 -0.20620326626E+02  0.30441021640E+02  0.36823750505E+02  0.51100000000E-03 0.  1.
         12    1    3    3    0    0 -0.11117015955E+02  0.23193777252E+02 -0.33700840638E+02  0.42394410088E+02  0.00000000000E+00 0. -1.
</event>
<event>
 7    1  0.5158441E-015  0.9000770E+02  0.7816164E-02  0.1186339E+00
        -11   -1    0    0    0    0  0.00000000000E+00  0.00000000000E+00  0.45593999997E+02  0.45594000000E+02  0.51100000000E-03 0. -1.
         11   -1    0    0    0    0 -0.00000000000E+00 -0.00000000000E+00 -0.45593999997E+02  0.45594000000E+02  0.51100000000E-03 0.  1.
    9900012    2    1    2    0    0 -0.10649464389E+01  0.20511950250E+00  0.46574450074E+00  0.90007702212E+02  0.89999963081E+02 0.  0.
        -12    1    1    2    0    0  0.10649464389E+01 -0.20511950250E+00 -0.46574450074E+00  0.11802977878E+01  0.00000000000E+00 0.  1.
         11    1    3    3    0    0 -0.24732388124E+02 -0.27113051237E+02  0.16341228650E+02  0.40172681311E+02  0.51100000000E-03 0. -1.
        -11    1    3    3    0    0  0.84989091074E+00  0.13772221461E+01  0.77915180378E+01  0.79578143353E+01  0.51100000000E-03 0.  1.
        -12    1    3    3    0    0  0.22817550774E+02  0.25940948593E+02 -0.23667002187E+02  0.41877206566E+02  0.00000000000E+00 0.  1.
</event>
<event>
 7    1  0.5158441E-015  0.9000767E+02  0.7816164E-02  0.1186339E+00
        -11   -1    0    0    0    0  0.00000000000E+00  0.00000000000E+00  0.45593999997E+02  0.45594000000E+02  0.51100000000E-03 0.  1.
         11   -1    0    0    0    0 -0.00000000000E+00 -0.00000000000E+00 -0.45593999997E+02  0.45594000000E+02  0.51100000000E-03 0. -1.
    9900012    2    1    2    0    0  0.46043394347E+00  0.92977887661E+00  0.56275383132E+00  0.90007669516E+02  0.89999929954E+02 0.  0.
        -12    1    1    2    0    0 -0.46043394347E+00 -0.92977887661E+00 -0.56275383132E+00  0.11803304835E+01  0.00000000000E+00 0.  1.
         11    1    3    3    0    0 -0.10723209214E+02  0.47459719385E-01  0.38595570559E+01  0.11396738534E+02  0.51100000000E-03 0. -1.
        -11    1    3    3    0    0 -0.21152724600E+02  0.64357070650E+01  0.26345480174E+02  0.34393900757E+02  0.51100000000E-03 0.  1.
         12    1    3    3    0    0  0.32336367757E+02 -0.55533879077E+01 -0.29642283398E+02  0.44217030226E+02  0.00000000000E+00 0. -1.
</event>
<event>
 7    1  0.5158441E-015  0.9000767E+02  0.7816164E-02  0.1186339E+00
        -11   -1    0    0    0    0  0.00000000000E+00  0.00000000000E+00  0.45593999997E+02  0.45594000000E+02  0.51100000000E-03 0.  1.
         11   -1    0    0    0    0 -0.00000000000E+00 -0.00000000000E+00 -0.45593999997E+02  0.45594000000E+02  0.51100000000E-03 0. -1.
    9900012    2    1    2    0    0  0.39757152697E+00  0.10376241777E+01  0.39804555557E+00  0.90007674910E+02  0.89999935419E+02 0.  0.
        -12    1    1    2    0    0 -0.39757152697E+00 -0.10376241777E+01 -0.39804555557E+00  0.11803250898E+01  0.00000000000E+00 0.  1.
         11    1    3    3    0    0 -0.20517603332E+02  0.84838021730E+01 -0.35953397937E+02  0.42256286742E+02  0.51100000000E-03 0. -1.
        -11    1    3    3    0    0  0.67380586714E+01  0.67009294047E+01  0.55317466779E+01  0.10995640550E+02  0.51100000000E-03 0.  1.
        -12    1    3    3    0    0  0.14177116187E+02 -0.14147107400E+02  0.30819696815E+02  0.36755747617E+02  0.00000000000E+00 0.  1.
</event>
<event>
 7    1  0.5158441E-015  0.9000772E+02  0.7816164E-02  0.1186339E+00
        -11   -1    0    0    0    0  0.00000000000E+00  0.00000000000E+00  0.45593999997E+02  0.45594000000E+02  0.51100000000E-03 0.  1.
         11   -1    0    0    0    0 -0.00000000000E+00 -0.00000000000E+00 -0.45593999997E+02  0.45594000000E+02  0.51100000000E-03 0. -1.
    9900012    2    1    2    0    0 -0.38885222213E+00  0.88350979178E+00 -0.67916626840E+00  0.90007719346E+02  0.89999980441E+02 0.  0.
        -12    1    1    2    0    0  0.38885222213E+00 -0.88350979178E+00  0.67916626840E+00  0.11802806543E+01  0.00000000000E+00 0.  1.
         11    1    3    3    0    0  0.14472811791E+02 -0.32847952407E+02 -0.47634015588E+01  0.36209670713E+02  0.51100000000E-03 0. -1.
        -11    1    3    3    0    0  0.82988565541E+00 -0.82456329971E+01 -0.21261968749E+01  0.85556932586E+01  0.51100000000E-03 0.  1.
        -12    1    3    3    0    0 -0.15691549668E+02  0.41977095196E+02  0.62104321653E+01  0.45242355374E+02  0.00000000000E+00 0.  1.
</event>
<event>
 7    1  0.5158441E-015  0.9000776E+02  0.7816164E-02  0.1186339E+00
        -11   -1    0    0    0    0  0.00000000000E+00  0.00000000000E+00  0.45593999997E+02  0.45594000000E+02  0.51100000000E-03 0.  1.
         11   -1    0    0    0    0 -0.00000000000E+00 -0.00000000000E+00 -0.45593999997E+02  0.45594000000E+02  0.51100000000E-03 0. -1.
    9900012    2    1    2    0    0 -0.29058463202E+00 -0.97253593797E+00  0.60224930739E+00  0.90007758581E+02  0.90000020194E+02 0.  0.
        -12    1    1    2    0    0  0.29058463202E+00  0.97253593797E+00 -0.60224930739E+00  0.11802414191E+01  0.00000000000E+00 0.  1.
         11    1    3    3    0    0 -0.36752418942E+02  0.75893812707E+01 -0.15456515527E+02  0.40586240017E+02  0.51100000000E-03 0. -1.
        -11    1    3    3    0    0 -0.20651319382E+01 -0.29607619933E+01  0.92093979536E+01  0.98916071713E+01  0.51100000000E-03 0.  1.
        -12    1    3    3    0    0  0.38526966249E+02 -0.56011552154E+01  0.68493668811E+01  0.39529911393E+02  0.00000000000E+00 0.  1.
</event>
<event>
 7    1  0.5158441E-015  0.9000780E+02  0.7816164E-02  0.1186339E+00
        -11   -1    0    0    0    0  0.00000000000E+00  0.00000000000E+00  0.45593999997E+02  0.45594000000E+02  0.51100000000E-03 0. -1.
         11   -1    0    0    0    0 -0.00000000000E+00 -0.00000000000E+00 -0.45593999997E+02  0.45594000000E+02  0.51100000000E-03 0.  1.
    9900012    2    1    2    0    0 -0.76417639648E+00  0.71397274667E+00 -0.54693981577E+00  0.90007802639E+02  0.90000064834E+02 0.  0.
        -12    1    1    2    0    0  0.76417639648E+00 -0.71397274667E+00  0.54693981577E+00  0.11801973606E+01  0.00000000000E+00 0.  1.
         11    1    3    3    0    0 -0.16035366293E+02  0.97565728252E+01  0.27261660570E+02  0.33098667990E+02  0.51100000000E-03 0. -1.
        -11    1    3    3    0    0 -0.18425282607E+01  0.87368238111E+01  0.89453338563E+01  0.12639066372E+02  0.51100000000E-03 0.  1.
        -12    1    3    3    0    0  0.17113718157E+02 -0.17779423890E+02 -0.36753934242E+02  0.44270068277E+02  0.00000000000E+00 0.  1.
</event>
<event>
 7    1  0.5158441E-015  0.9000892E+02  0.7816164E-02  0.1186337E+00
        -11   -1    0    0    0    0  0.00000000000E+00  0.00000000000E+00  0.45593999997E+02  0.45594000000E+02  0.51100000000E-03 0. -1.
         11   -1    0    0    0    0 -0.00000000000E+00 -0.00000000000E+00 -0.45593999997E+02  0.45594000000E+02  0.51100000000E-03 0.  1.
    9900012    2    1    2    0    0 -0.88913209711E+00  0.25274036902E+00  0.73198231557E+00  0.90008919133E+02  0.90001196058E+02 0.  0.
        -12    1    1    2    0    0  0.88913209711E+00 -0.25274036902E+00 -0.73198231557E+00  0.11790808668E+01  0.00000000000E+00 0.  1.
         11    1    3    3    0    0 -0.36645280045E+02 -0.13773483790E+02  0.11328491235E+02  0.40754387730E+02  0.51100000000E-03 0. -1.
        -11    1    3    3    0    0  0.43489729155E+01 -0.84024035100E+01 -0.29544072591E+01  0.99117340904E+01  0.51100000000E-03 0.  1.
        -12    1    3    3    0    0  0.31407175033E+02  0.22428627669E+02 -0.76421016599E+01  0.39342797313E+02  0.00000000000E+00 0.  1.
</event>
<event>
 7    1  0.5158441E-015  0.9000756E+02  0.7816164E-02  0.1186339E+00
        -11   -1    0    0    0    0  0.00000000000E+00  0.00000000000E+00  0.45593999997E+02  0.45594000000E+02  0.51100000000E-03 0. -1.
         11   -1    0    0    0    0 -0.00000000000E+00 -0.00000000000E+00 -0.45593999997E+02  0.45594000000E+02  0.51100000000E-03 0.  1.
    9900012    2    1    2    0    0 -0.97417213506E+00 -0.66606430302E+00  0.28089348316E-01  0.90007558550E+02  0.89999817523E+02 0.  0.
        -12    1    1    2    0    0  0.97417213506E+00  0.66606430302E+00 -0.28089348316E-01  0.11804414496E+01  0.00000000000E+00 0.  1.
         11    1    3    3    0    0  0.33892646578E+02  0.13810926211E+02  0.10199962810E+02  0.37993320682E+02  0.51100000000E-03 0. -1.
        -11    1    3    3    0    0  0.55641478732E+01 -0.61251483527E+01  0.28060050390E+01  0.87378972549E+01  0.51100000000E-03 0.  1.
        -12    1    3    3    0    0 -0.40430966586E+02 -0.83518421610E+01 -0.12977878501E+02  0.43276340614E+02  0.00000000000E+00 0.  1.
</event>
<event>
 7    1  0.5158441E-015  0.9000770E+02  0.7816164E-02  0.1186339E+00
        -11   -1    0    0    0    0  0.00000000000E+00  0.00000000000E+00  0.45593999997E+02  0.45594000000E+02  0.51100000000E-03 0.  1.
         11   -1    0    0    0    0 -0.00000000000E+00 -0.00000000000E+00 -0.45593999997E+02  0.45594000000E+02  0.51100000000E-03 0. -1.
    9900012    2    1    2    0    0  0.30165946883E+00  0.92758591787E+00 -0.66459694125E+00  0.90007702087E+02  0.89999962954E+02 0.  0.
        -12    1    1    2    0    0 -0.30165946883E+00 -0.92758591787E+00  0.66459694125E+00  0.11802979134E+01  0.00000000000E+00 0.  1.
         11    1    3    3    0    0 -0.11964385234E+02  0.17345293195E+01 -0.58384903576E+00  0.12103552617E+02  0.51100000000E-03 0. -1.
        -11    1    3    3    0    0  0.10012860322E+02 -0.85250077648E+01 -0.37443738489E+02  0.39685849890E+02  0.51100000000E-03 0.  1.
         12    1    3    3    0    0  0.22531843808E+01  0.77180643632E+01  0.37362990584E+02  0.38218299579E+02  0.00000000000E+00 0. -1.
</event>
<event>
 7    1  0.5158441E-015  0.9000771E+02  0.7816164E-02  0.1186339E+00
        -11   -1    0    0    0    0  0.00000000000E+00  0.00000000000E+00  0.45593999997E+02  0.45594000000E+02  0.51100000000E-03 0. -1.
         11   -1    0    0    0    0 -0.00000000000E+00 -0.00000000000E+00 -0.45593999997E+02  0.45594000000E+02  0.51100000000E-03 0.  1.
    9900012    2    1    2    0    0  0.75406592286E-01 -0.44818542508E+00  0.10892762371E+01  0.90007712302E+02  0.89999973304E+02 0.  0.
        -12    1    1    2    0    0 -0.75406592286E-01  0.44818542508E+00 -0.10892762371E+01  0.11802876980E+01  0.00000000000E+00 0.  1.
         11    1    3    3    0    0  0.35788587341E+02  0.20577562938E+01 -0.15870317960E+02  0.39203626583E+02  0.51100000000E-03 0. -1.
        -11    1    3    3    0    0 -0.14273683315E+01 -0.97432785927E+01 -0.32288829418E+01  0.10363133860E+02  0.51100000000E-03 0.  1.
        -12    1    3    3    0    0 -0.34285812417E+02  0.72373368737E+01  0.20188477139E+02  0.40440951859E+02  0.00000000000E+00 0.  1.
</event>
<event>
 7    1  0.5158441E-015  0.9000776E+02  0.7816164E-02  0.1186339E+00
        -11   -1    0    0    0    0  0.00000000000E+00  0.00000000000E+00  0.45593999997E+02  0.45594000000E+02  0.51100000000E-03 0.  1.
         11   -1    0    0    0    0 -0.00000000000E+00 -0.00000000000E+00 -0.45593999997E+02  0.45594000000E+02  0.51100000000E-03 0. -1.
    9900012    2    1    2    0    0 -0.10369631751E+01 -0.55017994680E+00 -0.12240634810E+00  0.90007756841E+02  0.90000018431E+02 0.  0.
        -12    1    1    2    0    0  0.10369631751E+01  0.55017994680E+00  0.12240634810E+00  0.11802431590E+01  0.00000000000E+00 0.  1.
         11    1    3    3    0    0  0.39858433467E+01  0.29589511631E+01 -0.75669677447E+01  0.90499359268E+01  0.51100000000E-03 0. -1.
        -11    1    3    3    0    0  0.36829490921E+02  0.42395116774E+01  0.97451447920E+01  0.38332136753E+02  0.51100000000E-03 0.  1.
         12    1    3    3    0    0 -0.41852297443E+02 -0.77486427873E+01 -0.23005833954E+01  0.42625684161E+02  0.00000000000E+00 0. -1.
</event>
<event>
 7    1  0.5158441E-015  0.9000779E+02  0.7816164E-02  0.1186339E+00
        -11   -1    0    0    0    0  0.00000000000E+00  0.00000000000E+00  0.45593999997E+02  0.45594000000E+02  0.51100000000E-03 0. -1.
         11   -1    0    0    0    0 -0.00000000000E+00 -0.00000000000E+00 -0.45593999997E+02  0.45594000000E+02  0.51100000000E-03 0.  1.
    9900012    2    1    2    0    0  0.11575965315E+01 -0.44748408355E-01 -0.22555473860E+00  0.90007785151E+02  0.90000047115E+02 0.  0.
        -12    1    1    2    0    0 -0.11575965315E+01  0.44748408355E-01  0.22555473860E+00  0.11802148490E+01  0.00000000000E+00 0.  1.
         11    1    3    3    0    0  0.60964019312E+01  0.13358040450E+02  0.18575985596E+02  0.23678483953E+02  0.51100000000E-03 0. -1.
        -11    1    3    3    0    0  0.37873476187E+01  0.18564423576E+02 -0.26242389718E+02  0.32367342231E+02  0.51100000000E-03 0.  1.
        -12    1    3    3    0    0 -0.87261530184E+01 -0.31967212435E+02  0.74408493835E+01  0.33961958967E+02  0.00000000000E+00 0.  1.
</event>
<event>
 7    1  0.5158441E-015  0.9000756E+02  0.7816164E-02  0.1186339E+00
        -11   -1    0    0    0    0  0.00000000000E+00  0.00000000000E+00  0.45593999997E+02  0.45594000000E+02  0.51100000000E-03 0.  1.
         11   -1    0    0    0    0 -0.00000000000E+00 -0.00000000000E+00 -0.45593999997E+02  0.45594000000E+02  0.51100000000E-03 0. -1.
    9900012    2    1    2    0    0 -0.54774782722E+00  0.10267075092E+01  0.19819312374E+00  0.90007560884E+02  0.89999819888E+02 0.  0.
        -12    1    1    2    0    0  0.54774782722E+00 -0.10267075092E+01 -0.19819312374E+00  0.11804391157E+01  0.00000000000E+00 0.  1.
         11    1    3    3    0    0  0.89163445188E+01  0.24194061123E+01  0.48512360896E+01  0.10434999634E+02  0.51100000000E-03 0. -1.
        -11    1    3    3    0    0  0.19629845259E+02 -0.29794655070E+02  0.87945333270E+01  0.36747736152E+02  0.51100000000E-03 0.  1.
         12    1    3    3    0    0 -0.29093937605E+02  0.28401956466E+02 -0.13447576293E+02  0.42824825098E+02  0.00000000000E+00 0. -1.
</event>
<event>
 7    1  0.5158441E-015  0.9000784E+02  0.7816164E-02  0.1186339E+00
        -11   -1    0    0    0    0  0.00000000000E+00  0.00000000000E+00  0.45593999997E+02  0.45594000000E+02  0.51100000000E-03 0.  1.
         11   -1    0    0    0    0 -0.00000000000E+00 -0.00000000000E+00 -0.45593999997E+02  0.45594000000E+02  0.51100000000E-03 0. -1.
    9900012    2    1    2    0    0 -0.10767883132E+01  0.40542121718E+00 -0.26257124156E+00  0.90007837684E+02  0.90000100342E+02 0.  0.
        -12    1    1    2    0    0  0.10767883132E+01 -0.40542121718E+00  0.26257124156E+00  0.11801623158E+01  0.00000000000E+00 0.  1.
         11    1    3    3    0    0  0.70698465864E+01 -0.12547131937E+01 -0.10012410453E+02  0.12320933377E+02  0.51100000000E-03 0. -1.
        -11    1    3    3    0    0 -0.98430354751E+00  0.38398164634E+02  0.11853404901E+02  0.40198148076E+02  0.51100000000E-03 0.  1.
         12    1    3    3    0    0 -0.71623313520E+01 -0.36738030224E+02 -0.21035656902E+01  0.37488756231E+02  0.00000000000E+00 0. -1.
</event>
<event>
 7    1  0.5158441E-015  0.9000777E+02  0.7816164E-02  0.1186339E+00
        -11   -1    0    0    0    0  0.00000000000E+00  0.00000000000E+00  0.45593999997E+02  0.45594000000E+02  0.51100000000E-03 0.  1.
         11   -1    0    0    0    0 -0.00000000000E+00 -0.00000000000E+00 -0.45593999997E+02  0.45594000000E+02  0.51100000000E-03 0. -1.
    9900012    2    1    2    0    0 -0.58618080652E+00  0.10152766959E+01 -0.13619297251E+00  0.90007769839E+02  0.90000031601E+02 0.  0.
        -12    1    1    2    0    0  0.58618080652E+00 -0.10152766959E+01  0.13619297251E+00  0.11802301610E+01  0.00000000000E+00 0.  1.
         11    1    3    3    0    0 -0.16678818960E+00 -0.42128495784E+01  0.62389156388E+01  0.75299394739E+01  0.51100000000E-03 0. -1.
        -11    1    3    3    0    0 -0.20145062016E+02  0.32350646170E+01  0.32767515785E+02  0.38600508516E+02  0.51100000000E-03 0.  1.
         12    1    3    3    0    0  0.19725669399E+02  0.19930616573E+01 -0.39142624397E+02  0.43877321849E+02  0.00000000000E+00 0. -1.
</event>
<event>
 7    1  0.7095738E-015  0.9000794E+02  0.7816164E-02  0.1186339E+00
        -11   -1    0    0    0    0  0.00000000000E+00  0.00000000000E+00  0.45593999997E+02  0.45594000000E+02  0.51100000000E-03 0. -1.
         11   -1    0    0    0    0 -0.00000000000E+00 -0.00000000000E+00 -0.45593999997E+02  0.45594000000E+02  0.51100000000E-03 0.  1.
    9900012    2    1    2    0    0  0.44818694753E+00  0.14392776819E+00  0.10821054352E+01  0.90007941139E+02  0.90000205162E+02 0.  0.
        -12    1    1    2    0    0 -0.44818694753E+00 -0.14392776819E+00 -0.10821054352E+01  0.11800588610E+01  0.00000000000E+00 0.  1.
         11    1    3    3    0    0  0.27773526901E+02 -0.24069624476E+02  0.22917018877E+02  0.43311723279E+02  0.51100000000E-03 0. -1.
        -11    1    3    3    0    0 -0.95670996297E+01  0.32858696911E+00  0.34278688549E+00  0.95788761256E+01  0.51100000000E-03 0.  1.
        -12    1    3    3    0    0 -0.17758240324E+02  0.23884965275E+02 -0.22177700327E+02  0.37117341734E+02  0.00000000000E+00 0.  1.
</event>
<event>
 7    1  0.5158441E-015  0.9000768E+02  0.7816164E-02  0.1186339E+00
        -11   -1    0    0    0    0  0.00000000000E+00  0.00000000000E+00  0.45593999997E+02  0.45594000000E+02  0.51100000000E-03 0. -1.
         11   -1    0    0    0    0 -0.00000000000E+00 -0.00000000000E+00 -0.45593999997E+02  0.45594000000E+02  0.51100000000E-03 0.  1.
    9900012    2    1    2    0    0 -0.59430580166E+00  0.16133011229E+00  0.10069407207E+01  0.90007679533E+02  0.89999940102E+02 0.  0.
        -12    1    1    2    0    0  0.59430580166E+00 -0.16133011229E+00 -0.10069407207E+01  0.11803204675E+01  0.00000000000E+00 0.  1.
         11    1    3    3    0    0  0.16285040918E+02 -0.18953200797E+02 -0.33319204229E+02  0.41648478350E+02  0.51100000000E-03 0. -1.
        -11    1    3    3    0    0 -0.86217401333E+01 -0.25467862454E+01  0.31863916001E+01  0.95380089535E+01  0.51100000000E-03 0.  1.
        -12    1    3    3    0    0 -0.82576065859E+01  0.21661317155E+02  0.31139753350E+02  0.38821192229E+02  0.00000000000E+00 0.  1.
</event>
<event>
 7    1  0.5158441E-015  0.9000773E+02  0.7816164E-02  0.1186339E+00
        -11   -1    0    0    0    0  0.00000000000E+00  0.00000000000E+00  0.45593999997E+02  0.45594000000E+02  0.51100000000E-03 0.  1.
         11   -1    0    0    0    0 -0.00000000000E+00 -0.00000000000E+00 -0.45593999997E+02  0.45594000000E+02  0.51100000000E-03 0. -1.
    9900012    2    1    2    0    0 -0.39213538298E+00  0.23453480183E+00 -0.10882337268E+01  0.90007733345E+02  0.89999994626E+02 0.  0.
        -12    1    1    2    0    0  0.39213538298E+00 -0.23453480183E+00  0.10882337268E+01  0.11802666546E+01  0.00000000000E+00 0.  1.
         11    1    3    3    0    0 -0.28455600425E+02  0.14160719617E+02 -0.19767948071E+02  0.37430187640E+02  0.51100000000E-03 0. -1.
        -11    1    3    3    0    0  0.23151655582E+01  0.40508130530E+01 -0.93725284061E+01  0.10469640249E+02  0.51100000000E-03 0.  1.
        -12    1    3    3    0    0  0.25748299484E+02 -0.17976997868E+02  0.28052242750E+02  0.42107905457E+02  0.00000000000E+00 0.  1.
</event>
<event>
 7    1  0.5158441E-015  0.9000773E+02  0.7816164E-02  0.1186339E+00
        -11   -1    0    0    0    0  0.00000000000E+00  0.00000000000E+00  0.45593999997E+02  0.45594000000E+02  0.51100000000E-03 0. -1.
         11   -1    0    0    0    0 -0.00000000000E+00 -0.00000000000E+00 -0.45593999997E+02  0.45594000000E+02  0.51100000000E-03 0.  1.
    9900012    2    1    2    0    0 -0.38505224409E+00 -0.12191521592E+00  0.11090124907E+01  0.90007730008E+02  0.89999991244E+02 0.  0.
        -12    1    1    2    0    0  0.38505224409E+00  0.12191521592E+00 -0.11090124907E+01  0.11802699925E+01  0.00000000000E+00 0.  1.
         11    1    3    3    0    0  0.67626361323E+00  0.19518101500E+02 -0.13565994246E+02  0.23779188775E+02  0.51100000000E-03 0. -1.
        -11    1    3    3    0    0  0.18124038478E+02  0.24927968462E+01 -0.15644415429E+02  0.24071612768E+02  0.51100000000E-03 0.  1.
         12    1    3    3    0    0 -0.19185354335E+02 -0.22132813562E+02  0.30319422166E+02  0.42156928465E+02  0.00000000000E+00 0. -1.
</event>
<event>
 7    1  0.5158441E-015  0.9000774E+02  0.7816164E-02  0.1186339E+00
        -11   -1    0    0    0    0  0.00000000000E+00  0.00000000000E+00  0.45593999997E+02  0.45594000000E+02  0.51100000000E-03 0.  1.
         11   -1    0    0    0    0 -0.00000000000E+00 -0.00000000000E+00 -0.45593999997E+02  0.45594000000E+02  0.51100000000E-03 0. -1.
    9900012    2    1    2    0    0 -0.98436306746E-02 -0.88569520095E+00  0.78004017206E+00  0.90007739200E+02  0.90000000557E+02 0.  0.
        -12    1    1    2    0    0  0.98436306746E-02  0.88569520095E+00 -0.78004017206E+00  0.11802608000E+01  0.00000000000E+00 0.  1.
         11    1    3    3    0    0  0.68083106157E+01 -0.33001290971E+02  0.26674920462E+02  0.42976617842E+02  0.51100000000E-03 0. -1.
        -11    1    3    3    0    0 -0.58656280754E+01  0.63048214525E+01  0.21796294398E+01  0.88829697187E+01  0.51100000000E-03 0.  1.
        -12    1    3    3    0    0 -0.95252617106E+00  0.25810774317E+02 -0.28074509730E+02  0.38148151640E+02  0.00000000000E+00 0.  1.
</event>
<event>
 7    1  0.5158441E-015  0.9000775E+02  0.7816164E-02  0.1186339E+00
        -11   -1    0    0    0    0  0.00000000000E+00  0.00000000000E+00  0.45593999997E+02  0.45594000000E+02  0.51100000000E-03 0.  1.
         11   -1    0    0    0    0 -0.00000000000E+00 -0.00000000000E+00 -0.45593999997E+02  0.45594000000E+02  0.51100000000E-03 0. -1.
    9900012    2    1    2    0    0  0.63429871857E+00 -0.66887915634E+00 -0.73705443069E+00  0.90007752812E+02  0.90000014349E+02 0.  0.
        -12    1    1    2    0    0 -0.63429871857E+00  0.66887915634E+00  0.73705443069E+00  0.11802471876E+01  0.00000000000E+00 0.  1.
         11    1    3    3    0    0  0.93118837169E+01  0.25833954089E+01  0.23684518100E+01  0.99496067477E+01  0.51100000000E-03 0. -1.
        -11    1    3    3    0    0 -0.33457850928E+02  0.25478272499E+02 -0.13042497839E+01  0.42074591216E+02  0.51100000000E-03 0.  1.
         12    1    3    3    0    0  0.24780265929E+02 -0.28730547064E+02 -0.18012564567E+01  0.37983554849E+02  0.00000000000E+00 0. -1.
</event>
<event>
 7    1  0.5158441E-015  0.9000744E+02  0.7816164E-02  0.1186340E+00
        -11   -1    0    0    0    0  0.00000000000E+00  0.00000000000E+00  0.45593999997E+02  0.45594000000E+02  0.51100000000E-03 0.  1.
         11   -1    0    0    0    0 -0.00000000000E+00 -0.00000000000E+00 -0.45593999997E+02  0.45594000000E+02  0.51100000000E-03 0. -1.
    9900012    2    1    2    0    0  0.11470386027E+00 -0.85603379402E+00 -0.80484655014E+00  0.90007437083E+02  0.89999694452E+02 0.  0.
        -12    1    1    2    0    0 -0.11470386027E+00  0.85603379402E+00  0.80484655014E+00  0.11805629171E+01  0.00000000000E+00 0.  1.
         11    1    3    3    0    0  0.22372592455E+01 -0.40136683104E+01 -0.82794450085E+01  0.94691114761E+01  0.51100000000E-03 0. -1.
        -11    1    3    3    0    0 -0.11519951336E+02 -0.37100231497E+02  0.32739712823E+01  0.38985322162E+02  0.51100000000E-03 0.  1.
         12    1    3    3    0    0  0.93973959504E+01  0.40257866013E+02  0.42006271760E+01  0.41553003444E+02  0.00000000000E+00 0. -1.
</event>
<event>
 7    1  0.5158441E-015  0.9000773E+02  0.7816164E-02  0.1186339E+00
        -11   -1    0    0    0    0  0.00000000000E+00  0.00000000000E+00  0.45593999997E+02  0.45594000000E+02  0.51100000000E-03 0. -1.
         11   -1    0    0    0    0 -0.00000000000E+00 -0.00000000000E+00 -0.45593999997E+02  0.45594000000E+02  0.51100000000E-03 0.  1.
    9900012    2    1    2    0    0 -0.10445152045E+01  0.37112354811E+00  0.40532090375E+00  0.90007733193E+02  0.89999994471E+02 0.  0.
        -12    1    1    2    0    0  0.10445152045E+01 -0.37112354811E+00 -0.40532090375E+00  0.11802668069E+01  0.00000000000E+00 0.  1.
         11    1    3    3    0    0  0.33552371935E+02  0.16708377327E+02 -0.16235596898E+02  0.40847596530E+02  0.51100000000E-03 0. -1.
        -11    1    3    3    0    0 -0.22520088428E+01 -0.77512240543E+01 -0.48233321592E+01  0.94030607542E+01  0.51100000000E-03 0.  1.
        -12    1    3    3    0    0 -0.32344878297E+02 -0.85860297246E+01  0.21464249961E+02  0.39757075909E+02  0.00000000000E+00 0.  1.
</event>
<event>
 7    1  0.5158441E-015  0.9000780E+02  0.7816164E-02  0.1186339E+00
        -11   -1    0    0    0    0  0.00000000000E+00  0.00000000000E+00  0.45593999997E+02  0.45594000000E+02  0.51100000000E-03 0.  1.
         11   -1    0    0    0    0 -0.00000000000E+00 -0.00000000000E+00 -0.45593999997E+02  0.45594000000E+02  0.51100000000E-03 0. -1.
    9900012    2    1    2    0    0 -0.38435804901E+00 -0.10618125153E+01 -0.34307119563E+00  0.90007798842E+02  0.90000060987E+02 0.  0.
        -12    1    1    2    0    0  0.38435804901E+00  0.10618125153E+01  0.34307119563E+00  0.11802011578E+01  0.00000000000E+00 0.  1.
         11    1    3    3    0    0  0.35252332088E+01  0.34634971183E+02 -0.86747239559E+01  0.35878396480E+02  0.51100000000E-03 0. -1.
        -11    1    3    3    0    0  0.65465069026E+01  0.65906166977E+01 -0.16617696548E+01  0.94368670505E+01  0.51100000000E-03 0.  1.
        -12    1    3    3    0    0 -0.10456098160E+02 -0.42287400396E+02  0.99934224151E+01  0.44692535311E+02  0.00000000000E+00 0.  1.
</event>
<event>
 7    1  0.5158441E-015  0.9000776E+02  0.7816164E-02  0.1186339E+00
        -11   -1    0    0    0    0  0.00000000000E+00  0.00000000000E+00  0.45593999997E+02  0.45594000000E+02  0.51100000000E-03 0.  1.
         11   -1    0    0    0    0 -0.00000000000E+00 -0.00000000000E+00 -0.45593999997E+02  0.45594000000E+02  0.51100000000E-03 0. -1.
    9900012    2    1    2    0    0  0.63655745338E+00  0.97544878560E+00 -0.19045069794E+00  0.90007755452E+02  0.90000017024E+02 0.  0.
        -12    1    1    2    0    0 -0.63655745338E+00 -0.97544878560E+00  0.19045069794E+00  0.11802445480E+01  0.00000000000E+00 0.  1.
         11    1    3    3    0    0 -0.94043001876E+00  0.23039488154E+02 -0.31339943406E+02  0.38908796897E+02  0.51100000000E-03 0. -1.
        -11    1    3    3    0    0  0.36664842175E+00  0.91107924433E+01  0.50502109274E+01  0.10423320041E+02  0.51100000000E-03 0.  1.
        -12    1    3    3    0    0  0.12103390504E+01 -0.31174831811E+02  0.26099281781E+02  0.40675638514E+02  0.00000000000E+00 0.  1.
</event>
<event>
 7    1  0.5158441E-015  0.9000773E+02  0.7816164E-02  0.1186339E+00
        -11   -1    0    0    0    0  0.00000000000E+00  0.00000000000E+00  0.45593999997E+02  0.45594000000E+02  0.51100000000E-03 0.  1.
         11   -1    0    0    0    0 -0.00000000000E+00 -0.00000000000E+00 -0.45593999997E+02  0.45594000000E+02  0.51100000000E-03 0. -1.
    9900012    2    1    2    0    0  0.52961382870E+00 -0.10506919122E+01 -0.92686687235E-01  0.90007730910E+02  0.89999992158E+02 0.  0.
        -12    1    1    2    0    0 -0.52961382870E+00  0.10506919122E+01  0.92686687235E-01  0.11802690896E+01  0.00000000000E+00 0.  1.
         11    1    3    3    0    0  0.76794081490E+01  0.48548428557E+01  0.95926826879E+01  0.13212205345E+02  0.51100000000E-03 0. -1.
        -11    1    3    3    0    0  0.20712563988E+02 -0.10555479776E+02  0.23608571818E+02  0.33132961289E+02  0.51100000000E-03 0.  1.
         12    1    3    3    0    0 -0.27862358308E+02  0.46499450083E+01 -0.33293941193E+02  0.43662564276E+02  0.00000000000E+00 0. -1.
</event>
<event>
 7    1  0.5158441E-015  0.9000773E+02  0.7816164E-02  0.1186339E+00
        -11   -1    0    0    0    0  0.00000000000E+00  0.00000000000E+00  0.45593999997E+02  0.45594000000E+02  0.51100000000E-03 0. -1.
         11   -1    0    0    0    0 -0.00000000000E+00 -0.00000000000E+00 -0.45593999997E+02  0.45594000000E+02  0.51100000000E-03 0.  1.
    9900012    2    1    2    0    0 -0.98633323449E+00 -0.58365428506E+00  0.28200820792E+00  0.90007731300E+02  0.89999992554E+02 0.  0.
        -12    1    1    2    0    0  0.98633323449E+00  0.58365428506E+00 -0.28200820792E+00  0.11802686996E+01  0.00000000000E+00 0.  1.
         11    1    3    3    0    0 -0.37326689961E+01 -0.94910381439E+01  0.14567260667E+02  0.17782511253E+02  0.51100000000E-03 0. -1.
        -11    1    3    3    0    0  0.19266438596E+02 -0.25837900979E+02 -0.83804464268E+01  0.33302021947E+02  0.51100000000E-03 0.  1.
         12    1    3    3    0    0 -0.16520102834E+02  0.34745284838E+02 -0.59048060318E+01  0.38923198101E+02  0.00000000000E+00 0. -1.
</event>
<event>
 7    1  0.5158441E-015  0.9000788E+02  0.7816164E-02  0.1186339E+00
        -11   -1    0    0    0    0  0.00000000000E+00  0.00000000000E+00  0.45593999997E+02  0.45594000000E+02  0.51100000000E-03 0.  1.
         11   -1    0    0    0    0 -0.00000000000E+00 -0.00000000000E+00 -0.45593999997E+02  0.45594000000E+02  0.51100000000E-03 0. -1.
    9900012    2    1    2    0    0  0.65811988772E+00 -0.95281995021E+00  0.22739148644E+00  0.90007875205E+02  0.90000138357E+02 0.  0.
        -12    1    1    2    0    0 -0.65811988772E+00  0.95281995021E+00 -0.22739148644E+00  0.11801247952E+01  0.00000000000E+00 0.  1.
         11    1    3    3    0    0 -0.37235548339E+02 -0.70159965593E+01 -0.16835058032E+02  0.41462385930E+02  0.51100000000E-03 0. -1.
        -11    1    3    3    0    0  0.98588748727E+00  0.84000169847E+01  0.35502535103E+01  0.91725983086E+01  0.51100000000E-03 0.  1.
        -12    1    3    3    0    0  0.36907780739E+02 -0.23368403756E+01  0.13512196008E+02  0.39372890966E+02  0.00000000000E+00 0.  1.
</event>
<event>
 7    1  0.5158441E-015  0.9000781E+02  0.7816164E-02  0.1186339E+00
        -11   -1    0    0    0    0  0.00000000000E+00  0.00000000000E+00  0.45593999997E+02  0.45594000000E+02  0.51100000000E-03 0.  1.
         11   -1    0    0    0    0 -0.00000000000E+00 -0.00000000000E+00 -0.45593999997E+02  0.45594000000E+02  0.51100000000E-03 0. -1.
    9900012    2    1    2    0    0 -0.54363914990E+00  0.72796615530E+00 -0.75324746879E+00  0.90007805102E+02  0.90000067329E+02 0.  0.
        -12    1    1    2    0    0  0.54363914990E+00 -0.72796615530E+00  0.75324746879E+00  0.11801948982E+01  0.00000000000E+00 0.  1.
         11    1    3    3    0    0 -0.31426532157E+02 -0.14622150689E+02 -0.27982019581E+02  0.44546914980E+02  0.51100000000E-03 0. -1.
        -11    1    3    3    0    0  0.86724966773E+01  0.15316133728E+01  0.18182473815E+01  0.89924447145E+01  0.51100000000E-03 0.  1.
        -12    1    3    3    0    0  0.22210396330E+02  0.13818503471E+02  0.25410524730E+02  0.36468445407E+02  0.00000000000E+00 0.  1.
</event>
<event>
 7    1  0.5158441E-015  0.9000775E+02  0.7816164E-02  0.1186339E+00
        -11   -1    0    0    0    0  0.00000000000E+00  0.00000000000E+00  0.45593999997E+02  0.45594000000E+02  0.51100000000E-03 0.  1.
         11   -1    0    0    0    0 -0.00000000000E+00 -0.00000000000E+00 -0.45593999997E+02  0.45594000000E+02  0.51100000000E-03 0. -1.
    9900012    2    1    2    0    0 -0.12691033399E+00  0.10312754702E+00 -0.11688615595E+01  0.90007754742E+02  0.90000016305E+02 0.  0.
        -12    1    1    2    0    0  0.12691033399E+00 -0.10312754702E+00  0.11688615595E+01  0.11802452581E+01  0.00000000000E+00 0.  1.
         11    1    3    3    0    0  0.49090844939E+01  0.41585572124E+02 -0.78580121472E+01  0.42605249379E+02  0.51100000000E-03 0. -1.
        -11    1    3    3    0    0 -0.10073111307E+01 -0.64233944322E+01 -0.69971755624E+01  0.95517086355E+01  0.51100000000E-03 0.  1.
        -12    1    3    3    0    0 -0.40286836972E+01 -0.35059050145E+02  0.13686326150E+02  0.37850796727E+02  0.00000000000E+00 0.  1.
</event>
<event>
 7    1  0.5158441E-015  0.9000774E+02  0.7816164E-02  0.1186339E+00
        -11   -1    0    0    0    0  0.00000000000E+00  0.00000000000E+00  0.45593999997E+02  0.45594000000E+02  0.51100000000E-03 0.  1.
         11   -1    0    0    0    0 -0.00000000000E+00 -0.00000000000E+00 -0.45593999997E+02  0.45594000000E+02  0.51100000000E-03 0. -1.
    9900012    2    1    2    0    0  0.29649696695E+00  0.68991238917E+00  0.91055853057E+00  0.90007743081E+02  0.90000004490E+02 0.  0.
        -12    1    1    2    0    0 -0.29649696695E+00 -0.68991238917E+00 -0.91055853057E+00  0.11802569185E+01  0.00000000000E+00 0.  1.
         11    1    3    3    0    0 -0.79983327729E+01  0.12091984545E+02  0.74239041255E+01  0.16288148149E+02  0.51100000000E-03 0. -1.
        -11    1    3    3    0    0 -0.67287013180E+01  0.16981676263E+02 -0.29170115147E+02  0.34417268458E+02  0.51100000000E-03 0.  1.
         12    1    3    3    0    0  0.15023531058E+02 -0.28383748419E+02  0.22656769552E+02  0.39302326475E+02  0.00000000000E+00 0. -1.
</event>
<event>
 7    1  0.5158441E-015  0.9000775E+02  0.7816164E-02  0.1186339E+00
        -11   -1    0    0    0    0  0.00000000000E+00  0.00000000000E+00  0.45593999997E+02  0.45594000000E+02  0.51100000000E-03 0.  1.
         11   -1    0    0    0    0 -0.00000000000E+00 -0.00000000000E+00 -0.45593999997E+02  0.45594000000E+02  0.51100000000E-03 0. -1.
    9900012    2    1    2    0    0  0.44606558694E+00  0.20659855857E-01 -0.10925098567E+01  0.90007754634E+02  0.90000016195E+02 0.  0.
        -12    1    1    2    0    0 -0.44606558694E+00 -0.20659855857E-01  0.10925098567E+01  0.11802453662E+01  0.00000000000E+00 0.  1.
         11    1    3    3    0    0 -0.11279485783E+02  0.79737964584E+01 -0.55070438482E+01  0.14870634206E+02  0.51100000000E-03 0. -1.
        -11    1    3    3    0    0 -0.21121774027E+02 -0.20118312123E+01  0.27366007167E+02  0.34627664539E+02  0.51100000000E-03 0.  1.
         12    1    3    3    0    0  0.32847325397E+02 -0.59413053902E+01 -0.22951473175E+02  0.40509455889E+02  0.00000000000E+00 0. -1.
</event>
<event>
 7    1  0.5158441E-015  0.9000774E+02  0.7816164E-02  0.1186339E+00
        -11   -1    0    0    0    0  0.00000000000E+00  0.00000000000E+00  0.45593999997E+02  0.45594000000E+02  0.51100000000E-03 0.  1.
         11   -1    0    0    0    0 -0.00000000000E+00 -0.00000000000E+00 -0.45593999997E+02  0.45594000000E+02  0.51100000000E-03 0. -1.
    9900012    2    1    2    0    0 -0.64653483215E+00  0.21908577952E+00 -0.96281188583E+00  0.90007740454E+02  0.90000001828E+02 0.  0.
        -12    1    1    2    0    0  0.64653483215E+00 -0.21908577952E+00  0.96281188583E+00  0.11802595458E+01  0.00000000000E+00 0.  1.
         11    1    3    3    0    0  0.59930239378E+01  0.19991810952E+01  0.64366154024E+01  0.90190398087E+01  0.51100000000E-03 0. -1.
        -11    1    3    3    0    0  0.26641673344E+02 -0.27057411737E+02 -0.95045750756E+01  0.39143572092E+02  0.51100000000E-03 0.  1.
         12    1    3    3    0    0 -0.33281232114E+02  0.25277316421E+02  0.21051477873E+01  0.41845128554E+02  0.00000000000E+00 0. -1.
</event>
<event>
 7    1  0.5158441E-015  0.9000778E+02  0.7816164E-02  0.1186339E+00
        -11   -1    0    0    0    0  0.00000000000E+00  0.00000000000E+00  0.45593999997E+02  0.45594000000E+02  0.51100000000E-03 0. -1.
         11   -1    0    0    0    0 -0.00000000000E+00 -0.00000000000E+00 -0.45593999997E+02  0.45594000000E+02  0.51100000000E-03 0.  1.
    9900012    2    1    2    0    0  0.65077069535E+00 -0.94513556521E+00 -0.27594624290E+00  0.90007775418E+02  0.90000037254E+02 0.  0.
        -12    1    1    2    0    0 -0.65077069535E+00  0.94513556521E+00  0.27594624290E+00  0.11802245818E+01  0.00000000000E+00 0.  1.
         11    1    3    3    0    0 -0.47521696861E+00 -0.90590879938E+01  0.36549288850E+01  0.97801539795E+01  0.51100000000E-03 0. -1.
        -11    1    3    3    0    0 -0.29343445964E+02  0.24777915858E+01 -0.28273104211E+02  0.40823347415E+02  0.51100000000E-03 0.  1.
         12    1    3    3    0    0  0.30469433628E+02  0.56361608428E+01  0.24342229083E+02  0.39404274024E+02  0.00000000000E+00 0. -1.
</event>
<event>
 7    1  0.5519152E-015  0.9000762E+02  0.7816164E-02  0.1186339E+00
        -11   -1    0    0    0    0  0.00000000000E+00  0.00000000000E+00  0.45593999997E+02  0.45594000000E+02  0.51100000000E-03 0. -1.
         11   -1    0    0    0    0 -0.00000000000E+00 -0.00000000000E+00 -0.45593999997E+02  0.45594000000E+02  0.51100000000E-03 0.  1.
    9900012    2    1    2    0    0 -0.50590958560E+00 -0.10111488925E+01 -0.33902078579E+00  0.90007617992E+02  0.89999877749E+02 0.  0.
        -12    1    1    2    0    0  0.50590958560E+00  0.10111488925E+01  0.33902078579E+00  0.11803820080E+01  0.00000000000E+00 0.  1.
         11    1    3    3    0    0 -0.31360177625E+02  0.18989760997E+02  0.38275638278E+00  0.36663582287E+02  0.51100000000E-03 0. -1.
        -11    1    3    3    0    0 -0.88706793068E+01 -0.31489757201E+00 -0.14993627057E+01  0.90020109214E+01  0.51100000000E-03 0.  1.
        -12    1    3    3    0    0  0.39724947346E+02 -0.19686012318E+02  0.77758553710E+00  0.44342024784E+02  0.00000000000E+00 0.  1.
</event>
<event>
 7    1  0.5158441E-015  0.9000773E+02  0.7816164E-02  0.1186339E+00
        -11   -1    0    0    0    0  0.00000000000E+00  0.00000000000E+00  0.45593999997E+02  0.45594000000E+02  0.51100000000E-03 0.  1.
         11   -1    0    0    0    0 -0.00000000000E+00 -0.00000000000E+00 -0.45593999997E+02  0.45594000000E+02  0.51100000000E-03 0. -1.
    9900012    2    1    2    0    0  0.38694045879E+00 -0.10376769472E+01 -0.40808073920E+00  0.90007734667E+02  0.89999995965E+02 0.  0.
        -12    1    1    2    0    0 -0.38694045879E+00  0.10376769472E+01  0.40808073920E+00  0.11802653325E+01  0.00000000000E+00 0.  1.
         11    1    3    3    0    0 -0.27246238846E+01  0.76505619606E+01  0.53713435223E+01  0.97368375318E+01  0.51100000000E-03 0. -1.
        -11    1    3    3    0    0  0.16789673395E+02  0.32481319041E+02 -0.47980570226E+01  0.36877507655E+02  0.51100000000E-03 0.  1.
         12    1    3    3    0    0 -0.13678109052E+02 -0.41169557949E+02 -0.98136723888E+00  0.43393389481E+02  0.00000000000E+00 0. -1.
</event>
<event>
 7    1  0.5158441E-015  0.9000777E+02  0.7816164E-02  0.1186339E+00
        -11   -1    0    0    0    0  0.00000000000E+00  0.00000000000E+00  0.45593999997E+02  0.45594000000E+02  0.51100000000E-03 0.  1.
         11   -1    0    0    0    0 -0.00000000000E+00 -0.00000000000E+00 -0.45593999997E+02  0.45594000000E+02  0.51100000000E-03 0. -1.
    9900012    2    1    2    0    0 -0.32696606336E+00  0.91182943057E+00 -0.67423904433E+00  0.90007772053E+02  0.90000033844E+02 0.  0.
        -12    1    1    2    0    0  0.32696606336E+00 -0.91182943057E+00  0.67423904433E+00  0.11802279466E+01  0.00000000000E+00 0.  1.
         11    1    3    3    0    0  0.10658802826E+01 -0.44922505121E+00 -0.10826974468E+02  0.10888584863E+02  0.51100000000E-03 0. -1.
        -11    1    3    3    0    0 -0.20583015683E+02  0.24071824330E+02  0.29795099590E+02  0.43484034093E+02  0.51100000000E-03 0.  1.
         12    1    3    3    0    0  0.19190169337E+02 -0.22710769848E+02 -0.19642364166E+02  0.35635153098E+02  0.00000000000E+00 0. -1.
</event>
<event>
 7    1  0.5158441E-015  0.9000764E+02  0.7816164E-02  0.1186339E+00
        -11   -1    0    0    0    0  0.00000000000E+00  0.00000000000E+00  0.45593999997E+02  0.45594000000E+02  0.51100000000E-03 0. -1.
         11   -1    0    0    0    0 -0.00000000000E+00 -0.00000000000E+00 -0.45593999997E+02  0.45594000000E+02  0.51100000000E-03 0.  1.
    9900012    2    1    2    0    0  0.97199179755E+00  0.44548432765E+00  0.50003082969E+00  0.90007637695E+02  0.89999897712E+02 0.  0.
        -12    1    1    2    0    0 -0.97199179755E+00 -0.44548432765E+00 -0.50003082969E+00  0.11803623051E+01  0.00000000000E+00 0.  1.
         11    1    3    3    0    0  0.66999755287E+01  0.12339455774E+02  0.37937519463E+02  0.40452530504E+02  0.51100000000E-03 0. -1.
        -11    1    3    3    0    0  0.72777654391E+01 -0.51672156124E+01  0.44970970515E+00  0.89369024864E+01  0.51100000000E-03 0.  1.
        -12    1    3    3    0    0 -0.13005749170E+02 -0.67267558338E+01 -0.37887198338E+02  0.40618204705E+02  0.00000000000E+00 0.  1.
</event>
<event>
 7    1  0.5158441E-015  0.9000781E+02  0.7816164E-02  0.1186339E+00
        -11   -1    0    0    0    0  0.00000000000E+00  0.00000000000E+00  0.45593999997E+02  0.45594000000E+02  0.51100000000E-03 0.  1.
         11   -1    0    0    0    0 -0.00000000000E+00 -0.00000000000E+00 -0.45593999997E+02  0.45594000000E+02  0.51100000000E-03 0. -1.
    9900012    2    1    2    0    0 -0.10404026089E+01  0.55466392942E+00 -0.52633220636E-01  0.90007805135E+02  0.90000067363E+02 0.  0.
        -12    1    1    2    0    0  0.10404026089E+01 -0.55466392942E+00  0.52633220636E-01  0.11801948649E+01  0.00000000000E+00 0.  1.
         11    1    3    3    0    0  0.11662151509E+02 -0.36917699292E+02 -0.15271863234E+02  0.41619131487E+02  0.51100000000E-03 0. -1.
        -11    1    3    3    0    0  0.60242635247E+01  0.59621884883E+01  0.65780716779E+01  0.10728954741E+02  0.51100000000E-03 0.  1.
        -12    1    3    3    0    0 -0.18726817643E+02  0.31510174733E+02  0.86411583354E+01  0.37659718907E+02  0.00000000000E+00 0.  1.
</event>
<event>
 7    1  0.5158441E-015  0.9000772E+02  0.7816164E-02  0.1186339E+00
        -11   -1    0    0    0    0  0.00000000000E+00  0.00000000000E+00  0.45593999997E+02  0.45594000000E+02  0.51100000000E-03 0.  1.
         11   -1    0    0    0    0 -0.00000000000E+00 -0.00000000000E+00 -0.45593999997E+02  0.45594000000E+02  0.51100000000E-03 0. -1.
    9900012    2    1    2    0    0  0.47264980169E+00 -0.91985133150E+00 -0.56879814858E+00  0.90007722219E+02  0.89999983352E+02 0.  0.
        -12    1    1    2    0    0 -0.47264980169E+00  0.91985133150E+00  0.56879814858E+00  0.11802777813E+01  0.00000000000E+00 0.  1.
         11    1    3    3    0    0  0.49886720482E+01 -0.78806018397E-01  0.67409799728E+01  0.83865291061E+01  0.51100000000E-03 0. -1.
        -11    1    3    3    0    0 -0.32600460324E+02 -0.11031645001E+02  0.21120025957E+02  0.40379978968E+02  0.51100000000E-03 0.  1.
         12    1    3    3    0    0  0.28084438078E+02  0.10190599688E+02 -0.28429804079E+02  0.41241214144E+02  0.00000000000E+00 0. -1.
</event>
<event>
 7    1  0.5158441E-015  0.9000733E+02  0.7816164E-02  0.1186340E+00
        -11   -1    0    0    0    0  0.00000000000E+00  0.00000000000E+00  0.45593999997E+02  0.45594000000E+02  0.51100000000E-03 0. -1.
         11   -1    0    0    0    0 -0.00000000000E+00 -0.00000000000E+00 -0.45593999997E+02  0.45594000000E+02  0.51100000000E-03 0.  1.
    9900012    2    1    2    0    0  0.74155374899E+00 -0.83959967745E+00  0.37304272365E+00  0.90007326271E+02  0.89999582177E+02 0.  0.
        -12    1    1    2    0    0 -0.74155374899E+00  0.83959967745E+00 -0.37304272365E+00  0.11806737291E+01  0.00000000000E+00 0.  1.
         11    1    3    3    0    0  0.27158954534E+01  0.60538538642E+01 -0.10634056013E+02  0.12534288264E+02  0.51100000000E-03 0. -1.
        -11    1    3    3    0    0 -0.15961975242E+02  0.27594885478E+02 -0.11604775178E+02  0.33925405898E+02  0.51100000000E-03 0.  1.
         12    1    3    3    0    0  0.13987633538E+02 -0.34488339020E+02  0.22611873915E+02  0.43547632109E+02  0.00000000000E+00 0. -1.
</event>
<event>
 7    1  0.5158441E-015  0.9000772E+02  0.7816164E-02  0.1186339E+00
        -11   -1    0    0    0    0  0.00000000000E+00  0.00000000000E+00  0.45593999997E+02  0.45594000000E+02  0.51100000000E-03 0. -1.
         11   -1    0    0    0    0 -0.00000000000E+00 -0.00000000000E+00 -0.45593999997E+02  0.45594000000E+02  0.51100000000E-03 0.  1.
    9900012    2    1    2    0    0 -0.87060201065E+00 -0.46492387169E+00 -0.64726282706E+00  0.90007724085E+02  0.89999985243E+02 0.  0.
        -12    1    1    2    0    0  0.87060201065E+00  0.46492387169E+00  0.64726282706E+00  0.11802759146E+01  0.00000000000E+00 0.  1.
         11    1    3    3    0    0 -0.71862325787E+01 -0.75295373339E+01  0.39393377757E+02  0.40745233862E+02  0.51100000000E-03 0. -1.
        -11    1    3    3    0    0  0.12023607663E+02 -0.36417531756E+01 -0.77341977118E+01  0.14752875039E+02  0.51100000000E-03 0.  1.
        -12    1    3    3    0    0 -0.57079770946E+01  0.10706366638E+02 -0.32306442872E+02  0.34509615184E+02  0.00000000000E+00 0.  1.
</event>
<event>
 7    1  0.5158441E-015  0.9000813E+02  0.7816164E-02  0.1186338E+00
        -11   -1    0    0    0    0  0.00000000000E+00  0.00000000000E+00  0.45593999997E+02  0.45594000000E+02  0.51100000000E-03 0.  1.
         11   -1    0    0    0    0 -0.00000000000E+00 -0.00000000000E+00 -0.45593999997E+02  0.45594000000E+02  0.51100000000E-03 0. -1.
    9900012    2    1    2    0    0  0.30852344006E-01 -0.11042971082E+01  0.41432503003E+00  0.90008131702E+02  0.90000398240E+02 0.  0.
        -12    1    1    2    0    0 -0.30852344006E-01  0.11042971082E+01 -0.41432503003E+00  0.11798682981E+01  0.00000000000E+00 0.  1.
         11    1    3    3    0    0 -0.32353393913E+01  0.22675007494E+01 -0.84740645765E+01  0.93497995344E+01  0.51100000000E-03 0. -1.
        -11    1    3    3    0    0 -0.12307650372E+02 -0.38658921858E+02  0.10980819331E+02  0.42030570902E+02  0.51100000000E-03 0.  1.
         12    1    3    3    0    0  0.15573842108E+02  0.35287124001E+02 -0.20924297247E+01  0.38627761265E+02  0.00000000000E+00 0. -1.
</event>
<event>
 7    1  0.5158441E-015  0.9000775E+02  0.7816164E-02  0.1186339E+00
        -11   -1    0    0    0    0  0.00000000000E+00  0.00000000000E+00  0.45593999997E+02  0.45594000000E+02  0.51100000000E-03 0.  1.
         11   -1    0    0    0    0 -0.00000000000E+00 -0.00000000000E+00 -0.45593999997E+02  0.45594000000E+02  0.51100000000E-03 0. -1.
    9900012    2    1    2    0    0  0.61338396912E+00  0.96976652905E+00  0.27623176687E+00  0.90007749601E+02  0.90000011096E+02 0.  0.
        -12    1    1    2    0    0 -0.61338396912E+00 -0.96976652905E+00 -0.27623176687E+00  0.11802503986E+01  0.00000000000E+00 0.  1.
         11    1    3    3    0    0 -0.75237878646E+01 -0.43678645489E+01  0.30043026790E+01  0.92038828435E+01  0.51100000000E-03 0. -1.
        -11    1    3    3    0    0  0.22014634623E+02 -0.20282491304E+02  0.26174380163E+02  0.39763321897E+02  0.51100000000E-03 0.  1.
         12    1    3    3    0    0 -0.13877462789E+02  0.25620122382E+02 -0.28902451075E+02  0.41040544861E+02  0.00000000000E+00 0. -1.
</event>
<event>
 7    1  0.5158441E-015  0.9000769E+02  0.7816164E-02  0.1186339E+00
        -11   -1    0    0    0    0  0.00000000000E+00  0.00000000000E+00  0.45593999997E+02  0.45594000000E+02  0.51100000000E-03 0.  1.
         11   -1    0    0    0    0 -0.00000000000E+00 -0.00000000000E+00 -0.45593999997E+02  0.45594000000E+02  0.51100000000E-03 0. -1.
    9900012    2    1    2    0    0 -0.67218002646E+00  0.95190408602E+00 -0.18760157954E+00  0.90007685750E+02  0.89999946402E+02 0.  0.
        -12    1    1    2    0    0  0.67218002646E+00 -0.95190408602E+00  0.18760157954E+00  0.11803142504E+01  0.00000000000E+00 0.  1.
         11    1    3    3    0    0  0.13908091206E+02  0.21625225499E+01 -0.35145178336E+02  0.37858883572E+02  0.51100000000E-03 0. -1.
        -11    1    3    3    0    0 -0.76087056430E+01  0.20340151955E+01 -0.63591032315E+01  0.10122638665E+02  0.51100000000E-03 0.  1.
        -12    1    3    3    0    0 -0.69715655893E+01 -0.32446336594E+01  0.41316679988E+02  0.42026163513E+02  0.00000000000E+00 0.  1.
</event>
<event>
 7    1  0.5158441E-015  0.9000772E+02  0.7816164E-02  0.1186339E+00
        -11   -1    0    0    0    0  0.00000000000E+00  0.00000000000E+00  0.45593999997E+02  0.45594000000E+02  0.51100000000E-03 0. -1.
         11   -1    0    0    0    0 -0.00000000000E+00 -0.00000000000E+00 -0.45593999997E+02  0.45594000000E+02  0.51100000000E-03 0.  1.
    9900012    2    1    2    0    0 -0.46180916557E+00 -0.10763839077E+01  0.14558292708E+00  0.90007718504E+02  0.89999979588E+02 0.  0.
        -12    1    1    2    0    0  0.46180916557E+00  0.10763839077E+01 -0.14558292708E+00  0.11802814964E+01  0.00000000000E+00 0.  1.
         11    1    3    3    0    0  0.61100851528E+01 -0.34634066117E+02  0.15389336203E+02  0.38388583530E+02  0.51100000000E-03 0. -1.
        -11    1    3    3    0    0 -0.51567954203E+01 -0.17871187220E+01  0.77137066489E+01  0.94492117587E+01  0.51100000000E-03 0.  1.
        -12    1    3    3    0    0 -0.14150988981E+01  0.35344800931E+02 -0.22957459925E+02  0.42169923215E+02  0.00000000000E+00 0.  1.
</event>
<event>
 7    1  0.5158441E-015  0.9000773E+02  0.7816164E-02  0.1186339E+00
        -11   -1    0    0    0    0  0.00000000000E+00  0.00000000000E+00  0.45593999997E+02  0.45594000000E+02  0.51100000000E-03 0.  1.
         11   -1    0    0    0    0 -0.00000000000E+00 -0.00000000000E+00 -0.45593999997E+02  0.45594000000E+02  0.51100000000E-03 0. -1.
    9900012    2    1    2    0    0 -0.10751987449E+01  0.32118563308E-01 -0.48574714222E+00  0.90007731289E+02  0.89999992542E+02 0.  0.
        -12    1    1    2    0    0  0.10751987449E+01 -0.32118563308E-01  0.48574714222E+00  0.11802687107E+01  0.00000000000E+00 0.  1.
         11    1    3    3    0    0 -0.99224807233E+01 -0.18098023869E+02 -0.20300610076E+02  0.28950109868E+02  0.51100000000E-03 0. -1.
        -11    1    3    3    0    0  0.22196734283E+01 -0.45757669069E+01 -0.16752255722E+02  0.17507217511E+02  0.51100000000E-03 0.  1.
        -12    1    3    3    0    0  0.66276085501E+01  0.22705909339E+02  0.36567118656E+02  0.43550403911E+02  0.00000000000E+00 0.  1.
</event>
<event>
 7    1  0.5158441E-015  0.9000767E+02  0.7816164E-02  0.1186339E+00
        -11   -1    0    0    0    0  0.00000000000E+00  0.00000000000E+00  0.45593999997E+02  0.45594000000E+02  0.51100000000E-03 0. -1.
         11   -1    0    0    0    0 -0.00000000000E+00 -0.00000000000E+00 -0.45593999997E+02  0.45594000000E+02  0.51100000000E-03 0.  1.
    9900012    2    1    2    0    0  0.31077221039E+00 -0.10723321072E+01  0.38303228218E+00  0.90007665622E+02  0.89999926008E+02 0.  0.
        -12    1    1    2    0    0 -0.31077221039E+00  0.10723321072E+01 -0.38303228218E+00  0.11803343780E+01  0.00000000000E+00 0.  1.
         11    1    3    3    0    0 -0.78139988368E+01 -0.72466306998E+01 -0.33750434033E+01  0.11178691898E+02  0.51100000000E-03 0. -1.
        -11    1    3    3    0    0 -0.14067491423E+02 -0.27928187454E+02 -0.14212848857E+02  0.34349425648E+02  0.51100000000E-03 0.  1.
         12    1    3    3    0    0  0.22192262470E+02  0.34102486047E+02  0.17970924543E+02  0.44479548076E+02  0.00000000000E+00 0. -1.
</event>
<event>
 7    1  0.5158441E-015  0.9000778E+02  0.7816164E-02  0.1186339E+00
        -11   -1    0    0    0    0  0.00000000000E+00  0.00000000000E+00  0.45593999997E+02  0.45594000000E+02  0.51100000000E-03 0.  1.
         11   -1    0    0    0    0 -0.00000000000E+00 -0.00000000000E+00 -0.45593999997E+02  0.45594000000E+02  0.51100000000E-03 0. -1.
    9900012    2    1    2    0    0 -0.53186332964E+00 -0.10470049025E+01 -0.11759930733E+00  0.90007776519E+02  0.90000038369E+02 0.  0.
        -12    1    1    2    0    0  0.53186332964E+00  0.10470049025E+01  0.11759930733E+00  0.11802234807E+01  0.00000000000E+00 0.  1.
         11    1    3    3    0    0 -0.40570863632E+01 -0.10851021015E+02  0.24807503014E+01  0.11847308941E+02  0.51100000000E-03 0. -1.
        -11    1    3    3    0    0  0.10950090540E+02 -0.29896476153E+02  0.13629672324E+02  0.34633390494E+02  0.51100000000E-03 0.  1.
         12    1    3    3    0    0 -0.74248675063E+01  0.39700492266E+02 -0.16228021933E+02  0.43527077084E+02  0.00000000000E+00 0. -1.
</event>
<event>
 7    1  0.5158441E-015  0.9000776E+02  0.7816164E-02  0.1186339E+00
        -11   -1    0    0    0    0  0.00000000000E+00  0.00000000000E+00  0.45593999997E+02  0.45594000000E+02  0.51100000000E-03 0. -1.
         11   -1    0    0    0    0 -0.00000000000E+00 -0.00000000000E+00 -0.45593999997E+02  0.45594000000E+02  0.51100000000E-03 0.  1.
    9900012    2    1    2    0    0  0.30919441299E+00  0.90077282596E+00 -0.69712191337E+00  0.90007757724E+02  0.90000019326E+02 0.  0.
        -12    1    1    2    0    0 -0.30919441299E+00 -0.90077282596E+00  0.69712191337E+00  0.11802422764E+01  0.00000000000E+00 0.  1.
         11    1    3    3    0    0  0.24557493273E+01  0.33971843829E+01 -0.81143703788E+01  0.91331579093E+01  0.51100000000E-03 0. -1.
        -11    1    3    3    0    0 -0.10997011436E+02  0.21731209339E+02 -0.27967977974E+02  0.37086217279E+02  0.51100000000E-03 0.  1.
         12    1    3    3    0    0  0.88504565218E+01 -0.24227620896E+02  0.35385226439E+02  0.43788382535E+02  0.00000000000E+00 0. -1.
</event>
<event>
 7    1  0.5158441E-015  0.9000779E+02  0.7816164E-02  0.1186339E+00
        -11   -1    0    0    0    0  0.00000000000E+00  0.00000000000E+00  0.45593999997E+02  0.45594000000E+02  0.51100000000E-03 0. -1.
         11   -1    0    0    0    0 -0.00000000000E+00 -0.00000000000E+00 -0.45593999997E+02  0.45594000000E+02  0.51100000000E-03 0.  1.
    9900012    2    1    2    0    0  0.26661431346E+00 -0.10535944983E+01  0.46016340050E+00  0.90007790309E+02  0.90000052341E+02 0.  0.
        -12    1    1    2    0    0 -0.26661431346E+00  0.10535944983E+01 -0.46016340050E+00  0.11802096907E+01  0.00000000000E+00 0.  1.
         11    1    3    3    0    0 -0.27277777966E+01  0.89500210882E+01 -0.33321053996E+01  0.99320982598E+01  0.51100000000E-03 0. -1.
        -11    1    3    3    0    0  0.59278377839E+01  0.33966674144E+02 -0.58297857667E+01  0.34969424009E+02  0.51100000000E-03 0.  1.
         12    1    3    3    0    0 -0.29334456738E+01 -0.43970289730E+02  0.96220545668E+01  0.45106268041E+02  0.00000000000E+00 0. -1.
</event>
<event>
 7    1  0.5158441E-015  0.9000774E+02  0.7816164E-02  0.1186339E+00
        -11   -1    0    0    0    0  0.00000000000E+00  0.00000000000E+00  0.45593999997E+02  0.45594000000E+02  0.51100000000E-03 0.  1.
         11   -1    0    0    0    0 -0.00000000000E+00 -0.00000000000E+00 -0.45593999997E+02  0.45594000000E+02  0.51100000000E-03 0. -1.
    9900012    2    1    2    0    0  0.55258582747E-02  0.59709758065E+00 -0.10180632462E+01  0.90007742050E+02  0.90000003445E+02 0.  0.
        -12    1    1    2    0    0 -0.55258582747E-02 -0.59709758065E+00  0.10180632462E+01  0.11802579503E+01  0.00000000000E+00 0.  1.
         11    1    3    3    0    0  0.78050446280E+01  0.40037537841E+02 -0.24748682773E+01  0.40866222376E+02  0.51100000000E-03 0. -1.
        -11    1    3    3    0    0  0.86913560774E+01 -0.33904251972E+01 -0.12188239201E+01  0.94085166467E+01  0.51100000000E-03 0.  1.
        -12    1    3    3    0    0 -0.16490874847E+02 -0.36050015063E+02  0.26756289512E+01  0.39733003027E+02  0.00000000000E+00 0.  1.
</event>
<event>
 7    1  0.5158441E-015  0.9000773E+02  0.7816164E-02  0.1186339E+00
        -11   -1    0    0    0    0  0.00000000000E+00  0.00000000000E+00  0.45593999997E+02  0.45594000000E+02  0.51100000000E-03 0.  1.
         11   -1    0    0    0    0 -0.00000000000E+00 -0.00000000000E+00 -0.45593999997E+02  0.45594000000E+02  0.51100000000E-03 0. -1.
    9900012    2    1    2    0    0  0.10669894856E+01  0.30068449637E+00  0.40516953180E+00  0.90007728812E+02  0.89999990032E+02 0.  0.
        -12    1    1    2    0    0 -0.10669894856E+01 -0.30068449637E+00 -0.40516953180E+00  0.11802711884E+01  0.00000000000E+00 0.  1.
         11    1    3    3    0    0 -0.19597014323E+02 -0.91926213849E+01 -0.29880122983E+02  0.36896734382E+02  0.51100000000E-03 0. -1.
        -11    1    3    3    0    0 -0.84739734946E+01 -0.25666357054E+01 -0.72420157310E+00  0.88837105880E+01  0.51100000000E-03 0.  1.
        -12    1    3    3    0    0  0.29137977303E+02  0.12059941587E+02  0.31009494088E+02  0.44227283842E+02  0.00000000000E+00 0.  1.
</event>
<event>
 7    1  0.5158441E-015  0.9000778E+02  0.7816164E-02  0.1186339E+00
        -11   -1    0    0    0    0  0.00000000000E+00  0.00000000000E+00  0.45593999997E+02  0.45594000000E+02  0.51100000000E-03 0.  1.
         11   -1    0    0    0    0 -0.00000000000E+00 -0.00000000000E+00 -0.45593999997E+02  0.45594000000E+02  0.51100000000E-03 0. -1.
    9900012    2    1    2    0    0  0.85910861158E+00 -0.80905908318E+00 -0.16370310897E-01  0.90007782989E+02  0.90000044924E+02 0.  0.
        -12    1    1    2    0    0 -0.85910861158E+00  0.80905908318E+00  0.16370310897E-01  0.11802170113E+01  0.00000000000E+00 0.  1.
         11    1    3    3    0    0 -0.21945226240E+01 -0.47285030084E+01  0.97305564445E+01  0.11038949190E+02  0.51100000000E-03 0. -1.
        -11    1    3    3    0    0  0.23436067260E+02 -0.25323741114E+02  0.12787599547E+02  0.36797606105E+02  0.51100000000E-03 0.  1.
         12    1    3    3    0    0 -0.20382436024E+02  0.29243185039E+02 -0.22534526303E+02  0.42171227694E+02  0.00000000000E+00 0. -1.
</event>
<event>
 7    1  0.5158441E-015  0.9000779E+02  0.7816164E-02  0.1186339E+00
        -11   -1    0    0    0    0  0.00000000000E+00  0.00000000000E+00  0.45593999997E+02  0.45594000000E+02  0.51100000000E-03 0. -1.
         11   -1    0    0    0    0 -0.00000000000E+00 -0.00000000000E+00 -0.45593999997E+02  0.45594000000E+02  0.51100000000E-03 0.  1.
    9900012    2    1    2    0    0 -0.44946096112E+00 -0.26546605372E+00  0.10584915592E+01  0.90007791645E+02  0.90000053694E+02 0.  0.
        -12    1    1    2    0    0  0.44946096112E+00  0.26546605372E+00 -0.10584915592E+01  0.11802083554E+01  0.00000000000E+00 0.  1.
         11    1    3    3    0    0  0.24933446690E+02  0.17359620722E+02  0.19520540185E+02  0.36112112716E+02  0.51100000000E-03 0. -1.
        -11    1    3    3    0    0 -0.63875631457E+00 -0.46958140950E+00  0.11436115064E+02  0.11463561591E+02  0.51100000000E-03 0.  1.
        -12    1    3    3    0    0 -0.24744151337E+02 -0.17155505366E+02 -0.29898163690E+02  0.42432117338E+02  0.00000000000E+00 0.  1.
</event>
<event>
 7    1  0.5158441E-015  0.9000774E+02  0.7816164E-02  0.1186339E+00
        -11   -1    0    0    0    0  0.00000000000E+00  0.00000000000E+00  0.45593999997E+02  0.45594000000E+02  0.51100000000E-03 0.  1.
         11   -1    0    0    0    0 -0.00000000000E+00 -0.00000000000E+00 -0.45593999997E+02  0.45594000000E+02  0.51100000000E-03 0. -1.
    9900012    2    1    2    0    0  0.75540074255E+00  0.20965513231E+00  0.88228698760E+00  0.90007739061E+02  0.90000000416E+02 0.  0.
        -12    1    1    2    0    0 -0.75540074255E+00 -0.20965513231E+00 -0.88228698760E+00  0.11802609393E+01  0.00000000000E+00 0.  1.
         11    1    3    3    0    0 -0.50386598297E+01  0.81273436554E+01  0.19353450080E+02  0.21586983070E+02  0.51100000000E-03 0. -1.
        -11    1    3    3    0    0 -0.89207095368E+01  0.74723460201E+01  0.20751292146E+02  0.23791408947E+02  0.51100000000E-03 0.  1.
         12    1    3    3    0    0  0.14714770109E+02 -0.15390034543E+02 -0.39222455239E+02  0.44629347044E+02  0.00000000000E+00 0. -1.
</event>
<event>
 7    1  0.5158441E-015  0.9000777E+02  0.7816164E-02  0.1186339E+00
        -11   -1    0    0    0    0  0.00000000000E+00  0.00000000000E+00  0.45593999997E+02  0.45594000000E+02  0.51100000000E-03 0.  1.
         11   -1    0    0    0    0 -0.00000000000E+00 -0.00000000000E+00 -0.45593999997E+02  0.45594000000E+02  0.51100000000E-03 0. -1.
    9900012    2    1    2    0    0 -0.11179723835E+01  0.32758369853E+00  0.18911096140E+00  0.90007772782E+02  0.90000034583E+02 0.  0.
        -12    1    1    2    0    0  0.11179723835E+01 -0.32758369853E+00 -0.18911096140E+00  0.11802272178E+01  0.00000000000E+00 0.  1.
         11    1    3    3    0    0 -0.30445121608E+02  0.66182952265E+01 -0.31094790341E+02  0.44018101368E+02  0.51100000000E-03 0. -1.
        -11    1    3    3    0    0  0.42655148212E+01 -0.72371658826E+01  0.56257610131E+01  0.10110409188E+02  0.51100000000E-03 0.  1.
        -12    1    3    3    0    0  0.25061634403E+02  0.94645435469E+00  0.25658140289E+02  0.35879262227E+02  0.00000000000E+00 0.  1.
</event>
<event>
 7    1  0.5158441E-015  0.9000766E+02  0.7816164E-02  0.1186339E+00
        -11   -1    0    0    0    0  0.00000000000E+00  0.00000000000E+00  0.45593999997E+02  0.45594000000E+02  0.51100000000E-03 0.  1.
         11   -1    0    0    0    0 -0.00000000000E+00 -0.00000000000E+00 -0.45593999997E+02  0.45594000000E+02  0.51100000000E-03 0. -1.
    9900012    2    1    2    0    0  0.10903951372E+01  0.43680054883E+00  0.11599321008E+00  0.90007656533E+02  0.89999916799E+02 0.  0.
        -12    1    1    2    0    0 -0.10903951372E+01 -0.43680054883E+00 -0.11599321008E+00  0.11803434668E+01  0.00000000000E+00 0.  1.
         11    1    3    3    0    0 -0.24848932135E+01 -0.34568320106E+02 -0.17903513459E+02  0.39008707280E+02  0.51100000000E-03 0. -1.
        -11    1    3    3    0    0 -0.99347915960E+01  0.20176134254E+00  0.10580535969E+01  0.99930110262E+01  0.51100000000E-03 0.  1.
        -12    1    3    3    0    0  0.13510079947E+02  0.34803359312E+02  0.16961453072E+02  0.41005938227E+02  0.00000000000E+00 0.  1.
</event>
<event>
 7    1  0.5158441E-015  0.9000776E+02  0.7816164E-02  0.1186339E+00
        -11   -1    0    0    0    0  0.00000000000E+00  0.00000000000E+00  0.45593999997E+02  0.45594000000E+02  0.51100000000E-03 0. -1.
         11   -1    0    0    0    0 -0.00000000000E+00 -0.00000000000E+00 -0.45593999997E+02  0.45594000000E+02  0.51100000000E-03 0.  1.
    9900012    2    1    2    0    0  0.16861766162E+00 -0.63838298204E+00  0.97826916431E+00  0.90007756252E+02  0.90000017834E+02 0.  0.
        -12    1    1    2    0    0 -0.16861766162E+00  0.63838298204E+00 -0.97826916431E+00  0.11802437483E+01  0.00000000000E+00 0.  1.
         11    1    3    3    0    0 -0.32178852722E+02  0.12187775655E+02 -0.76778679656E+01  0.35255781011E+02  0.51100000000E-03 0. -1.
        -11    1    3    3    0    0 -0.99169369156E+01 -0.31158296919E+00  0.26232654616E+01  0.10262760042E+02  0.51100000000E-03 0.  1.
        -12    1    3    3    0    0  0.42264407299E+02 -0.12514575668E+02  0.60328716683E+01  0.44489215199E+02  0.00000000000E+00 0.  1.
</event>
<event>
 7    1  0.5158441E-015  0.9000768E+02  0.7816164E-02  0.1186339E+00
        -11   -1    0    0    0    0  0.00000000000E+00  0.00000000000E+00  0.45593999997E+02  0.45594000000E+02  0.51100000000E-03 0. -1.
         11   -1    0    0    0    0 -0.00000000000E+00 -0.00000000000E+00 -0.45593999997E+02  0.45594000000E+02  0.51100000000E-03 0.  1.
    9900012    2    1    2    0    0  0.18263192532E-01  0.10461958058E+01 -0.54615808671E+00  0.90007683151E+02  0.89999943769E+02 0.  0.
        -12    1    1    2    0    0 -0.18263192532E-01 -0.10461958058E+01  0.54615808671E+00  0.11803168490E+01  0.00000000000E+00 0.  1.
         11    1    3    3    0    0 -0.18719246522E+02 -0.12558488564E+02 -0.58302077664E+01  0.23283409291E+02  0.51100000000E-03 0. -1.
        -11    1    3    3    0    0 -0.45265247590E+00 -0.23425065881E+02 -0.45655155985E+01  0.23870118113E+02  0.51100000000E-03 0.  1.
         12    1    3    3    0    0  0.19190162190E+02  0.37029750251E+02  0.98495652782E+01  0.42854155746E+02  0.00000000000E+00 0. -1.
</event>
<event>
 7    1  0.5158441E-015  0.9000775E+02  0.7816164E-02  0.1186339E+00
        -11   -1    0    0    0    0  0.00000000000E+00  0.00000000000E+00  0.45593999997E+02  0.45594000000E+02  0.51100000000E-03 0.  1.
         11   -1    0    0    0    0 -0.00000000000E+00 -0.00000000000E+00 -0.45593999997E+02  0.45594000000E+02  0.51100000000E-03 0. -1.
    9900012    2    1    2    0    0  0.61502115256E+00 -0.27749569320E+00 -0.96837291210E+00  0.90007745377E+02  0.90000006816E+02 0.  0.
        -12    1    1    2    0    0 -0.61502115256E+00  0.27749569320E+00  0.96837291210E+00  0.11802546228E+01  0.00000000000E+00 0.  1.
         11    1    3    3    0    0  0.31487379559E+01  0.11440218235E+01  0.86973016987E+01  0.93202142543E+01  0.51100000000E-03 0. -1.
        -11    1    3    3    0    0 -0.11793867415E+02  0.61912494304E+01  0.33413961322E+02  0.35971095196E+02  0.51100000000E-03 0.  1.
         12    1    3    3    0    0  0.92601506112E+01 -0.76127669471E+01 -0.43079635933E+02  0.44716435927E+02  0.00000000000E+00 0. -1.
</event>
<event>
 7    1  0.5232407E-015  0.9000784E+02  0.7816164E-02  0.1186339E+00
        -11   -1    0    0    0    0  0.00000000000E+00  0.00000000000E+00  0.45593999997E+02  0.45594000000E+02  0.51100000000E-03 0.  1.
         11   -1    0    0    0    0 -0.00000000000E+00 -0.00000000000E+00 -0.45593999997E+02  0.45594000000E+02  0.51100000000E-03 0. -1.
    9900012    2    1    2    0    0  0.86598602736E+00  0.41281466375E+00 -0.68733272386E+00  0.90007841528E+02  0.90000104236E+02 0.  0.
        -12    1    1    2    0    0 -0.86598602736E+00 -0.41281466375E+00  0.68733272386E+00  0.11801584722E+01  0.00000000000E+00 0.  1.
         11    1    3    3    0    0 -0.17178055769E+02 -0.13574283921E+02 -0.33195116322E+02  0.39765091876E+02  0.51100000000E-03 0. -1.
        -11    1    3    3    0    0  0.68130468687E+01  0.30479935957E+01 -0.54055853722E+01  0.92156511475E+01  0.51100000000E-03 0.  1.
        -12    1    3    3    0    0  0.11230994927E+02  0.10939104989E+02  0.37913368971E+02  0.41027098505E+02  0.00000000000E+00 0.  1.
</event>
<event>
 7    1  0.5158441E-015  0.9000763E+02  0.7816164E-02  0.1186339E+00
        -11   -1    0    0    0    0  0.00000000000E+00  0.00000000000E+00  0.45593999997E+02  0.45594000000E+02  0.51100000000E-03 0.  1.
         11   -1    0    0    0    0 -0.00000000000E+00 -0.00000000000E+00 -0.45593999997E+02  0.45594000000E+02  0.51100000000E-03 0. -1.
    9900012    2    1    2    0    0  0.50408991783E+00 -0.98577868196E+00  0.40916732007E+00  0.90007625419E+02  0.89999885275E+02 0.  0.
        -12    1    1    2    0    0 -0.50408991783E+00  0.98577868196E+00 -0.40916732007E+00  0.11803745808E+01  0.00000000000E+00 0.  1.
         11    1    3    3    0    0 -0.13103167194E+02  0.39371579099E+02 -0.13782265426E+01  0.41517631675E+02  0.51100000000E-03 0. -1.
        -11    1    3    3    0    0  0.16730467894E+01 -0.59427505465E+01 -0.86240473070E+01  0.10606109646E+02  0.51100000000E-03 0.  1.
        -12    1    3    3    0    0  0.11934210322E+02 -0.34414607234E+02  0.10411441170E+02  0.37883884098E+02  0.00000000000E+00 0.  1.
</event>
<event>
 7    1  0.5158441E-015  0.9000769E+02  0.7816164E-02  0.1186339E+00
        -11   -1    0    0    0    0  0.00000000000E+00  0.00000000000E+00  0.45593999997E+02  0.45594000000E+02  0.51100000000E-03 0.  1.
         11   -1    0    0    0    0 -0.00000000000E+00 -0.00000000000E+00 -0.45593999997E+02  0.45594000000E+02  0.51100000000E-03 0. -1.
    9900012    2    1    2    0    0  0.90427108785E+00  0.74537007138E+00  0.14090058330E+00  0.90007688296E+02  0.89999948982E+02 0.  0.
        -12    1    1    2    0    0 -0.90427108785E+00 -0.74537007138E+00 -0.14090058330E+00  0.11803117038E+01  0.00000000000E+00 0.  1.
         11    1    3    3    0    0  0.15269050710E+02 -0.12823485497E+02 -0.93979964205E+00  0.19961686138E+02  0.51100000000E-03 0. -1.
        -11    1    3    3    0    0 -0.12650997255E+02 -0.18104684650E+02  0.22689999395E+02  0.31664860818E+02  0.51100000000E-03 0.  1.
         12    1    3    3    0    0 -0.17137823671E+01  0.31673540218E+02 -0.21609299170E+02  0.38381141340E+02  0.00000000000E+00 0. -1.
</event>
<event>
 7    1  0.5158441E-015  0.9000775E+02  0.7816164E-02  0.1186339E+00
        -11   -1    0    0    0    0  0.00000000000E+00  0.00000000000E+00  0.45593999997E+02  0.45594000000E+02  0.51100000000E-03 0.  1.
         11   -1    0    0    0    0 -0.00000000000E+00 -0.00000000000E+00 -0.45593999997E+02  0.45594000000E+02  0.51100000000E-03 0. -1.
    9900012    2    1    2    0    0  0.11461319161E+01 -0.26546442183E+00  0.94334602460E-01  0.90007750558E+02  0.90000012065E+02 0.  0.
        -12    1    1    2    0    0 -0.11461319161E+01  0.26546442183E+00 -0.94334602460E-01  0.11802494421E+01  0.00000000000E+00 0.  1.
         11    1    3    3    0    0  0.28267129114E+02 -0.25139867431E+02  0.17090183219E+02  0.41510455135E+02  0.51100000000E-03 0. -1.
        -11    1    3    3    0    0  0.46910553488E+01  0.59425168878E+01  0.42703041382E+00  0.75829982516E+01  0.51100000000E-03 0.  1.
        -12    1    3    3    0    0 -0.31812052547E+02  0.18931886121E+02 -0.17422879030E+02  0.40914297172E+02  0.00000000000E+00 0.  1.
</event>
<event>
 7    1  0.5158441E-015  0.9000770E+02  0.7816164E-02  0.1186339E+00
        -11   -1    0    0    0    0  0.00000000000E+00  0.00000000000E+00  0.45593999997E+02  0.45594000000E+02  0.51100000000E-03 0.  1.
         11   -1    0    0    0    0 -0.00000000000E+00 -0.00000000000E+00 -0.45593999997E+02  0.45594000000E+02  0.51100000000E-03 0. -1.
    9900012    2    1    2    0    0  0.69813647629E+00 -0.15729661618E+00 -0.93859565108E+00  0.90007704037E+02  0.89999964930E+02 0.  0.
        -12    1    1    2    0    0 -0.69813647629E+00  0.15729661618E+00  0.93859565108E+00  0.11802959634E+01  0.00000000000E+00 0.  1.
         11    1    3    3    0    0 -0.18797914557E+02  0.34506308873E+02  0.11126130291E+02  0.40839168934E+02  0.51100000000E-03 0. -1.
        -11    1    3    3    0    0  0.72627872550E+01  0.31069532259E+01 -0.10666205637E+01  0.79711302052E+01  0.51100000000E-03 0.  1.
        -12    1    3    3    0    0  0.12233263778E+02 -0.37770558716E+02 -0.10998105378E+02  0.41197404897E+02  0.00000000000E+00 0.  1.
</event>
<event>
 7    1  0.5158441E-015  0.9000771E+02  0.7816164E-02  0.1186339E+00
        -11   -1    0    0    0    0  0.00000000000E+00  0.00000000000E+00  0.45593999997E+02  0.45594000000E+02  0.51100000000E-03 0.  1.
         11   -1    0    0    0    0 -0.00000000000E+00 -0.00000000000E+00 -0.45593999997E+02  0.45594000000E+02  0.51100000000E-03 0. -1.
    9900012    2    1    2    0    0  0.80304449972E+00  0.61351616556E+00 -0.60974929954E+00  0.90007713271E+02  0.89999974286E+02 0.  0.
        -12    1    1    2    0    0 -0.80304449972E+00 -0.61351616556E+00  0.60974929954E+00  0.11802867288E+01  0.00000000000E+00 0.  1.
         11    1    3    3    0    0 -0.29966569444E+01  0.15848723636E+02 -0.39677287962E+01  0.16610384276E+02  0.51100000000E-03 0. -1.
        -11    1    3    3    0    0  0.72588178101E+01  0.21849670912E+02  0.21913572068E+02  0.31785266965E+02  0.51100000000E-03 0.  1.
         12    1    3    3    0    0 -0.34591163659E+01 -0.37084878383E+02 -0.18555592572E+02  0.41612062030E+02  0.00000000000E+00 0. -1.
</event>
<event>
 7    1  0.5158441E-015  0.9000700E+02  0.7816164E-02  0.1186341E+00
        -11   -1    0    0    0    0  0.00000000000E+00  0.00000000000E+00  0.45593999997E+02  0.45594000000E+02  0.51100000000E-03 0.  1.
         11   -1    0    0    0    0 -0.00000000000E+00 -0.00000000000E+00 -0.45593999997E+02  0.45594000000E+02  0.51100000000E-03 0. -1.
    9900012    2    1    2    0    0 -0.52734469356E+00 -0.23449143059E+00 -0.10303770242E+01  0.90007002342E+02  0.89999253970E+02 0.  0.
        -12    1    1    2    0    0  0.52734469356E+00  0.23449143059E+00  0.10303770242E+01  0.11809976582E+01  0.00000000000E+00 0.  1.
         11    1    3    3    0    0  0.17436784358E+01  0.75501714129E+01  0.65423606985E+01  0.10141399638E+02  0.51100000000E-03 0. -1.
        -11    1    3    3    0    0  0.29254392541E+02  0.35405891971E+01  0.20715895814E+02  0.36020877202E+02  0.51100000000E-03 0.  1.
         12    1    3    3    0    0 -0.31525415670E+02 -0.11325252041E+02 -0.28288633536E+02  0.43844725501E+02  0.00000000000E+00 0. -1.
</event>
<event>
 7    1  0.5158441E-015  0.9000788E+02  0.7816164E-02  0.1186339E+00
        -11   -1    0    0    0    0  0.00000000000E+00  0.00000000000E+00  0.45593999997E+02  0.45594000000E+02  0.51100000000E-03 0.  1.
         11   -1    0    0    0    0 -0.00000000000E+00 -0.00000000000E+00 -0.45593999997E+02  0.45594000000E+02  0.51100000000E-03 0. -1.
    9900012    2    1    2    0    0  0.40529101133E+00 -0.88555063849E+00 -0.66649435782E+00  0.90007883283E+02  0.90000146542E+02 0.  0.
        -12    1    1    2    0    0 -0.40529101133E+00  0.88555063849E+00  0.66649435782E+00  0.11801167172E+01  0.00000000000E+00 0.  1.
         11    1    3    3    0    0 -0.62594343681E+01  0.65786266405E+01 -0.54340315790E+01  0.10582416857E+02  0.51100000000E-03 0. -1.
        -11    1    3    3    0    0 -0.31209431028E+02 -0.94863653243E+01 -0.15838504885E+02  0.36261245833E+02  0.51100000000E-03 0.  1.
         12    1    3    3    0    0  0.37874156407E+02  0.20221880454E+01  0.20606042106E+02  0.43164220592E+02  0.00000000000E+00 0. -1.
</event>
<event>
 7    1  0.5158441E-015  0.9000768E+02  0.7816164E-02  0.1186339E+00
        -11   -1    0    0    0    0  0.00000000000E+00  0.00000000000E+00  0.45593999997E+02  0.45594000000E+02  0.51100000000E-03 0.  1.
         11   -1    0    0    0    0 -0.00000000000E+00 -0.00000000000E+00 -0.45593999997E+02  0.45594000000E+02  0.51100000000E-03 0. -1.
    9900012    2    1    2    0    0  0.81025729847E+00 -0.54043309897E+00 -0.66675954913E+00  0.90007680924E+02  0.89999941512E+02 0.  0.
        -12    1    1    2    0    0 -0.81025729847E+00  0.54043309897E+00  0.66675954913E+00  0.11803190757E+01  0.00000000000E+00 0.  1.
         11    1    3    3    0    0  0.45199193943E+01 -0.96390486156E+01  0.45230589639E+00  0.10655773573E+02  0.51100000000E-03 0. -1.
        -11    1    3    3    0    0 -0.24498538097E+02 -0.26376617948E+02  0.87915124194E+01  0.37056646289E+02  0.51100000000E-03 0.  1.
         12    1    3    3    0    0  0.20788876001E+02  0.35475233465E+02 -0.99105778649E+01  0.42295261063E+02  0.00000000000E+00 0. -1.
</event>
<event>
 7    1  0.5158441E-015  0.9000747E+02  0.7816164E-02  0.1186340E+00
        -11   -1    0    0    0    0  0.00000000000E+00  0.00000000000E+00  0.45593999997E+02  0.45594000000E+02  0.51100000000E-03 0.  1.
         11   -1    0    0    0    0 -0.00000000000E+00 -0.00000000000E+00 -0.45593999997E+02  0.45594000000E+02  0.51100000000E-03 0. -1.
    9900012    2    1    2    0    0 -0.67246516127E+00  0.90252483863E+00  0.35622473807E+00  0.90007467687E+02  0.89999725460E+02 0.  0.
        -12    1    1    2    0    0  0.67246516127E+00 -0.90252483863E+00 -0.35622473807E+00  0.11805323128E+01  0.00000000000E+00 0.  1.
         11    1    3    3    0    0 -0.26774279187E+02  0.19624105615E+02  0.97972961179E+01  0.34611480157E+02  0.51100000000E-03 0. -1.
        -11    1    3    3    0    0 -0.55024095943E+01 -0.58744711339E+01  0.12475810295E+02  0.14846944642E+02  0.51100000000E-03 0.  1.
        -12    1    3    3    0    0  0.31604223620E+02 -0.12847109643E+02 -0.21916881674E+02  0.40549042888E+02  0.00000000000E+00 0.  1.
</event>
<event>
 7    1  0.5158441E-015  0.9000771E+02  0.7816164E-02  0.1186339E+00
        -11   -1    0    0    0    0  0.00000000000E+00  0.00000000000E+00  0.45593999997E+02  0.45594000000E+02  0.51100000000E-03 0.  1.
         11   -1    0    0    0    0 -0.00000000000E+00 -0.00000000000E+00 -0.45593999997E+02  0.45594000000E+02  0.51100000000E-03 0. -1.
    9900012    2    1    2    0    0 -0.10873765458E+01 -0.20670122536E+00 -0.40985064168E+00  0.90007707368E+02  0.89999968305E+02 0.  0.
        -12    1    1    2    0    0  0.10873765458E+01  0.20670122536E+00  0.40985064168E+00  0.11802926322E+01  0.00000000000E+00 0.  1.
         11    1    3    3    0    0  0.28690830768E+01  0.51694318675E+01  0.91485957450E+01  0.10892725458E+02  0.51100000000E-03 0. -1.
        -11    1    3    3    0    0 -0.38317713216E+02  0.99071921732E+01  0.24058401720E+01  0.39650821808E+02  0.51100000000E-03 0.  1.
         12    1    3    3    0    0  0.34361253593E+02 -0.15283325266E+02 -0.11964286559E+02  0.39464160102E+02  0.00000000000E+00 0. -1.
</event>
<event>
 7    1  0.5158441E-015  0.9000798E+02  0.7816164E-02  0.1186339E+00
        -11   -1    0    0    0    0  0.00000000000E+00  0.00000000000E+00  0.45593999997E+02  0.45594000000E+02  0.51100000000E-03 0.  1.
         11   -1    0    0    0    0 -0.00000000000E+00 -0.00000000000E+00 -0.45593999997E+02  0.45594000000E+02  0.51100000000E-03 0. -1.
    9900012    2    1    2    0    0 -0.11050391870E+01  0.25003577611E+00  0.32985825233E+00  0.90007984763E+02  0.90000249361E+02 0.  0.
        -12    1    1    2    0    0  0.11050391870E+01 -0.25003577611E+00 -0.32985825233E+00  0.11800152375E+01  0.00000000000E+00 0.  1.
         11    1    3    3    0    0  0.18400469260E+01  0.19452214814E+02 -0.31123909637E+02  0.36748771207E+02  0.51100000000E-03 0. -1.
        -11    1    3    3    0    0 -0.14149312002E+00  0.88223398220E+01 -0.24748986682E+01  0.91639960671E+01  0.51100000000E-03 0.  1.
        -12    1    3    3    0    0 -0.28035929930E+01 -0.28024518860E+02  0.33928666558E+02  0.44095217489E+02  0.00000000000E+00 0.  1.
</event>
<event>
 7    1  0.5158441E-015  0.9000741E+02  0.7816164E-02  0.1186340E+00
        -11   -1    0    0    0    0  0.00000000000E+00  0.00000000000E+00  0.45593999997E+02  0.45594000000E+02  0.51100000000E-03 0. -1.
         11   -1    0    0    0    0 -0.00000000000E+00 -0.00000000000E+00 -0.45593999997E+02  0.45594000000E+02  0.51100000000E-03 0.  1.
    9900012    2    1    2    0    0 -0.88808196979E+00  0.77764118191E+00  0.19327721217E-01  0.90007411607E+02  0.89999668640E+02 0.  0.
        -12    1    1    2    0    0  0.88808196979E+00 -0.77764118191E+00 -0.19327721217E-01  0.11805883930E+01  0.00000000000E+00 0.  1.
         11    1    3    3    0    0 -0.42636335783E+01  0.23862426829E+02  0.27480551609E+02  0.36643890383E+02  0.51100000000E-03 0. -1.
        -11    1    3    3    0    0 -0.84937398678E+01  0.62709244999E+01  0.12358480911E+01  0.10629930940E+02  0.51100000000E-03 0.  1.
        -12    1    3    3    0    0  0.11869291476E+02 -0.29355710147E+02 -0.28697071978E+02  0.42733590283E+02  0.00000000000E+00 0.  1.
</event>
<event>
 7    1  0.5158441E-015  0.9000771E+02  0.7816164E-02  0.1186339E+00
        -11   -1    0    0    0    0  0.00000000000E+00  0.00000000000E+00  0.45593999997E+02  0.45594000000E+02  0.51100000000E-03 0. -1.
         11   -1    0    0    0    0 -0.00000000000E+00 -0.00000000000E+00 -0.45593999997E+02  0.45594000000E+02  0.51100000000E-03 0.  1.
    9900012    2    1    2    0    0  0.59226169010E+00  0.72476641709E+00  0.71905077265E+00  0.90007705849E+02  0.89999966766E+02 0.  0.
        -12    1    1    2    0    0 -0.59226169010E+00 -0.72476641709E+00 -0.71905077265E+00  0.11802941509E+01  0.00000000000E+00 0.  1.
         11    1    3    3    0    0 -0.42102247067E+01  0.50959530310E+01 -0.98927382962E+01  0.11897941025E+02  0.51100000000E-03 0. -1.
        -11    1    3    3    0    0  0.10682536234E+02 -0.18027644798E+02 -0.29011867827E+02  0.35788280658E+02  0.51100000000E-03 0.  1.
         12    1    3    3    0    0 -0.58800498371E+01  0.13656458184E+02  0.39623656896E+02  0.42321484166E+02  0.00000000000E+00 0. -1.
</event>
<event>
 7    1  0.5158441E-015  0.9000776E+02  0.7816164E-02  0.1186339E+00
        -11   -1    0    0    0    0  0.00000000000E+00  0.00000000000E+00  0.45593999997E+02  0.45594000000E+02  0.51100000000E-03 0. -1.
         11   -1    0    0    0    0 -0.00000000000E+00 -0.00000000000E+00 -0.45593999997E+02  0.45594000000E+02  0.51100000000E-03 0.  1.
    9900012    2    1    2    0    0 -0.90449564844E+00 -0.22306631009E+00  0.72464017963E+00  0.90007756658E+02  0.90000018246E+02 0.  0.
        -12    1    1    2    0    0  0.90449564844E+00  0.22306631009E+00 -0.72464017963E+00  0.11802433421E+01  0.00000000000E+00 0.  1.
         11    1    3    3    0    0 -0.14312337723E+01 -0.28319295596E+01 -0.11887919081E+02  0.12304099946E+02  0.51100000000E-03 0. -1.
        -11    1    3    3    0    0  0.15215132954E+02 -0.11377133528E+02 -0.27109134949E+02  0.33103544162E+02  0.51100000000E-03 0.  1.
         12    1    3    3    0    0 -0.14688394830E+02  0.13985996777E+02  0.39721694210E+02  0.44600112550E+02  0.00000000000E+00 0. -1.
</event>
<event>
 7    1  0.5158441E-015  0.9000773E+02  0.7816164E-02  0.1186339E+00
        -11   -1    0    0    0    0  0.00000000000E+00  0.00000000000E+00  0.45593999997E+02  0.45594000000E+02  0.51100000000E-03 0. -1.
         11   -1    0    0    0    0 -0.00000000000E+00 -0.00000000000E+00 -0.45593999997E+02  0.45594000000E+02  0.51100000000E-03 0.  1.
    9900012    2    1    2    0    0  0.11565628346E+01  0.20713332977E+00  0.11175760124E+00  0.90007732417E+02  0.89999993685E+02 0.  0.
        -12    1    1    2    0    0 -0.11565628346E+01 -0.20713332977E+00 -0.11175760124E+00  0.11802675833E+01  0.00000000000E+00 0.  1.
         11    1    3    3    0    0 -0.11482572703E+02 -0.30617435139E+02 -0.14988658403E+02  0.35971331520E+02  0.51100000000E-03 0. -1.
        -11    1    3    3    0    0 -0.73073766845E+01 -0.44137584774E+01 -0.38072846809E+01  0.93474293156E+01  0.51100000000E-03 0.  1.
        -12    1    3    3    0    0  0.19946512222E+02  0.35238326946E+02  0.18907700685E+02  0.44688971581E+02  0.00000000000E+00 0.  1.
</event>
<event>
 7    1  0.5158441E-015  0.9000786E+02  0.7816164E-02  0.1186339E+00
        -11   -1    0    0    0    0  0.00000000000E+00  0.00000000000E+00  0.45593999997E+02  0.45594000000E+02  0.51100000000E-03 0.  1.
         11   -1    0    0    0    0 -0.00000000000E+00 -0.00000000000E+00 -0.45593999997E+02  0.45594000000E+02  0.51100000000E-03 0. -1.
    9900012    2    1    2    0    0 -0.85016343522E+00  0.75761138306E+00 -0.30982063393E+00  0.90007855221E+02  0.90000118110E+02 0.  0.
        -12    1    1    2    0    0  0.85016343522E+00 -0.75761138306E+00  0.30982063393E+00  0.11801447791E+01  0.00000000000E+00 0.  1.
         11    1    3    3    0    0 -0.62838885892E+01  0.58638278126E+01  0.41656662956E+01  0.95511522009E+01  0.51100000000E-03 0. -1.
        -11    1    3    3    0    0 -0.23992227863E+02  0.33712468801E+01  0.27181701572E+02  0.36412047511E+02  0.51100000000E-03 0.  1.
         12    1    3    3    0    0  0.29425953017E+02 -0.84774633097E+01 -0.31657188501E+02  0.44044655509E+02  0.00000000000E+00 0. -1.
</event>
<event>
 7    1  0.5158441E-015  0.9000778E+02  0.7816164E-02  0.1186339E+00
        -11   -1    0    0    0    0  0.00000000000E+00  0.00000000000E+00  0.45593999997E+02  0.45594000000E+02  0.51100000000E-03 0. -1.
         11   -1    0    0    0    0 -0.00000000000E+00 -0.00000000000E+00 -0.45593999997E+02  0.45594000000E+02  0.51100000000E-03 0.  1.
    9900012    2    1    2    0    0 -0.84245632791E+00  0.36662348284E+00  0.74079593455E+00  0.90007777962E+02  0.90000039831E+02 0.  0.
        -12    1    1    2    0    0  0.84245632791E+00 -0.36662348284E+00 -0.74079593455E+00  0.11802220381E+01  0.00000000000E+00 0.  1.
         11    1    3    3    0    0 -0.17744331655E+02  0.32368416109E+02 -0.98056732456E+01  0.38193283381E+02  0.51100000000E-03 0. -1.
        -11    1    3    3    0    0  0.16624550656E+01  0.75848925207E+01  0.44787783331E+01  0.89640285036E+01  0.51100000000E-03 0.  1.
        -12    1    3    3    0    0  0.15239420262E+02 -0.39586685147E+02  0.60676908471E+01  0.42850466078E+02  0.00000000000E+00 0.  1.
</event>
<event>
 7    1  0.5158441E-015  0.9000762E+02  0.7816164E-02  0.1186339E+00
        -11   -1    0    0    0    0  0.00000000000E+00  0.00000000000E+00  0.45593999997E+02  0.45594000000E+02  0.51100000000E-03 0.  1.
         11   -1    0    0    0    0 -0.00000000000E+00 -0.00000000000E+00 -0.45593999997E+02  0.45594000000E+02  0.51100000000E-03 0. -1.
    9900012    2    1    2    0    0 -0.11238023198E+01  0.32985767757E+00  0.14679427293E+00  0.90007624509E+02  0.89999884352E+02 0.  0.
        -12    1    1    2    0    0  0.11238023198E+01 -0.32985767757E+00 -0.14679427293E+00  0.11803754911E+01  0.00000000000E+00 0.  1.
         11    1    3    3    0    0  0.60914104644E+01 -0.88324449033E+01 -0.38356463134E+01  0.11394276955E+02  0.51100000000E-03 0. -1.
        -11    1    3    3    0    0  0.17800380861E+02 -0.22684889511E+02  0.19969488678E+02  0.35074752305E+02  0.51100000000E-03 0.  1.
         12    1    3    3    0    0 -0.25015593645E+02  0.31847192092E+02 -0.15987048091E+02  0.43538595249E+02  0.00000000000E+00 0. -1.
</event>
<event>
 7    1  0.5158441E-015  0.9000778E+02  0.7816164E-02  0.1186339E+00
        -11   -1    0    0    0    0  0.00000000000E+00  0.00000000000E+00  0.45593999997E+02  0.45594000000E+02  0.51100000000E-03 0.  1.
         11   -1    0    0    0    0 -0.00000000000E+00 -0.00000000000E+00 -0.45593999997E+02  0.45594000000E+02  0.51100000000E-03 0. -1.
    9900012    2    1    2    0    0  0.78742660546E+00  0.77560077191E+00  0.41391126112E+00  0.90007779788E+02  0.90000041681E+02 0.  0.
        -12    1    1    2    0    0 -0.78742660546E+00 -0.77560077191E+00 -0.41391126112E+00  0.11802202118E+01  0.00000000000E+00 0.  1.
         11    1    3    3    0    0  0.32926262575E+01 -0.72935280066E+01 -0.33214243105E+01  0.86642251913E+01  0.51100000000E-03 0. -1.
        -11    1    3    3    0    0 -0.14737186634E+02 -0.27678537113E+02 -0.19558980263E+02  0.36957269864E+02  0.51100000000E-03 0.  1.
         12    1    3    3    0    0  0.12231986982E+02  0.35747665892E+02  0.23294315834E+02  0.44386284733E+02  0.00000000000E+00 0. -1.
</event>
<event>
 7    1  0.5588960E-015  0.9000777E+02  0.7816164E-02  0.1186339E+00
        -11   -1    0    0    0    0  0.00000000000E+00  0.00000000000E+00  0.45593999997E+02  0.45594000000E+02  0.51100000000E-03 0. -1.
         11   -1    0    0    0    0 -0.00000000000E+00 -0.00000000000E+00 -0.45593999997E+02  0.45594000000E+02  0.51100000000E-03 0.  1.
    9900012    2    1    2    0    0 -0.90634857612E+00  0.61224504998E+00  0.44342427032E+00  0.90007772553E+02  0.90000034351E+02 0.  0.
        -12    1    1    2    0    0  0.90634857612E+00 -0.61224504998E+00 -0.44342427032E+00  0.11802274468E+01  0.00000000000E+00 0.  1.
         11    1    3    3    0    0  0.15678657499E+02 -0.55766523271E+01  0.38009164236E+02  0.41492359758E+02  0.51100000000E-03 0. -1.
        -11    1    3    3    0    0 -0.90335136195E+01  0.34813327092E+01  0.42154868503E+00  0.96902914972E+01  0.51100000000E-03 0.  1.
        -12    1    3    3    0    0 -0.75514924554E+01  0.27075646679E+01 -0.37987288651E+02  0.38825121298E+02  0.00000000000E+00 0.  1.
</event>
<event>
 7    1  0.5158441E-015  0.9000779E+02  0.7816164E-02  0.1186339E+00
        -11   -1    0    0    0    0  0.00000000000E+00  0.00000000000E+00  0.45593999997E+02  0.45594000000E+02  0.51100000000E-03 0. -1.
         11   -1    0    0    0    0 -0.00000000000E+00 -0.00000000000E+00 -0.45593999997E+02  0.45594000000E+02  0.51100000000E-03 0.  1.
    9900012    2    1    2    0    0  0.27621984329E+00  0.60944358476E+00  0.97220090849E+00  0.90007790912E+02  0.90000052952E+02 0.  0.
        -12    1    1    2    0    0 -0.27621984329E+00 -0.60944358476E+00 -0.97220090849E+00  0.11802090880E+01  0.00000000000E+00 0.  1.
         11    1    3    3    0    0  0.20705843869E+02  0.37162341198E+02  0.13610589090E+01  0.42563177223E+02  0.51100000000E-03 0. -1.
        -11    1    3    3    0    0 -0.23922340513E+01 -0.18657259144E+01  0.70242383356E+01  0.76513816661E+01  0.51100000000E-03 0.  1.
        -12    1    3    3    0    0 -0.18037389975E+02 -0.34687171699E+02 -0.74130963362E+01  0.39793232023E+02  0.00000000000E+00 0.  1.
</event>
<event>
 7    1  0.5158441E-015  0.9000776E+02  0.7816164E-02  0.1186339E+00
        -11   -1    0    0    0    0  0.00000000000E+00  0.00000000000E+00  0.45593999997E+02  0.45594000000E+02  0.51100000000E-03 0.  1.
         11   -1    0    0    0    0 -0.00000000000E+00 -0.00000000000E+00 -0.45593999997E+02  0.45594000000E+02  0.51100000000E-03 0. -1.
    9900012    2    1    2    0    0 -0.58890294636E+00  0.26834139732E+00  0.98699185549E+00  0.90007759894E+02  0.90000021524E+02 0.  0.
        -12    1    1    2    0    0  0.58890294636E+00 -0.26834139732E+00 -0.98699185549E+00  0.11802401063E+01  0.00000000000E+00 0.  1.
         11    1    3    3    0    0  0.16070143950E+01  0.73387344008E+01  0.85226727557E+01  0.11361138545E+02  0.51100000000E-03 0. -1.
        -11    1    3    3    0    0 -0.29746008730E+02  0.19469602761E+02  0.94579017308E+01  0.36787801952E+02  0.51100000000E-03 0.  1.
         12    1    3    3    0    0  0.27550091389E+02 -0.26539995764E+02 -0.16993582631E+02  0.41858819397E+02  0.00000000000E+00 0. -1.
</event>
<event>
 7    1  0.5158441E-015  0.9000748E+02  0.7816164E-02  0.1186340E+00
        -11   -1    0    0    0    0  0.00000000000E+00  0.00000000000E+00  0.45593999997E+02  0.45594000000E+02  0.51100000000E-03 0.  1.
         11   -1    0    0    0    0 -0.00000000000E+00 -0.00000000000E+00 -0.45593999997E+02  0.45594000000E+02  0.51100000000E-03 0. -1.
    9900012    2    1    2    0    0  0.31353998217E+00  0.33348784281E+00 -0.10881620302E+01  0.90007483983E+02  0.89999741972E+02 0.  0.
        -12    1    1    2    0    0 -0.31353998217E+00 -0.33348784281E+00  0.10881620302E+01  0.11805160167E+01  0.00000000000E+00 0.  1.
         11    1    3    3    0    0 -0.45959422404E-01  0.91324766719E+01 -0.26622506461E+01  0.95127189171E+01  0.51100000000E-03 0. -1.
        -11    1    3    3    0    0 -0.20096887968E+02  0.64846806878E+01  0.33507792912E+02  0.39606920806E+02  0.51100000000E-03 0.  1.
         12    1    3    3    0    0  0.20456387372E+02 -0.15283669517E+02 -0.31933704296E+02  0.40887844261E+02  0.00000000000E+00 0. -1.
</event>
<event>
 7    1  0.5158441E-015  0.9000773E+02  0.7816164E-02  0.1186339E+00
        -11   -1    0    0    0    0  0.00000000000E+00  0.00000000000E+00  0.45593999997E+02  0.45594000000E+02  0.51100000000E-03 0.  1.
         11   -1    0    0    0    0 -0.00000000000E+00 -0.00000000000E+00 -0.45593999997E+02  0.45594000000E+02  0.51100000000E-03 0. -1.
    9900012    2    1    2    0    0 -0.14130165112E+00  0.87780302625E+00 -0.77622267363E+00  0.90007734797E+02  0.89999996097E+02 0.  0.
        -12    1    1    2    0    0  0.14130165112E+00 -0.87780302625E+00  0.77622267363E+00  0.11802652026E+01  0.00000000000E+00 0.  1.
         11    1    3    3    0    0  0.32110064801E+02  0.16978180072E+02  0.89317356300E+01  0.37404421687E+02  0.51100000000E-03 0. -1.
        -11    1    3    3    0    0  0.76350199516E+01  0.13256499953E+01 -0.39479336446E+01  0.86969568180E+01  0.51100000000E-03 0.  1.
        -12    1    3    3    0    0 -0.39886386404E+02 -0.17426027041E+02 -0.57600246591E+01  0.43906356292E+02  0.00000000000E+00 0.  1.
</event>
<event>
 7    1  0.5158441E-015  0.9000774E+02  0.7816164E-02  0.1186339E+00
        -11   -1    0    0    0    0  0.00000000000E+00  0.00000000000E+00  0.45593999997E+02  0.45594000000E+02  0.51100000000E-03 0.  1.
         11   -1    0    0    0    0 -0.00000000000E+00 -0.00000000000E+00 -0.45593999997E+02  0.45594000000E+02  0.51100000000E-03 0. -1.
    9900012    2    1    2    0    0 -0.11481763420E+01 -0.17271591096E+00  0.21180703747E+00  0.90007744977E+02  0.90000006411E+02 0.  0.
        -12    1    1    2    0    0  0.11481763420E+01  0.17271591096E+00 -0.21180703747E+00  0.11802550231E+01  0.00000000000E+00 0.  1.
         11    1    3    3    0    0 -0.62694487533E+01  0.24435933061E+00  0.67064348188E+01  0.91837882920E+01  0.51100000000E-03 0. -1.
        -11    1    3    3    0    0  0.25223323019E+02 -0.28323942506E+02  0.14414380037E+02  0.40573835107E+02  0.51100000000E-03 0.  1.
         12    1    3    3    0    0 -0.20102050607E+02  0.27906867264E+02 -0.20909007818E+02  0.40250121578E+02  0.00000000000E+00 0. -1.
</event>
<event>
 7    1  0.5158441E-015  0.9000775E+02  0.7816164E-02  0.1186339E+00
        -11   -1    0    0    0    0  0.00000000000E+00  0.00000000000E+00  0.45593999997E+02  0.45594000000E+02  0.51100000000E-03 0. -1.
         11   -1    0    0    0    0 -0.00000000000E+00 -0.00000000000E+00 -0.45593999997E+02  0.45594000000E+02  0.51100000000E-03 0.  1.
    9900012    2    1    2    0    0  0.67531435749E+00 -0.95511027631E+00  0.15717615282E+00  0.90007750253E+02  0.90000011757E+02 0.  0.
        -12    1    1    2    0    0 -0.67531435749E+00  0.95511027631E+00 -0.15717615282E+00  0.11802497466E+01  0.00000000000E+00 0.  1.
         11    1    3    3    0    0  0.83662395657E+00  0.13691583823E+01  0.95623648432E+01  0.96960484722E+01  0.51100000000E-03 0. -1.
        -11    1    3    3    0    0 -0.31294084041E+00  0.36394209947E+02 -0.18071121621E+02  0.40634983531E+02  0.51100000000E-03 0.  1.
         12    1    3    3    0    0  0.15163124133E+00 -0.38718478606E+02  0.86659329305E+01  0.39676718250E+02  0.00000000000E+00 0. -1.
</event>
<event>
 7    1  0.5158441E-015  0.9000788E+02  0.7816164E-02  0.1186339E+00
        -11   -1    0    0    0    0  0.00000000000E+00  0.00000000000E+00  0.45593999997E+02  0.45594000000E+02  0.51100000000E-03 0.  1.
         11   -1    0    0    0    0 -0.00000000000E+00 -0.00000000000E+00 -0.45593999997E+02  0.45594000000E+02  0.51100000000E-03 0. -1.
    9900012    2    1    2    0    0  0.62304822073E+00 -0.11300059763E+00 -0.99584798368E+00  0.90007884994E+02  0.90000148276E+02 0.  0.
        -12    1    1    2    0    0 -0.62304822073E+00  0.11300059763E+00  0.99584798368E+00  0.11801150058E+01  0.00000000000E+00 0.  1.
         11    1    3    3    0    0  0.91904468841E+01 -0.28996394167E+01  0.13700774440E+01  0.97339270154E+01  0.51100000000E-03 0. -1.
        -11    1    3    3    0    0  0.23723704092E+02  0.62063909278E+01  0.27013688857E+02  0.36483870548E+02  0.51100000000E-03 0.  1.
         12    1    3    3    0    0 -0.32291102756E+02 -0.34197521087E+01 -0.29379614285E+02  0.43790087431E+02  0.00000000000E+00 0. -1.
</event>
<event>
 7    1  0.5158441E-015  0.9000853E+02  0.7816164E-02  0.1186337E+00
        -11   -1    0    0    0    0  0.00000000000E+00  0.00000000000E+00  0.45593999997E+02  0.45594000000E+02  0.51100000000E-03 0. -1.
         11   -1    0    0    0    0 -0.00000000000E+00 -0.00000000000E+00 -0.45593999997E+02  0.45594000000E+02  0.51100000000E-03 0.  1.
    9900012    2    1    2    0    0 -0.56554277485E+00  0.65730689052E+00  0.79953866085E+00  0.90008528488E+02  0.90000800260E+02 0.  0.
        -12    1    1    2    0    0  0.56554277485E+00 -0.65730689052E+00 -0.79953866085E+00  0.11794715125E+01  0.00000000000E+00 0.  1.
         11    1    3    3    0    0 -0.57141805071E+01  0.68891489942E+01 -0.97064490380E+00  0.90030208554E+01  0.51100000000E-03 0. -1.
        -11    1    3    3    0    0  0.28202257276E+02  0.27427369919E+02  0.67179164430E+01  0.39909376565E+02  0.51100000000E-03 0.  1.
         12    1    3    3    0    0 -0.23053619544E+02 -0.33659212023E+02 -0.49477328784E+01  0.41096131068E+02  0.00000000000E+00 0. -1.
</event>
<event>
 7    1  0.6387720E-015  0.9000763E+02  0.7816164E-02  0.1186339E+00
        -11   -1    0    0    0    0  0.00000000000E+00  0.00000000000E+00  0.45593999997E+02  0.45594000000E+02  0.51100000000E-03 0. -1.
         11   -1    0    0    0    0 -0.00000000000E+00 -0.00000000000E+00 -0.45593999997E+02  0.45594000000E+02  0.51100000000E-03 0.  1.
    9900012    2    1    2    0    0 -0.38552743416E+00 -0.89679223380E-01  0.11120203360E+01  0.90007634382E+02  0.89999894355E+02 0.  0.
        -12    1    1    2    0    0  0.38552743416E+00  0.89679223380E-01 -0.11120203360E+01  0.11803656185E+01  0.00000000000E+00 0.  1.
         11    1    3    3    0    0 -0.17232467035E+02 -0.19745534942E+02  0.29236580654E+02  0.39263490916E+02  0.51100000000E-03 0. -1.
        -11    1    3    3    0    0  0.82345053093E+01 -0.11650065787E+01  0.57140409182E+01  0.10090321199E+02  0.51100000000E-03 0.  1.
        -12    1    3    3    0    0  0.86124342920E+01  0.20820862298E+02 -0.33838601237E+02  0.40653822267E+02  0.00000000000E+00 0.  1.
</event>
<event>
 7    1  0.5158441E-015  0.9000753E+02  0.7816164E-02  0.1186339E+00
        -11   -1    0    0    0    0  0.00000000000E+00  0.00000000000E+00  0.45593999997E+02  0.45594000000E+02  0.51100000000E-03 0.  1.
         11   -1    0    0    0    0 -0.00000000000E+00 -0.00000000000E+00 -0.45593999997E+02  0.45594000000E+02  0.51100000000E-03 0. -1.
    9900012    2    1    2    0    0  0.15658035765E+00 -0.11573178773E+00 -0.11642969686E+01  0.90007534547E+02  0.89999793203E+02 0.  0.
        -12    1    1    2    0    0 -0.15658035765E+00  0.11573178773E+00  0.11642969686E+01  0.11804654532E+01  0.00000000000E+00 0.  1.
         11    1    3    3    0    0 -0.10749825893E+02  0.17735176182E+02 -0.38795678127E+02  0.43990906703E+02  0.51100000000E-03 0. -1.
        -11    1    3    3    0    0  0.15961018929E+01  0.26336904018E+01  0.95391527162E+01  0.10023936412E+02  0.51100000000E-03 0.  1.
        -12    1    3    3    0    0  0.93103043582E+01 -0.20484598371E+02  0.28092228442E+02  0.35992691432E+02  0.00000000000E+00 0.  1.
</event>
<event>
 7    1  0.5158441E-015  0.9000782E+02  0.7816164E-02  0.1186339E+00
        -11   -1    0    0    0    0  0.00000000000E+00  0.00000000000E+00  0.45593999997E+02  0.45594000000E+02  0.51100000000E-03 0. -1.
         11   -1    0    0    0    0 -0.00000000000E+00 -0.00000000000E+00 -0.45593999997E+02  0.45594000000E+02  0.51100000000E-03 0.  1.
    9900012    2    1    2    0    0 -0.16135380216E+00 -0.70881807735E+00  0.92971418512E+00  0.90007819259E+02  0.90000081673E+02 0.  0.
        -12    1    1    2    0    0  0.16135380216E+00  0.70881807735E+00 -0.92971418512E+00  0.11801807414E+01  0.00000000000E+00 0.  1.
         11    1    3    3    0    0 -0.14730162337E+02 -0.20071454400E+02 -0.21400000918E+02  0.32829879740E+02  0.51100000000E-03 0. -1.
        -11    1    3    3    0    0 -0.80141130181E+01 -0.84845334498E+01 -0.43836272204E+01  0.12467136929E+02  0.51100000000E-03 0.  1.
        -12    1    3    3    0    0  0.22582921553E+02  0.27847169772E+02  0.26713342323E+02  0.44710802590E+02  0.00000000000E+00 0.  1.
</event>
<event>
 7    1  0.5158441E-015  0.9000768E+02  0.7816164E-02  0.1186339E+00
        -11   -1    0    0    0    0  0.00000000000E+00  0.00000000000E+00  0.45593999997E+02  0.45594000000E+02  0.51100000000E-03 0.  1.
         11   -1    0    0    0    0 -0.00000000000E+00 -0.00000000000E+00 -0.45593999997E+02  0.45594000000E+02  0.51100000000E-03 0. -1.
    9900012    2    1    2    0    0 -0.55668588947E-01 -0.78528203950E+00 -0.87942970819E+00  0.90007676534E+02  0.89999937064E+02 0.  0.
        -12    1    1    2    0    0  0.55668588947E-01  0.78528203950E+00  0.87942970819E+00  0.11803234663E+01  0.00000000000E+00 0.  1.
         11    1    3    3    0    0  0.14408724050E+00 -0.51240651820E+01  0.97279662220E+01  0.10995914341E+02  0.51100000000E-03 0. -1.
        -11    1    3    3    0    0 -0.38389993182E+01 -0.26049379632E+02 -0.32171168950E+02  0.41572733935E+02  0.51100000000E-03 0.  1.
         12    1    3    3    0    0  0.36392434887E+01  0.30388162775E+02  0.21563773020E+02  0.37439028257E+02  0.00000000000E+00 0. -1.
</event>
<event>
 7    1  0.5158441E-015  0.9000775E+02  0.7816164E-02  0.1186339E+00
        -11   -1    0    0    0    0  0.00000000000E+00  0.00000000000E+00  0.45593999997E+02  0.45594000000E+02  0.51100000000E-03 0.  1.
         11   -1    0    0    0    0 -0.00000000000E+00 -0.00000000000E+00 -0.45593999997E+02  0.45594000000E+02  0.51100000000E-03 0. -1.
    9900012    2    1    2    0    0 -0.11310096680E+01 -0.16422080814E+00 -0.29467549995E+00  0.90007752148E+02  0.90000013676E+02 0.  0.
        -12    1    1    2    0    0  0.11310096680E+01  0.16422080814E+00  0.29467549995E+00  0.11802478524E+01  0.00000000000E+00 0.  1.
         11    1    3    3    0    0  0.49526056087E+01  0.76895914466E+01 -0.32134556823E+01  0.96945560297E+01  0.51100000000E-03 0. -1.
        -11    1    3    3    0    0 -0.74161115386E+01  0.20766237506E+02  0.32407451691E+02  0.39197936883E+02  0.51100000000E-03 0.  1.
         12    1    3    3    0    0  0.13324962620E+01 -0.28620049761E+02 -0.29488671509E+02  0.41115259235E+02  0.00000000000E+00 0. -1.
</event>
<event>
 7    1  0.5158441E-015  0.9000773E+02  0.7816164E-02  0.1186339E+00
        -11   -1    0    0    0    0  0.00000000000E+00  0.00000000000E+00  0.45593999997E+02  0.45594000000E+02  0.51100000000E-03 0. -1.
         11   -1    0    0    0    0 -0.00000000000E+00 -0.00000000000E+00 -0.45593999997E+02  0.45594000000E+02  0.51100000000E-03 0.  1.
    9900012    2    1    2    0    0 -0.10647602008E+00  0.10032726804E+01  0.61248874777E+00  0.90007730675E+02  0.89999991920E+02 0.  0.
        -12    1    1    2    0    0  0.10647602008E+00 -0.10032726804E+01 -0.61248874777E+00  0.11802693253E+01  0.00000000000E+00 0.  1.
         11    1    3    3    0    0 -0.57075902002E+01  0.19917865629E+01 -0.69702395393E+01  0.92264857396E+01  0.51100000000E-03 0. -1.
        -11    1    3    3    0    0 -0.29847627763E+02  0.20534931591E+02  0.13953343448E+02  0.38823447711E+02  0.51100000000E-03 0.  1.
         12    1    3    3    0    0  0.35448741943E+02 -0.21523445473E+02 -0.63706151614E+01  0.41957797224E+02  0.00000000000E+00 0. -1.
</event>
<event>
 7    1  0.5158441E-015  0.9000773E+02  0.7816164E-02  0.1186339E+00
        -11   -1    0    0    0    0  0.00000000000E+00  0.00000000000E+00  0.45593999997E+02  0.45594000000E+02  0.51100000000E-03 0.  1.
         11   -1    0    0    0    0 -0.00000000000E+00 -0.00000000000E+00 -0.45593999997E+02  0.45594000000E+02  0.51100000000E-03 0. -1.
    9900012    2    1    2    0    0  0.57308726361E+00  0.69985048619E-01 -0.10294219647E+01  0.90007730327E+02  0.89999991568E+02 0.  0.
        -12    1    1    2    0    0 -0.57308726361E+00 -0.69985048619E-01  0.10294219647E+01  0.11802696726E+01  0.00000000000E+00 0.  1.
         11    1    3    3    0    0 -0.58771055921E+01 -0.21724665912E+02 -0.32399974855E+02  0.39449459438E+02  0.51100000000E-03 0. -1.
        -11    1    3    3    0    0 -0.90131361151E+01  0.46633515124E+01 -0.16408547873E+01  0.10279877171E+02  0.51100000000E-03 0.  1.
        -12    1    3    3    0    0  0.15463328971E+02  0.17131299448E+02  0.33011407678E+02  0.40278393718E+02  0.00000000000E+00 0.  1.
</event>
<event>
 7    1  0.5158441E-015  0.9000774E+02  0.7816164E-02  0.1186339E+00
        -11   -1    0    0    0    0  0.00000000000E+00  0.00000000000E+00  0.45593999997E+02  0.45594000000E+02  0.51100000000E-03 0.  1.
         11   -1    0    0    0    0 -0.00000000000E+00 -0.00000000000E+00 -0.45593999997E+02  0.45594000000E+02  0.51100000000E-03 0. -1.
    9900012    2    1    2    0    0 -0.91111400138E+00  0.33700012830E+00 -0.67031148339E+00  0.90007739311E+02  0.90000000670E+02 0.  0.
        -12    1    1    2    0    0  0.91111400138E+00 -0.33700012830E+00  0.67031148339E+00  0.11802606893E+01  0.00000000000E+00 0.  1.
         11    1    3    3    0    0 -0.36136904707E+01 -0.77058507104E+01 -0.77015953022E+01  0.11478391196E+02  0.51100000000E-03 0. -1.
        -11    1    3    3    0    0 -0.72086698903E+01  0.42099319156E+02  0.27134441143E+01  0.42798135172E+02  0.51100000000E-03 0.  1.
         12    1    3    3    0    0  0.99112463595E+01 -0.34056468317E+02  0.43178397046E+01  0.35731212943E+02  0.00000000000E+00 0. -1.
</event>
<event>
 7    1  0.5158441E-015  0.9000833E+02  0.7816164E-02  0.1186338E+00
        -11   -1    0    0    0    0  0.00000000000E+00  0.00000000000E+00  0.45593999997E+02  0.45594000000E+02  0.51100000000E-03 0.  1.
         11   -1    0    0    0    0 -0.00000000000E+00 -0.00000000000E+00 -0.45593999997E+02  0.45594000000E+02  0.51100000000E-03 0. -1.
    9900012    2    1    2    0    0  0.44703677805E+00 -0.10802574418E+01  0.15758773786E+00  0.90008325504E+02  0.90000594599E+02 0.  0.
        -12    1    1    2    0    0 -0.44703677805E+00  0.10802574418E+01 -0.15758773786E+00  0.11796744961E+01  0.00000000000E+00 0.  1.
         11    1    3    3    0    0 -0.47635809125E+01 -0.54258248805E+01  0.70419986714E+01  0.10085684126E+02  0.51100000000E-03 0. -1.
        -11    1    3    3    0    0 -0.27316688158E+02 -0.18263107564E+00  0.22855070927E+02  0.35617258083E+02  0.51100000000E-03 0.  1.
         12    1    3    3    0    0  0.32527305849E+02  0.45281985143E+01 -0.29739481860E+02  0.44305383295E+02  0.00000000000E+00 0. -1.
</event>
<event>
 7    1  0.5158441E-015  0.9000775E+02  0.7816164E-02  0.1186339E+00
        -11   -1    0    0    0    0  0.00000000000E+00  0.00000000000E+00  0.45593999997E+02  0.45594000000E+02  0.51100000000E-03 0. -1.
         11   -1    0    0    0    0 -0.00000000000E+00 -0.00000000000E+00 -0.45593999997E+02  0.45594000000E+02  0.51100000000E-03 0.  1.
    9900012    2    1    2    0    0 -0.12264955549E+00  0.42662150560E+00  0.10935894828E+01  0.90007751391E+02  0.90000012909E+02 0.  0.
        -12    1    1    2    0    0  0.12264955549E+00 -0.42662150560E+00 -0.10935894828E+01  0.11802486091E+01  0.00000000000E+00 0.  1.
         11    1    3    3    0    0 -0.12874899756E+02  0.35203014122E+02  0.10642880302E+02  0.38965191497E+02  0.51100000000E-03 0. -1.
        -11    1    3    3    0    0 -0.10146266014E+02 -0.26649528287E+01 -0.11871121135E+00  0.10491080984E+02  0.51100000000E-03 0.  1.
        -12    1    3    3    0    0  0.22898516214E+02 -0.32111439788E+02 -0.94305796076E+01  0.40551478910E+02  0.00000000000E+00 0.  1.
</event>
<event>
 7    1  0.5158441E-015  0.9000803E+02  0.7816164E-02  0.1186338E+00
        -11   -1    0    0    0    0  0.00000000000E+00  0.00000000000E+00  0.45593999997E+02  0.45594000000E+02  0.51100000000E-03 0.  1.
         11   -1    0    0    0    0 -0.00000000000E+00 -0.00000000000E+00 -0.45593999997E+02  0.45594000000E+02  0.51100000000E-03 0. -1.
    9900012    2    1    2    0    0 -0.95451231178E+00 -0.67497410015E+00  0.16017769711E+00  0.90008025134E+02  0.90000290266E+02 0.  0.
        -12    1    1    2    0    0  0.95451231178E+00  0.67497410015E+00 -0.16017769711E+00  0.11799748658E+01  0.00000000000E+00 0.  1.
         11    1    3    3    0    0  0.61143252583E+01 -0.46794740031E+01  0.64313376981E+01  0.10032175993E+02  0.51100000000E-03 0. -1.
        -11    1    3    3    0    0 -0.68480894423E+01 -0.35952672956E+02  0.81496761653E+01  0.37495442971E+02  0.51100000000E-03 0.  1.
         12    1    3    3    0    0 -0.22074812778E+00  0.39957172859E+02 -0.14420836166E+02  0.42480406170E+02  0.00000000000E+00 0. -1.
</event>
<event>
 7    1  0.5158441E-015  0.9000766E+02  0.7816164E-02  0.1186339E+00
        -11   -1    0    0    0    0  0.00000000000E+00  0.00000000000E+00  0.45593999997E+02  0.45594000000E+02  0.51100000000E-03 0.  1.
         11   -1    0    0    0    0 -0.00000000000E+00 -0.00000000000E+00 -0.45593999997E+02  0.45594000000E+02  0.51100000000E-03 0. -1.
    9900012    2    1    2    0    0  0.12477269298E+00  0.75872311063E+00 -0.89553410900E+00  0.90007656692E+02  0.89999916961E+02 0.  0.
        -12    1    1    2    0    0 -0.12477269298E+00 -0.75872311063E+00  0.89553410900E+00  0.11803433076E+01  0.00000000000E+00 0.  1.
         11    1    3    3    0    0 -0.71133673592E+01  0.81654066999E+01  0.53630438488E+01  0.12084539766E+02  0.51100000000E-03 0. -1.
        -11    1    3    3    0    0 -0.14844262903E+02  0.10754721296E+02  0.27896795005E+02  0.33380343664E+02  0.51100000000E-03 0.  1.
         12    1    3    3    0    0  0.22082402956E+02 -0.18161404885E+02 -0.34155372963E+02  0.44542773263E+02  0.00000000000E+00 0. -1.
</event>
<event>
 7    1  0.5158441E-015  0.9000773E+02  0.7816164E-02  0.1186339E+00
        -11   -1    0    0    0    0  0.00000000000E+00  0.00000000000E+00  0.45593999997E+02  0.45594000000E+02  0.51100000000E-03 0.  1.
         11   -1    0    0    0    0 -0.00000000000E+00 -0.00000000000E+00 -0.45593999997E+02  0.45594000000E+02  0.51100000000E-03 0. -1.
    9900012    2    1    2    0    0  0.73977183410E+00 -0.24220275132E+00  0.88718714739E+00  0.90007734956E+02  0.89999996258E+02 0.  0.
        -12    1    1    2    0    0 -0.73977183410E+00  0.24220275132E+00 -0.88718714739E+00  0.11802650439E+01  0.00000000000E+00 0.  1.
         11    1    3    3    0    0  0.29629319252E+02 -0.17977266297E+02 -0.96782178700E+01  0.35982586959E+02  0.51100000000E-03 0. -1.
        -11    1    3    3    0    0  0.10141260219E+02  0.13553578201E+01  0.48152336839E+01  0.11307901191E+02  0.51100000000E-03 0.  1.
        -12    1    3    3    0    0 -0.39030807636E+02  0.16379705726E+02  0.57501713335E+01  0.42717246807E+02  0.00000000000E+00 0.  1.
</event>
<event>
 7    1  0.5158441E-015  0.9000768E+02  0.7816164E-02  0.1186339E+00
        -11   -1    0    0    0    0  0.00000000000E+00  0.00000000000E+00  0.45593999997E+02  0.45594000000E+02  0.51100000000E-03 0. -1.
         11   -1    0    0    0    0 -0.00000000000E+00 -0.00000000000E+00 -0.45593999997E+02  0.45594000000E+02  0.51100000000E-03 0.  1.
    9900012    2    1    2    0    0  0.36403917035E+00  0.10881716476E+01  0.27659147456E+00  0.90007684408E+02  0.89999945042E+02 0.  0.
        -12    1    1    2    0    0 -0.36403917035E+00 -0.10881716476E+01 -0.27659147456E+00  0.11803155917E+01  0.00000000000E+00 0.  1.
         11    1    3    3    0    0 -0.43424452438E+01  0.71066237275E+01 -0.47429588201E+01  0.95841843748E+01  0.51100000000E-03 0. -1.
        -11    1    3    3    0    0  0.37160754149E+02 -0.14260919677E+01 -0.17048098760E+02  0.40909571727E+02  0.51100000000E-03 0.  1.
         12    1    3    3    0    0 -0.32454269735E+02 -0.45923601123E+01  0.22067649055E+02  0.39513928307E+02  0.00000000000E+00 0. -1.
</event>
<event>
 7    1  0.5158441E-015  0.9000766E+02  0.7816164E-02  0.1186339E+00
        -11   -1    0    0    0    0  0.00000000000E+00  0.00000000000E+00  0.45593999997E+02  0.45594000000E+02  0.51100000000E-03 0. -1.
         11   -1    0    0    0    0 -0.00000000000E+00 -0.00000000000E+00 -0.45593999997E+02  0.45594000000E+02  0.51100000000E-03 0.  1.
    9900012    2    1    2    0    0  0.85959369684E-01 -0.83419390918E+00 -0.83062339172E+00  0.90007659494E+02  0.89999919799E+02 0.  0.
        -12    1    1    2    0    0 -0.85959369684E-01  0.83419390918E+00  0.83062339172E+00  0.11803405060E+01  0.00000000000E+00 0.  1.
         11    1    3    3    0    0  0.20925040244E+01  0.69056589590E+01  0.77930814306E+01  0.10620678754E+02  0.51100000000E-03 0. -1.
        -11    1    3    3    0    0 -0.11287309068E+02  0.14891851263E+02  0.29007129760E+02  0.34504842518E+02  0.51100000000E-03 0.  1.
         12    1    3    3    0    0  0.92807644134E+01 -0.22631704131E+02 -0.37630834582E+02  0.44882138222E+02  0.00000000000E+00 0. -1.
</event>
<event>
 7    1  0.5158441E-015  0.9000789E+02  0.7816164E-02  0.1186339E+00
        -11   -1    0    0    0    0  0.00000000000E+00  0.00000000000E+00  0.45593999997E+02  0.45594000000E+02  0.51100000000E-03 0.  1.
         11   -1    0    0    0    0 -0.00000000000E+00 -0.00000000000E+00 -0.45593999997E+02  0.45594000000E+02  0.51100000000E-03 0. -1.
    9900012    2    1    2    0    0 -0.49730248370E+00  0.42600795380E+00 -0.98176975569E+00  0.90007887976E+02  0.90000151297E+02 0.  0.
        -12    1    1    2    0    0  0.49730248370E+00 -0.42600795380E+00  0.98176975569E+00  0.11801120244E+01  0.00000000000E+00 0.  1.
         11    1    3    3    0    0  0.58169056757E+01  0.88891043353E+01 -0.36277865709E+02  0.37801271251E+02  0.51100000000E-03 0. -1.
        -11    1    3    3    0    0  0.69229453990E+01 -0.48620277411E+01 -0.48707982698E+01  0.97617192542E+01  0.51100000000E-03 0.  1.
        -12    1    3    3    0    0 -0.13237153558E+02 -0.36010686404E+01  0.40166894224E+02  0.42444897470E+02  0.00000000000E+00 0.  1.
</event>
<event>
 7    1  0.5158441E-015  0.9000787E+02  0.7816164E-02  0.1186339E+00
        -11   -1    0    0    0    0  0.00000000000E+00  0.00000000000E+00  0.45593999997E+02  0.45594000000E+02  0.51100000000E-03 0.  1.
         11   -1    0    0    0    0 -0.00000000000E+00 -0.00000000000E+00 -0.45593999997E+02  0.45594000000E+02  0.51100000000E-03 0. -1.
    9900012    2    1    2    0    0  0.52090827632E+00 -0.75048544090E+00 -0.74708343559E+00  0.90007869715E+02  0.90000132795E+02 0.  0.
        -12    1    1    2    0    0 -0.52090827632E+00  0.75048544090E+00  0.74708343559E+00  0.11801302848E+01  0.00000000000E+00 0.  1.
         11    1    3    3    0    0 -0.55172004059E+01  0.31788704252E+01  0.34748619513E+01  0.72539219282E+01  0.51100000000E-03 0. -1.
        -11    1    3    3    0    0 -0.31215539412E+02 -0.18689277762E+02  0.13675076960E+02  0.38867811029E+02  0.51100000000E-03 0.  1.
         12    1    3    3    0    0  0.37253648094E+02  0.14759921896E+02 -0.17897022347E+02  0.43886136758E+02  0.00000000000E+00 0. -1.
</event>
<event>
 7    1  0.5158441E-015  0.9000790E+02  0.7816164E-02  0.1186339E+00
        -11   -1    0    0    0    0  0.00000000000E+00  0.00000000000E+00  0.45593999997E+02  0.45594000000E+02  0.51100000000E-03 0. -1.
         11   -1    0    0    0    0 -0.00000000000E+00 -0.00000000000E+00 -0.45593999997E+02  0.45594000000E+02  0.51100000000E-03 0.  1.
    9900012    2    1    2    0    0 -0.76170415626E-01  0.11730718337E+00  0.11717814126E+01  0.90007900603E+02  0.90000164091E+02 0.  0.
        -12    1    1    2    0    0  0.76170415626E-01 -0.11730718337E+00 -0.11717814126E+01  0.11800993968E+01  0.00000000000E+00 0.  1.
         11    1    3    3    0    0  0.32663109653E+02  0.23572549544E+02 -0.10008930842E+02  0.41505692635E+02  0.51100000000E-03 0. -1.
        -11    1    3    3    0    0  0.93548483142E+00 -0.11230256755E+02  0.40464534601E+01  0.11973620360E+02  0.51100000000E-03 0.  1.
        -12    1    3    3    0    0 -0.33674764900E+02 -0.12224985605E+02  0.71342587945E+01  0.36528587609E+02  0.00000000000E+00 0.  1.
</event>
<event>
 7    1  0.5158441E-015  0.9000777E+02  0.7816164E-02  0.1186339E+00
        -11   -1    0    0    0    0  0.00000000000E+00  0.00000000000E+00  0.45593999997E+02  0.45594000000E+02  0.51100000000E-03 0.  1.
         11   -1    0    0    0    0 -0.00000000000E+00 -0.00000000000E+00 -0.45593999997E+02  0.45594000000E+02  0.51100000000E-03 0. -1.
    9900012    2    1    2    0    0  0.73086955351E+00  0.91428935115E+00 -0.15114002776E+00  0.90007771789E+02  0.90000033577E+02 0.  0.
        -12    1    1    2    0    0 -0.73086955351E+00 -0.91428935115E+00  0.15114002776E+00  0.11802282109E+01  0.00000000000E+00 0.  1.
         11    1    3    3    0    0 -0.20312030100E+02  0.16440291547E+02 -0.35450295387E+02  0.44040722022E+02  0.51100000000E-03 0. -1.
        -11    1    3    3    0    0  0.31867591853E+01 -0.77045484604E+01  0.43865637089E+01  0.94211168403E+01  0.51100000000E-03 0.  1.
        -12    1    3    3    0    0  0.17856140468E+02 -0.78214537355E+01  0.30912591650E+02  0.36545932927E+02  0.00000000000E+00 0.  1.
</event>
<event>
 7    1  0.5158441E-015  0.9000785E+02  0.7816164E-02  0.1186339E+00
        -11   -1    0    0    0    0  0.00000000000E+00  0.00000000000E+00  0.45593999997E+02  0.45594000000E+02  0.51100000000E-03 0. -1.
         11   -1    0    0    0    0 -0.00000000000E+00 -0.00000000000E+00 -0.45593999997E+02  0.45594000000E+02  0.51100000000E-03 0.  1.
    9900012    2    1    2    0    0  0.24566208207E+00 -0.89746100475E+00 -0.72592816749E+00  0.90007848392E+02  0.90000111191E+02 0.  0.
        -12    1    1    2    0    0 -0.24566208207E+00  0.89746100475E+00  0.72592816749E+00  0.11801516080E+01  0.00000000000E+00 0.  1.
         11    1    3    3    0    0  0.87230368003E+01 -0.23417537305E-01 -0.35091874795E+01  0.94024633171E+01  0.51100000000E-03 0. -1.
        -11    1    3    3    0    0  0.19922447551E+02  0.31557692465E+02  0.35605675536E+01  0.37489592045E+02  0.51100000000E-03 0.  1.
         12    1    3    3    0    0 -0.28399822270E+02 -0.32431735932E+02 -0.77730824155E+00  0.43115793030E+02  0.00000000000E+00 0. -1.
</event>
<event>
 7    1  0.5158441E-015  0.9000776E+02  0.7816164E-02  0.1186339E+00
        -11   -1    0    0    0    0  0.00000000000E+00  0.00000000000E+00  0.45593999997E+02  0.45594000000E+02  0.51100000000E-03 0.  1.
         11   -1    0    0    0    0 -0.00000000000E+00 -0.00000000000E+00 -0.45593999997E+02  0.45594000000E+02  0.51100000000E-03 0. -1.
    9900012    2    1    2    0    0 -0.11889230407E+00 -0.27828180227E+00 -0.11407853955E+01  0.90007759575E+02  0.90000021202E+02 0.  0.
        -12    1    1    2    0    0  0.11889230407E+00  0.27828180227E+00  0.11407853955E+01  0.11802404247E+01  0.00000000000E+00 0.  1.
         11    1    3    3    0    0 -0.92107414956E+01  0.11011697651E+01 -0.15661177534E+01  0.94076064346E+01  0.51100000000E-03 0. -1.
        -11    1    3    3    0    0  0.17956814374E+01 -0.13475186174E+02  0.38052984369E+02  0.40408349804E+02  0.51100000000E-03 0.  1.
         12    1    3    3    0    0  0.72961677541E+01  0.12095734607E+02 -0.37627652011E+02  0.40191803336E+02  0.00000000000E+00 0. -1.
</event>
<event>
 7    1  0.5158441E-015  0.9000775E+02  0.7816164E-02  0.1186339E+00
        -11   -1    0    0    0    0  0.00000000000E+00  0.00000000000E+00  0.45593999997E+02  0.45594000000E+02  0.51100000000E-03 0.  1.
         11   -1    0    0    0    0 -0.00000000000E+00 -0.00000000000E+00 -0.45593999997E+02  0.45594000000E+02  0.51100000000E-03 0. -1.
    9900012    2    1    2    0    0  0.64869364031E+00 -0.95857062140E+00 -0.23092205052E+00  0.90007751692E+02  0.90000013214E+02 0.  0.
        -12    1    1    2    0    0 -0.64869364031E+00  0.95857062140E+00  0.23092205052E+00  0.11802483080E+01  0.00000000000E+00 0.  1.
         11    1    3    3    0    0 -0.20907782037E+02  0.75244345229E+01 -0.31103896341E+02  0.38225709051E+02  0.51100000000E-03 0. -1.
        -11    1    3    3    0    0 -0.30847190659E+01 -0.78603873896E+01 -0.37842791933E+01  0.92532130043E+01  0.51100000000E-03 0.  1.
        -12    1    3    3    0    0  0.24641194743E+02 -0.62261775472E+00  0.34657253484E+02  0.42528829637E+02  0.00000000000E+00 0.  1.
</event>
<event>
 7    1  0.5158441E-015  0.9000777E+02  0.7816164E-02  0.1186339E+00
        -11   -1    0    0    0    0  0.00000000000E+00  0.00000000000E+00  0.45593999997E+02  0.45594000000E+02  0.51100000000E-03 0.  1.
         11   -1    0    0    0    0 -0.00000000000E+00 -0.00000000000E+00 -0.45593999997E+02  0.45594000000E+02  0.51100000000E-03 0. -1.
    9900012    2    1    2    0    0 -0.67273303589E-01 -0.99478438467E+00  0.63153111109E+00  0.90007765611E+02  0.90000027317E+02 0.  0.
        -12    1    1    2    0    0  0.67273303589E-01  0.99478438467E+00 -0.63153111109E+00  0.11802343893E+01  0.00000000000E+00 0.  1.
         11    1    3    3    0    0  0.26855135511E+02  0.21720156236E+02  0.12862828413E+02  0.36856693358E+02  0.51100000000E-03 0. -1.
        -11    1    3    3    0    0  0.53028186126E+01  0.48866968414E+01 -0.75875294173E+01  0.10467583015E+02  0.51100000000E-03 0.  1.
        -12    1    3    3    0    0 -0.32225227427E+02 -0.27601637462E+02 -0.46437678849E+01  0.42683489238E+02  0.00000000000E+00 0.  1.
</event>
<event>
 7    1  0.5158441E-015  0.9000768E+02  0.7816164E-02  0.1186339E+00
        -11   -1    0    0    0    0  0.00000000000E+00  0.00000000000E+00  0.45593999997E+02  0.45594000000E+02  0.51100000000E-03 0.  1.
         11   -1    0    0    0    0 -0.00000000000E+00 -0.00000000000E+00 -0.45593999997E+02  0.45594000000E+02  0.51100000000E-03 0. -1.
    9900012    2    1    2    0    0 -0.48999773536E+00 -0.90149621148E+00 -0.58339835730E+00  0.90007683583E+02  0.89999944207E+02 0.  0.
        -12    1    1    2    0    0  0.48999773536E+00  0.90149621148E+00  0.58339835730E+00  0.11803164166E+01  0.00000000000E+00 0.  1.
         11    1    3    3    0    0  0.34457824402E+01 -0.94955777313E+01  0.59695132363E+00  0.10119079218E+02  0.51100000000E-03 0. -1.
        -11    1    3    3    0    0  0.16188566887E+02 -0.95742760120E-01  0.34444956232E+02  0.38059609492E+02  0.51100000000E-03 0.  1.
         12    1    3    3    0    0 -0.20124347063E+02  0.86898242799E+01 -0.35625305913E+02  0.41828994874E+02  0.00000000000E+00 0. -1.
</event>
<event>
 7    1  0.5158441E-015  0.9000772E+02  0.7816164E-02  0.1186339E+00
        -11   -1    0    0    0    0  0.00000000000E+00  0.00000000000E+00  0.45593999997E+02  0.45594000000E+02  0.51100000000E-03 0. -1.
         11   -1    0    0    0    0 -0.00000000000E+00 -0.00000000000E+00 -0.45593999997E+02  0.45594000000E+02  0.51100000000E-03 0.  1.
    9900012    2    1    2    0    0  0.77923866212E+00 -0.85309180130E+00  0.24100465306E+00  0.90007719628E+02  0.89999980727E+02 0.  0.
        -12    1    1    2    0    0 -0.77923866212E+00  0.85309180130E+00 -0.24100465306E+00  0.11802803721E+01  0.00000000000E+00 0.  1.
         11    1    3    3    0    0 -0.73596127044E+01 -0.38131358853E+01  0.55873921330E+01  0.99961420332E+01  0.51100000000E-03 0. -1.
        -11    1    3    3    0    0 -0.20866745059E+02  0.15559957131E+02 -0.30142117212E+02  0.39825626744E+02  0.51100000000E-03 0.  1.
         12    1    3    3    0    0  0.29005596426E+02 -0.12599913047E+02  0.24795729732E+02  0.40185950850E+02  0.00000000000E+00 0. -1.
</event>
<event>
 7    1  0.5158441E-015  0.9000902E+02  0.7816164E-02  0.1186336E+00
        -11   -1    0    0    0    0  0.00000000000E+00  0.00000000000E+00  0.45593999997E+02  0.45594000000E+02  0.51100000000E-03 0. -1.
         11   -1    0    0    0    0 -0.00000000000E+00 -0.00000000000E+00 -0.45593999997E+02  0.45594000000E+02  0.51100000000E-03 0.  1.
    9900012    2    1    2    0    0 -0.53548378598E+00  0.27363161353E+00  0.10140884138E+01  0.90009020587E+02  0.90001298850E+02 0.  0.
        -12    1    1    2    0    0  0.53548378598E+00 -0.27363161353E+00 -0.10140884138E+01  0.11789794128E+01  0.00000000000E+00 0.  1.
         11    1    3    3    0    0 -0.10519897079E+01  0.98867040972E+01  0.76670341837E+01  0.12555357967E+02  0.51100000000E-03 0. -1.
        -11    1    3    3    0    0 -0.34496657350E+02  0.11243213251E+02 -0.88604962011E+00  0.36293447021E+02  0.51100000000E-03 0.  1.
         12    1    3    3    0    0  0.35013163272E+02 -0.20856285734E+02 -0.57668961499E+01  0.41160215599E+02  0.00000000000E+00 0. -1.
</event>
<event>
 7    1  0.5158441E-015  0.9000780E+02  0.7816164E-02  0.1186339E+00
        -11   -1    0    0    0    0  0.00000000000E+00  0.00000000000E+00  0.45593999997E+02  0.45594000000E+02  0.51100000000E-03 0. -1.
         11   -1    0    0    0    0 -0.00000000000E+00 -0.00000000000E+00 -0.45593999997E+02  0.45594000000E+02  0.51100000000E-03 0.  1.
    9900012    2    1    2    0    0  0.85983746825E+00  0.22634892331E-01  0.80811090505E+00  0.90007798303E+02  0.90000060441E+02 0.  0.
        -12    1    1    2    0    0 -0.85983746825E+00 -0.22634892331E-01 -0.80811090505E+00  0.11802016967E+01  0.00000000000E+00 0.  1.
         11    1    3    3    0    0 -0.72487875116E+01  0.26915333871E+01  0.55537563477E+01  0.95201618785E+01  0.51100000000E-03 0. -1.
        -11    1    3    3    0    0 -0.26370452174E+02 -0.16727065106E+02 -0.23226443351E+02  0.38918673229E+02  0.51100000000E-03 0.  1.
         12    1    3    3    0    0  0.34479077154E+02  0.14058166612E+02  0.18480797908E+02  0.41568963196E+02  0.00000000000E+00 0. -1.
</event>
<event>
 7    1  0.5158441E-015  0.9000806E+02  0.7816164E-02  0.1186338E+00
        -11   -1    0    0    0    0  0.00000000000E+00  0.00000000000E+00  0.45593999997E+02  0.45594000000E+02  0.51100000000E-03 0. -1.
         11   -1    0    0    0    0 -0.00000000000E+00 -0.00000000000E+00 -0.45593999997E+02  0.45594000000E+02  0.51100000000E-03 0.  1.
    9900012    2    1    2    0    0 -0.11251959930E+01  0.19256770536E+00 -0.29852340348E+00  0.90008057389E+02  0.90000322945E+02 0.  0.
        -12    1    1    2    0    0  0.11251959930E+01 -0.19256770536E+00  0.29852340348E+00  0.11799426115E+01  0.00000000000E+00 0.  1.
         11    1    3    3    0    0 -0.68836217036E+01 -0.12547887630E+01  0.65646733745E+01  0.95944608693E+01  0.51100000000E-03 0. -1.
        -11    1    3    3    0    0 -0.23846852371E+02 -0.21514223929E+02 -0.23118956233E+02  0.39572974829E+02  0.51100000000E-03 0.  1.
         12    1    3    3    0    0  0.29605278081E+02  0.22961580397E+02  0.16255759455E+02  0.40840621690E+02  0.00000000000E+00 0. -1.
</event>
<event>
 7    1  0.5158441E-015  0.9000796E+02  0.7816164E-02  0.1186339E+00
        -11   -1    0    0    0    0  0.00000000000E+00  0.00000000000E+00  0.45593999997E+02  0.45594000000E+02  0.51100000000E-03 0.  1.
         11   -1    0    0    0    0 -0.00000000000E+00 -0.00000000000E+00 -0.45593999997E+02  0.45594000000E+02  0.51100000000E-03 0. -1.
    9900012    2    1    2    0    0 -0.88509952239E+00 -0.78041608137E+00 -0.74476111768E-02  0.90007955132E+02  0.90000219339E+02 0.  0.
        -12    1    1    2    0    0  0.88509952239E+00  0.78041608137E+00  0.74476111768E-02  0.11800448684E+01  0.00000000000E+00 0.  1.
         11    1    3    3    0    0  0.33944173926E+02  0.10425297261E+02  0.10514950119E+02  0.37033200547E+02  0.51100000000E-03 0. -1.
        -11    1    3    3    0    0  0.67633310778E+01 -0.67505940475E+01 -0.49892140788E+01  0.10779861996E+02  0.51100000000E-03 0.  1.
        -12    1    3    3    0    0 -0.41592604526E+02 -0.44551192951E+01 -0.55331836517E+01  0.42194892588E+02  0.00000000000E+00 0.  1.
</event>
<event>
 7    1  0.5948283E-015  0.9000764E+02  0.7816164E-02  0.1186339E+00
        -11   -1    0    0    0    0  0.00000000000E+00  0.00000000000E+00  0.45593999997E+02  0.45594000000E+02  0.51100000000E-03 0.  1.
         11   -1    0    0    0    0 -0.00000000000E+00 -0.00000000000E+00 -0.45593999997E+02  0.45594000000E+02  0.51100000000E-03 0. -1.
    9900012    2    1    2    0    0 -0.11526553203E+01  0.24633415803E+00  0.62865904163E-01  0.90007641187E+02  0.89999901251E+02 0.  0.
        -12    1    1    2    0    0  0.11526553203E+01 -0.24633415803E+00 -0.62865904163E-01  0.11803588127E+01  0.00000000000E+00 0.  1.
         11    1    3    3    0    0  0.20992339618E+02 -0.28489053203E+02  0.13823415603E+02  0.37991989869E+02  0.51100000000E-03 0. -1.
        -11    1    3    3    0    0 -0.59162739792E+01 -0.68823616121E+01  0.28259945497E+01  0.95055480964E+01  0.51100000000E-03 0.  1.
        -12    1    3    3    0    0 -0.16228720959E+02  0.35617748973E+02 -0.16586544249E+02  0.42510103222E+02  0.00000000000E+00 0.  1.
</event>
<event>
 7    1  0.5158441E-015  0.9000780E+02  0.7816164E-02  0.1186339E+00
        -11   -1    0    0    0    0  0.00000000000E+00  0.00000000000E+00  0.45593999997E+02  0.45594000000E+02  0.51100000000E-03 0. -1.
         11   -1    0    0    0    0 -0.00000000000E+00 -0.00000000000E+00 -0.45593999997E+02  0.45594000000E+02  0.51100000000E-03 0.  1.
    9900012    2    1    2    0    0 -0.54721459324E+00 -0.10318503046E+01  0.16945909417E+00  0.90007798641E+02  0.90000060784E+02 0.  0.
        -12    1    1    2    0    0  0.54721459324E+00  0.10318503046E+01 -0.16945909417E+00  0.11802013585E+01  0.00000000000E+00 0.  1.
         11    1    3    3    0    0 -0.27072914779E+02  0.23333743558E+02  0.11285429757E+01  0.35758634099E+02  0.51100000000E-03 0. -1.
        -11    1    3    3    0    0 -0.75128408162E+01  0.66753738917E+00  0.80664570429E+01  0.11043374157E+02  0.51100000000E-03 0.  1.
        -12    1    3    3    0    0  0.34038541002E+02 -0.25033131252E+02 -0.90255409244E+01  0.43205790385E+02  0.00000000000E+00 0.  1.
</event>
<event>
 7    1  0.5158441E-015  0.9000774E+02  0.7816164E-02  0.1186339E+00
        -11   -1    0    0    0    0  0.00000000000E+00  0.00000000000E+00  0.45593999997E+02  0.45594000000E+02  0.51100000000E-03 0.  1.
         11   -1    0    0    0    0 -0.00000000000E+00 -0.00000000000E+00 -0.45593999997E+02  0.45594000000E+02  0.51100000000E-03 0. -1.
    9900012    2    1    2    0    0  0.37664141499E-01 -0.31271598232E+00 -0.11374515499E+01  0.90007743290E+02  0.90000004701E+02 0.  0.
        -12    1    1    2    0    0 -0.37664141499E-01  0.31271598232E+00  0.11374515499E+01  0.11802567101E+01  0.00000000000E+00 0.  1.
         11    1    3    3    0    0 -0.29545047490E+02 -0.76105363632E+01  0.21000426183E+02  0.37038466424E+02  0.51100000000E-03 0. -1.
        -11    1    3    3    0    0 -0.27765913640E+01 -0.75509057686E+01  0.38216255285E+01  0.89067648150E+01  0.51100000000E-03 0.  1.
        -12    1    3    3    0    0  0.32359302995E+02  0.14848726150E+02 -0.25959503262E+02  0.44062512051E+02  0.00000000000E+00 0.  1.
</event>
<event>
 7    1  0.5158441E-015  0.9000778E+02  0.7816164E-02  0.1186339E+00
        -11   -1    0    0    0    0  0.00000000000E+00  0.00000000000E+00  0.45593999997E+02  0.45594000000E+02  0.51100000000E-03 0.  1.
         11   -1    0    0    0    0 -0.00000000000E+00 -0.00000000000E+00 -0.45593999997E+02  0.45594000000E+02  0.51100000000E-03 0. -1.
    9900012    2    1    2    0    0  0.11564745286E+01  0.15272728924E-01  0.23505066374E+00  0.90007781628E+02  0.90000043545E+02 0.  0.
        -12    1    1    2    0    0 -0.11564745286E+01 -0.15272728924E-01 -0.23505066374E+00  0.11802183722E+01  0.00000000000E+00 0.  1.
         11    1    3    3    0    0  0.87580327853E+01  0.19000954789E+01 -0.42514217973E+01  0.99190770063E+01  0.51100000000E-03 0. -1.
        -11    1    3    3    0    0  0.12456436710E+02 -0.37256105631E+02  0.13798781178E+01  0.39307560166E+02  0.51100000000E-03 0.  1.
         12    1    3    3    0    0 -0.20057994967E+02  0.35371282881E+02  0.31065943433E+01  0.40781144456E+02  0.00000000000E+00 0. -1.
</event>
<event>
 7    1  0.5158441E-015  0.9000780E+02  0.7816164E-02  0.1186339E+00
        -11   -1    0    0    0    0  0.00000000000E+00  0.00000000000E+00  0.45593999997E+02  0.45594000000E+02  0.51100000000E-03 0.  1.
         11   -1    0    0    0    0 -0.00000000000E+00 -0.00000000000E+00 -0.45593999997E+02  0.45594000000E+02  0.51100000000E-03 0. -1.
    9900012    2    1    2    0    0  0.90682529903E+00  0.74740486150E+00  0.10919373963E+00  0.90007801109E+02  0.90000063283E+02 0.  0.
        -12    1    1    2    0    0 -0.90682529903E+00 -0.74740486150E+00 -0.10919373963E+00  0.11801988912E+01  0.00000000000E+00 0.  1.
         11    1    3    3    0    0  0.29814519395E+02  0.10681364240E+02 -0.26110977283E+02  0.41046074644E+02  0.51100000000E-03 0. -1.
        -11    1    3    3    0    0  0.41066078013E+01  0.30622255047E+01  0.51497115651E+00  0.51484607630E+01  0.51100000000E-03 0.  1.
        -12    1    3    3    0    0 -0.33014301897E+02 -0.12996184884E+02  0.25705199866E+02  0.43813265701E+02  0.00000000000E+00 0.  1.
</event>
<event>
 7    1  0.5158441E-015  0.9000774E+02  0.7816164E-02  0.1186339E+00
        -11   -1    0    0    0    0  0.00000000000E+00  0.00000000000E+00  0.45593999997E+02  0.45594000000E+02  0.51100000000E-03 0. -1.
         11   -1    0    0    0    0 -0.00000000000E+00 -0.00000000000E+00 -0.45593999997E+02  0.45594000000E+02  0.51100000000E-03 0.  1.
    9900012    2    1    2    0    0  0.83013424783E+00  0.40645784189E+00  0.73395732456E+00  0.90007735538E+02  0.89999996847E+02 0.  0.
        -12    1    1    2    0    0 -0.83013424783E+00 -0.40645784189E+00 -0.73395732456E+00  0.11802644623E+01  0.00000000000E+00 0.  1.
         11    1    3    3    0    0  0.38756188618E+02  0.15861398985E+02  0.10370763506E+02  0.43141382337E+02  0.51100000000E-03 0. -1.
        -11    1    3    3    0    0 -0.82054403841E+01  0.29978761578E+01  0.36191036074E+01  0.94559200788E+01  0.51100000000E-03 0.  1.
        -12    1    3    3    0    0 -0.29720613986E+02 -0.18452817301E+02 -0.13255909789E+02  0.37410433122E+02  0.00000000000E+00 0.  1.
</event>
<event>
 7    1  0.6915669E-015  0.9000767E+02  0.7816164E-02  0.1186339E+00
        -11   -1    0    0    0    0  0.00000000000E+00  0.00000000000E+00  0.45593999997E+02  0.45594000000E+02  0.51100000000E-03 0.  1.
         11   -1    0    0    0    0 -0.00000000000E+00 -0.00000000000E+00 -0.45593999997E+02  0.45594000000E+02  0.51100000000E-03 0. -1.
    9900012    2    1    2    0    0  0.78550475457E+00  0.58338893309E+00  0.66016013502E+00  0.90007673024E+02  0.89999933508E+02 0.  0.
        -12    1    1    2    0    0 -0.78550475457E+00 -0.58338893309E+00 -0.66016013502E+00  0.11803269761E+01  0.00000000000E+00 0.  1.
         11    1    3    3    0    0 -0.88692821200E+01 -0.39551138999E+02 -0.64732122264E+01  0.41047036899E+02  0.51100000000E-03 0. -1.
        -11    1    3    3    0    0 -0.72611844999E+01  0.58496396892E+01 -0.22564879811E+01  0.95934781547E+01  0.51100000000E-03 0.  1.
        -12    1    3    3    0    0  0.16915971374E+02  0.34284888243E+02  0.93898603425E+01  0.39367157970E+02  0.00000000000E+00 0.  1.
</event>
<event>
 7    1  0.5158441E-015  0.9000750E+02  0.7816164E-02  0.1186340E+00
        -11   -1    0    0    0    0  0.00000000000E+00  0.00000000000E+00  0.45593999997E+02  0.45594000000E+02  0.51100000000E-03 0. -1.
         11   -1    0    0    0    0 -0.00000000000E+00 -0.00000000000E+00 -0.45593999997E+02  0.45594000000E+02  0.51100000000E-03 0.  1.
    9900012    2    1    2    0    0 -0.32623811217E+00  0.10790872759E+01  0.35030458345E+00  0.90007502666E+02  0.89999760901E+02 0.  0.
        -12    1    1    2    0    0  0.32623811217E+00 -0.10790872759E+01 -0.35030458345E+00  0.11804973342E+01  0.00000000000E+00 0.  1.
         11    1    3    3    0    0  0.85705305188E+01  0.84241818686E+00 -0.29346242612E+01  0.90981141777E+01  0.51100000000E-03 0. -1.
        -11    1    3    3    0    0  0.16738660049E+02  0.73630908690E+01 -0.31916162720E+02  0.36783682393E+02  0.51100000000E-03 0.  1.
         12    1    3    3    0    0 -0.25635428680E+02 -0.71264217799E+01  0.35201091565E+02  0.44125706095E+02  0.00000000000E+00 0. -1.
</event>
<event>
 7    1  0.6077005E-015  0.9000775E+02  0.7816164E-02  0.1186339E+00
        -11   -1    0    0    0    0  0.00000000000E+00  0.00000000000E+00  0.45593999997E+02  0.45594000000E+02  0.51100000000E-03 0.  1.
         11   -1    0    0    0    0 -0.00000000000E+00 -0.00000000000E+00 -0.45593999997E+02  0.45594000000E+02  0.51100000000E-03 0. -1.
    9900012    2    1    2    0    0 -0.54691534375E-01  0.97650762462E+00  0.66062574046E+00  0.90007752283E+02  0.90000013813E+02 0.  0.
        -12    1    1    2    0    0  0.54691534375E-01 -0.97650762462E+00 -0.66062574046E+00  0.11802477171E+01  0.00000000000E+00 0.  1.
         11    1    3    3    0    0 -0.32866234095E+02  0.59410753163E+01 -0.13992130302E+02  0.36211399174E+02  0.51100000000E-03 0. -1.
        -11    1    3    3    0    0 -0.50019803875E+01  0.12158881158E+01 -0.78309869666E+01  0.93713685681E+01  0.51100000000E-03 0.  1.
        -12    1    3    3    0    0  0.37813522948E+02 -0.61804558075E+01  0.22483743009E+02  0.44424984541E+02  0.00000000000E+00 0.  1.
</event>
<event>
 7    1  0.5158441E-015  0.9000768E+02  0.7816164E-02  0.1186339E+00
        -11   -1    0    0    0    0  0.00000000000E+00  0.00000000000E+00  0.45593999997E+02  0.45594000000E+02  0.51100000000E-03 0. -1.
         11   -1    0    0    0    0 -0.00000000000E+00 -0.00000000000E+00 -0.45593999997E+02  0.45594000000E+02  0.51100000000E-03 0.  1.
    9900012    2    1    2    0    0 -0.18481910111E+00 -0.33064133779E+00  0.11178875759E+01  0.90007680371E+02  0.89999940952E+02 0.  0.
        -12    1    1    2    0    0  0.18481910111E+00  0.33064133779E+00 -0.11178875759E+01  0.11803196291E+01  0.00000000000E+00 0.  1.
         11    1    3    3    0    0 -0.28721840552E+02 -0.10609128881E+02 -0.26511224181E+02  0.40501145022E+02  0.51100000000E-03 0. -1.
        -11    1    3    3    0    0 -0.34749933066E+01 -0.45249019384E+01  0.51270066600E+01  0.76704963063E+01  0.51100000000E-03 0.  1.
        -12    1    3    3    0    0  0.32012014757E+02  0.14803389482E+02  0.22502105097E+02  0.41836039042E+02  0.00000000000E+00 0.  1.
</event>
<event>
 7    1  0.5158441E-015  0.9000748E+02  0.7816164E-02  0.1186340E+00
        -11   -1    0    0    0    0  0.00000000000E+00  0.00000000000E+00  0.45593999997E+02  0.45594000000E+02  0.51100000000E-03 0. -1.
         11   -1    0    0    0    0 -0.00000000000E+00 -0.00000000000E+00 -0.45593999997E+02  0.45594000000E+02  0.51100000000E-03 0.  1.
    9900012    2    1    2    0    0 -0.49147733888E+00  0.19191342137E+00  0.10560496088E+01  0.90007482524E+02  0.89999740492E+02 0.  0.
        -12    1    1    2    0    0  0.49147733888E+00 -0.19191342137E+00 -0.10560496088E+01  0.11805174764E+01  0.00000000000E+00 0.  1.
         11    1    3    3    0    0 -0.68652630895E+01  0.26147320296E+01  0.38127586411E+02  0.38828874651E+02  0.51100000000E-03 0. -1.
        -11    1    3    3    0    0 -0.10357532002E+02  0.65281374340E+01 -0.37007569493E+01  0.12790256049E+02  0.51100000000E-03 0.  1.
        -12    1    3    3    0    0  0.16731317753E+02 -0.89509560423E+01 -0.33370779852E+02  0.38388351824E+02  0.00000000000E+00 0.  1.
</event>
<event>
 7    1  0.5158441E-015  0.9000783E+02  0.7816164E-02  0.1186339E+00
        -11   -1    0    0    0    0  0.00000000000E+00  0.00000000000E+00  0.45593999997E+02  0.45594000000E+02  0.51100000000E-03 0.  1.
         11   -1    0    0    0    0 -0.00000000000E+00 -0.00000000000E+00 -0.45593999997E+02  0.45594000000E+02  0.51100000000E-03 0. -1.
    9900012    2    1    2    0    0  0.33585104622E+00 -0.85746025323E+00 -0.73807902299E+00  0.90007832785E+02  0.90000095378E+02 0.  0.
        -12    1    1    2    0    0 -0.33585104622E+00  0.85746025323E+00  0.73807902299E+00  0.11801672150E+01  0.00000000000E+00 0.  1.
         11    1    3    3    0    0 -0.37408704225E+02  0.12791265068E+02 -0.78947296985E+01  0.40315683934E+02  0.51100000000E-03 0. -1.
        -11    1    3    3    0    0  0.56996758942E+01  0.79382009859E+01  0.50423674869E+01  0.10996672693E+02  0.51100000000E-03 0.  1.
        -12    1    3    3    0    0  0.32044879377E+02 -0.21586926307E+02  0.21142831886E+01  0.38695476157E+02  0.00000000000E+00 0.  1.
</event>
<event>
 7    1  0.5158441E-015  0.9000772E+02  0.7816164E-02  0.1186339E+00
        -11   -1    0    0    0    0  0.00000000000E+00  0.00000000000E+00  0.45593999997E+02  0.45594000000E+02  0.51100000000E-03 0. -1.
         11   -1    0    0    0    0 -0.00000000000E+00 -0.00000000000E+00 -0.45593999997E+02  0.45594000000E+02  0.51100000000E-03 0.  1.
    9900012    2    1    2    0    0  0.74511885718E+00  0.44361484132E+00 -0.80066760722E+00  0.90007718315E+02  0.89999979397E+02 0.  0.
        -12    1    1    2    0    0 -0.74511885718E+00 -0.44361484132E+00  0.80066760722E+00  0.11802816850E+01  0.00000000000E+00 0.  1.
         11    1    3    3    0    0 -0.61841066497E+01  0.41518093189E+01  0.46676830600E+01  0.87902196267E+01  0.51100000000E-03 0. -1.
        -11    1    3    3    0    0 -0.25229125757E+02  0.60732904071E+01 -0.29954288661E+02  0.39631465432E+02  0.51100000000E-03 0.  1.
         12    1    3    3    0    0  0.32158351264E+02 -0.97814848847E+01  0.24485937994E+02  0.41586033256E+02  0.00000000000E+00 0. -1.
</event>
<event>
 7    1  0.5158441E-015  0.9000774E+02  0.7816164E-02  0.1186339E+00
        -11   -1    0    0    0    0  0.00000000000E+00  0.00000000000E+00  0.45593999997E+02  0.45594000000E+02  0.51100000000E-03 0.  1.
         11   -1    0    0    0    0 -0.00000000000E+00 -0.00000000000E+00 -0.45593999997E+02  0.45594000000E+02  0.51100000000E-03 0. -1.
    9900012    2    1    2    0    0 -0.10262040501E+01 -0.56768196679E+00 -0.13286376806E+00  0.90007741406E+02  0.90000002793E+02 0.  0.
        -12    1    1    2    0    0  0.10262040501E+01  0.56768196679E+00  0.13286376806E+00  0.11802585940E+01  0.00000000000E+00 0.  1.
         11    1    3    3    0    0  0.40085797269E+00  0.35769275607E+01  0.83418759243E+01  0.90852623565E+01  0.51100000000E-03 0. -1.
        -11    1    3    3    0    0  0.29199439633E+02 -0.78117942123E+01  0.22136846996E+02  0.37465602876E+02  0.51100000000E-03 0.  1.
         12    1    3    3    0    0 -0.30626501656E+02  0.36671846848E+01 -0.30611586688E+02  0.43456876173E+02  0.00000000000E+00 0. -1.
</event>
<event>
 7    1  0.5158441E-015  0.9000772E+02  0.7816164E-02  0.1186339E+00
        -11   -1    0    0    0    0  0.00000000000E+00  0.00000000000E+00  0.45593999997E+02  0.45594000000E+02  0.51100000000E-03 0. -1.
         11   -1    0    0    0    0 -0.00000000000E+00 -0.00000000000E+00 -0.45593999997E+02  0.45594000000E+02  0.51100000000E-03 0.  1.
    9900012    2    1    2    0    0  0.10452603455E+01 -0.51497297853E+00  0.18784410577E+00  0.90007723860E+02  0.89999985015E+02 0.  0.
        -12    1    1    2    0    0 -0.10452603455E+01  0.51497297853E+00 -0.18784410577E+00  0.11802761399E+01  0.00000000000E+00 0.  1.
         11    1    3    3    0    0 -0.43102793639E+01  0.31918889757E+02  0.15415162693E+02  0.35707440017E+02  0.51100000000E-03 0. -1.
        -11    1    3    3    0    0  0.56099066589E+01  0.83390581782E+01  0.16254173821E+01  0.10181008101E+02  0.51100000000E-03 0.  1.
        -12    1    3    3    0    0 -0.25436694953E+00 -0.40772920913E+02 -0.16852735969E+02  0.44119275742E+02  0.00000000000E+00 0.  1.
</event>
<event>
 7    1  0.5158441E-015  0.9000775E+02  0.7816164E-02  0.1186339E+00
        -11   -1    0    0    0    0  0.00000000000E+00  0.00000000000E+00  0.45593999997E+02  0.45594000000E+02  0.51100000000E-03 0.  1.
         11   -1    0    0    0    0 -0.00000000000E+00 -0.00000000000E+00 -0.45593999997E+02  0.45594000000E+02  0.51100000000E-03 0. -1.
    9900012    2    1    2    0    0 -0.77716832993E+00  0.88668703361E+00  0.52700181782E-01  0.90007753493E+02  0.90000015039E+02 0.  0.
        -12    1    1    2    0    0  0.77716832993E+00 -0.88668703361E+00 -0.52700181782E-01  0.11802465072E+01  0.00000000000E+00 0.  1.
         11    1    3    3    0    0 -0.27032620809E+02 -0.11803108861E+02 -0.26133732455E+02  0.39408729222E+02  0.51100000000E-03 0. -1.
        -11    1    3    3    0    0 -0.62007176135E+01 -0.33824709472E+01  0.47701596882E+01  0.85231703223E+01  0.51100000000E-03 0.  1.
        -12    1    3    3    0    0  0.32456170092E+02  0.16072266842E+02  0.21416272949E+02  0.42075853949E+02  0.00000000000E+00 0.  1.
</event>
<event>
 7    1  0.5158441E-015  0.9000768E+02  0.7816164E-02  0.1186339E+00
        -11   -1    0    0    0    0  0.00000000000E+00  0.00000000000E+00  0.45593999997E+02  0.45594000000E+02  0.51100000000E-03 0. -1.
         11   -1    0    0    0    0 -0.00000000000E+00 -0.00000000000E+00 -0.45593999997E+02  0.45594000000E+02  0.51100000000E-03 0.  1.
    9900012    2    1    2    0    0 -0.56628980866E+00 -0.55006083102E+00  0.87743631050E+00  0.90007684134E+02  0.89999944764E+02 0.  0.
        -12    1    1    2    0    0  0.56628980866E+00  0.55006083102E+00 -0.87743631050E+00  0.11803158663E+01  0.00000000000E+00 0.  1.
         11    1    3    3    0    0  0.53761574706E+01  0.76383500161E+01 -0.82255399689E+00  0.93767827882E+01  0.51100000000E-03 0. -1.
        -11    1    3    3    0    0  0.26966046313E+02  0.22715352832E+02  0.36337989113E+01  0.35445160500E+02  0.51100000000E-03 0.  1.
         12    1    3    3    0    0 -0.32908493592E+02 -0.30903763679E+02 -0.19338086039E+01  0.45185740846E+02  0.00000000000E+00 0. -1.
</event>
<event>
 7    1  0.5158441E-015  0.9000778E+02  0.7816164E-02  0.1186339E+00
        -11   -1    0    0    0    0  0.00000000000E+00  0.00000000000E+00  0.45593999997E+02  0.45594000000E+02  0.51100000000E-03 0. -1.
         11   -1    0    0    0    0 -0.00000000000E+00 -0.00000000000E+00 -0.45593999997E+02  0.45594000000E+02  0.51100000000E-03 0.  1.
    9900012    2    1    2    0    0 -0.23575562403E+00  0.10878973798E+01  0.39218522204E+00  0.90007783634E+02  0.90000045577E+02 0.  0.
        -12    1    1    2    0    0  0.23575562403E+00 -0.10878973798E+01 -0.39218522204E+00  0.11802163665E+01  0.00000000000E+00 0.  1.
         11    1    3    3    0    0  0.39989651003E+02  0.62342313657E+01 -0.33395177111E+01  0.40610222936E+02  0.51100000000E-03 0. -1.
        -11    1    3    3    0    0 -0.28003676477E+01 -0.25620532950E+01 -0.90114189202E+01  0.97781310722E+01  0.51100000000E-03 0.  1.
        -12    1    3    3    0    0 -0.37425038979E+02 -0.25842806909E+01  0.12743121853E+02  0.39619429626E+02  0.00000000000E+00 0.  1.
</event>
<event>
 7    1  0.5158441E-015  0.9000784E+02  0.7816164E-02  0.1186339E+00
        -11   -1    0    0    0    0  0.00000000000E+00  0.00000000000E+00  0.45593999997E+02  0.45594000000E+02  0.51100000000E-03 0. -1.
         11   -1    0    0    0    0 -0.00000000000E+00 -0.00000000000E+00 -0.45593999997E+02  0.45594000000E+02  0.51100000000E-03 0.  1.
    9900012    2    1    2    0    0 -0.66041751548E+00 -0.95484726494E+00  0.21185438888E+00  0.90007844554E+02  0.90000107302E+02 0.  0.
        -12    1    1    2    0    0  0.66041751548E+00  0.95484726494E+00 -0.21185438888E+00  0.11801554458E+01  0.00000000000E+00 0.  1.
         11    1    3    3    0    0  0.62073666740E+01 -0.10791679197E+02  0.32016731594E+02  0.34352042779E+02  0.51100000000E-03 0. -1.
        -11    1    3    3    0    0  0.55464928031E+01 -0.99394419654E+01  0.47061251823E+01  0.12316805734E+02  0.51100000000E-03 0.  1.
        -12    1    3    3    0    0 -0.12414276993E+02  0.19776273897E+02 -0.36511002387E+02  0.43338996041E+02  0.00000000000E+00 0.  1.
</event>
<event>
 7    1  0.5158441E-015  0.9000777E+02  0.7816164E-02  0.1186339E+00
        -11   -1    0    0    0    0  0.00000000000E+00  0.00000000000E+00  0.45593999997E+02  0.45594000000E+02  0.51100000000E-03 0.  1.
         11   -1    0    0    0    0 -0.00000000000E+00 -0.00000000000E+00 -0.45593999997E+02  0.45594000000E+02  0.51100000000E-03 0. -1.
    9900012    2    1    2    0    0  0.91318497555E+00  0.35520271264E+00 -0.65792764205E+00  0.90007769282E+02  0.90000031036E+02 0.  0.
        -12    1    1    2    0    0 -0.91318497555E+00 -0.35520271264E+00  0.65792764205E+00  0.11802307185E+01  0.00000000000E+00 0.  1.
         11    1    3    3    0    0  0.86778881050E+01 -0.14210627338E+01 -0.94061204252E-01  0.87939757236E+01  0.51100000000E-03 0. -1.
        -11    1    3    3    0    0  0.27349531424E+02 -0.46002914907E+01  0.24980564978E+02  0.37325436070E+02  0.51100000000E-03 0.  1.
         12    1    3    3    0    0 -0.35114234554E+02  0.63765569371E+01 -0.25544431416E+02  0.43888357488E+02  0.00000000000E+00 0. -1.
</event>
<event>
 7    1  0.5158441E-015  0.9000791E+02  0.7816164E-02  0.1186339E+00
        -11   -1    0    0    0    0  0.00000000000E+00  0.00000000000E+00  0.45593999997E+02  0.45594000000E+02  0.51100000000E-03 0.  1.
         11   -1    0    0    0    0 -0.00000000000E+00 -0.00000000000E+00 -0.45593999997E+02  0.45594000000E+02  0.51100000000E-03 0. -1.
    9900012    2    1    2    0    0 -0.80730300949E+00 -0.84264969306E+00 -0.17555347285E+00  0.90007908615E+02  0.90000172209E+02 0.  0.
        -12    1    1    2    0    0  0.80730300949E+00  0.84264969306E+00  0.17555347285E+00  0.11800913847E+01  0.00000000000E+00 0.  1.
         11    1    3    3    0    0 -0.46615257222E+01  0.18074297209E+02 -0.22265690997E+02  0.29054621620E+02  0.51100000000E-03 0. -1.
        -11    1    3    3    0    0 -0.87948314734E+01 -0.97138484703E+01 -0.15465316417E+02  0.20270271949E+02  0.51100000000E-03 0.  1.
        -12    1    3    3    0    0  0.12649054186E+02 -0.92030984320E+01  0.37555453941E+02  0.40683015046E+02  0.00000000000E+00 0.  1.
</event>
<event>
 7    1  0.5158441E-015  0.9000727E+02  0.7816164E-02  0.1186340E+00
        -11   -1    0    0    0    0  0.00000000000E+00  0.00000000000E+00  0.45593999997E+02  0.45594000000E+02  0.51100000000E-03 0.  1.
         11   -1    0    0    0    0 -0.00000000000E+00 -0.00000000000E+00 -0.45593999997E+02  0.45594000000E+02  0.51100000000E-03 0. -1.
    9900012    2    1    2    0    0 -0.11660792996E+01  0.65924849118E-01 -0.17329036176E+00  0.90007272865E+02  0.89999528065E+02 0.  0.
        -12    1    1    2    0    0  0.11660792996E+01 -0.65924849118E-01  0.17329036176E+00  0.11807271353E+01  0.00000000000E+00 0.  1.
         11    1    3    3    0    0 -0.62496440410E+01 -0.14116833384E+01  0.66585489672E+01  0.92405181185E+01  0.51100000000E-03 0. -1.
        -11    1    3    3    0    0  0.23341824898E+02  0.31694259712E+00  0.30962902714E+02  0.38776830542E+02  0.51100000000E-03 0.  1.
         12    1    3    3    0    0 -0.18258260157E+02  0.11606655904E+01 -0.37794742043E+02  0.41989924204E+02  0.00000000000E+00 0. -1.
</event>
<event>
 7    1  0.5158441E-015  0.9000763E+02  0.7816164E-02  0.1186339E+00
        -11   -1    0    0    0    0  0.00000000000E+00  0.00000000000E+00  0.45593999997E+02  0.45594000000E+02  0.51100000000E-03 0. -1.
         11   -1    0    0    0    0 -0.00000000000E+00 -0.00000000000E+00 -0.45593999997E+02  0.45594000000E+02  0.51100000000E-03 0.  1.
    9900012    2    1    2    0    0  0.93988149323E+00 -0.12178549047E+00  0.70361632443E+00  0.90007625119E+02  0.89999884971E+02 0.  0.
        -12    1    1    2    0    0 -0.93988149323E+00  0.12178549047E+00 -0.70361632443E+00  0.11803748807E+01  0.00000000000E+00 0.  1.
         11    1    3    3    0    0 -0.88177675777E+01  0.22730972271E+01  0.36742183390E+02  0.37853771762E+02  0.51100000000E-03 0. -1.
        -11    1    3    3    0    0  0.62214313190E+01 -0.67410028867E+01  0.51945093726E+01  0.10541833591E+02  0.51100000000E-03 0.  1.
        -12    1    3    3    0    0  0.35362177520E+01  0.43461201691E+01 -0.41233076438E+02  0.41612019767E+02  0.00000000000E+00 0.  1.
</event>
<event>
 7    1  0.5158441E-015  0.9000797E+02  0.7816164E-02  0.1186339E+00
        -11   -1    0    0    0    0  0.00000000000E+00  0.00000000000E+00  0.45593999997E+02  0.45594000000E+02  0.51100000000E-03 0. -1.
         11   -1    0    0    0    0 -0.00000000000E+00 -0.00000000000E+00 -0.45593999997E+02  0.45594000000E+02  0.51100000000E-03 0.  1.
    9900012    2    1    2    0    0 -0.92512472008E+00 -0.91788727374E-01  0.72677149196E+00  0.90007967068E+02  0.90000231433E+02 0.  0.
        -12    1    1    2    0    0  0.92512472008E+00  0.91788727374E-01 -0.72677149196E+00  0.11800329316E+01  0.00000000000E+00 0.  1.
         11    1    3    3    0    0  0.91992328893E+01 -0.47045326934E+00  0.16393521377E+01  0.93559974200E+01  0.51100000000E-03 0. -1.
        -11    1    3    3    0    0 -0.14981833970E+02 -0.18749871465E+02 -0.34302881705E+02  0.41865268691E+02  0.51100000000E-03 0.  1.
         12    1    3    3    0    0  0.48574763605E+01  0.19128536007E+02  0.33390301059E+02  0.38786700958E+02  0.00000000000E+00 0. -1.
</event>
<event>
 7    1  0.5158441E-015  0.9000773E+02  0.7816164E-02  0.1186339E+00
        -11   -1    0    0    0    0  0.00000000000E+00  0.00000000000E+00  0.45593999997E+02  0.45594000000E+02  0.51100000000E-03 0. -1.
         11   -1    0    0    0    0 -0.00000000000E+00 -0.00000000000E+00 -0.45593999997E+02  0.45594000000E+02  0.51100000000E-03 0.  1.
    9900012    2    1    2    0    0  0.11616089925E+01 -0.17623738712E+00  0.11238745982E+00  0.90007734772E+02  0.89999996071E+02 0.  0.
        -12    1    1    2    0    0 -0.11616089925E+01  0.17623738712E+00 -0.11238745982E+00  0.11802652284E+01  0.00000000000E+00 0.  1.
         11    1    3    3    0    0  0.32012100844E+02  0.14884061929E+02  0.21301827665E+02  0.41231999249E+02  0.51100000000E-03 0. -1.
        -11    1    3    3    0    0 -0.54046194499E+01  0.78789659365E+01 -0.31706186865E+01  0.10066818700E+02  0.51100000000E-03 0.  1.
        -12    1    3    3    0    0 -0.25445872402E+02 -0.22939265252E+02 -0.18018821519E+02  0.38708916822E+02  0.00000000000E+00 0.  1.
</event>
<event>
 7    1  0.5158441E-015  0.9000773E+02  0.7816164E-02  0.1186339E+00
        -11   -1    0    0    0    0  0.00000000000E+00  0.00000000000E+00  0.45593999997E+02  0.45594000000E+02  0.51100000000E-03 0. -1.
         11   -1    0    0    0    0 -0.00000000000E+00 -0.00000000000E+00 -0.45593999997E+02  0.45594000000E+02  0.51100000000E-03 0.  1.
    9900012    2    1    2    0    0  0.56635029519E+00 -0.10142144230E+01  0.20894161375E+00  0.90007728781E+02  0.89999990001E+02 0.  0.
        -12    1    1    2    0    0 -0.56635029519E+00  0.10142144230E+01 -0.20894161375E+00  0.11802712191E+01  0.00000000000E+00 0.  1.
         11    1    3    3    0    0  0.12193042397E+02  0.14799867270E+02 -0.35835388507E+02  0.40643344152E+02  0.51100000000E-03 0. -1.
        -11    1    3    3    0    0 -0.45957077109E+01  0.75016011501E+01  0.58131214718E+01  0.10544521359E+02  0.51100000000E-03 0.  1.
        -12    1    3    3    0    0 -0.70309843910E+01 -0.23315682843E+02  0.30231208649E+02  0.38819863270E+02  0.00000000000E+00 0.  1.
</event>
<event>
 7    1  0.5158441E-015  0.9000774E+02  0.7816164E-02  0.1186339E+00
        -11   -1    0    0    0    0  0.00000000000E+00  0.00000000000E+00  0.45593999997E+02  0.45594000000E+02  0.51100000000E-03 0.  1.
         11   -1    0    0    0    0 -0.00000000000E+00 -0.00000000000E+00 -0.45593999997E+02  0.45594000000E+02  0.51100000000E-03 0. -1.
    9900012    2    1    2    0    0  0.20063889111E+00 -0.87321863901E+00 -0.76827431821E+00  0.90007740628E+02  0.90000002005E+02 0.  0.
        -12    1    1    2    0    0 -0.20063889111E+00  0.87321863901E+00  0.76827431821E+00  0.11802593716E+01  0.00000000000E+00 0.  1.
         11    1    3    3    0    0 -0.85130807172E+01  0.54895260227E+01  0.64785416483E+01  0.12024098361E+02  0.51100000000E-03 0. -1.
        -11    1    3    3    0    0 -0.67446793134E+01 -0.31718862598E+02  0.19650017973E+02  0.37917016630E+02  0.51100000000E-03 0.  1.
         12    1    3    3    0    0  0.15458398922E+02  0.25356117936E+02 -0.26896833939E+02  0.40066625637E+02  0.00000000000E+00 0. -1.
</event>
<event>
 7    1  0.5158441E-015  0.9000784E+02  0.7816164E-02  0.1186339E+00
        -11   -1    0    0    0    0  0.00000000000E+00  0.00000000000E+00  0.45593999997E+02  0.45594000000E+02  0.51100000000E-03 0.  1.
         11   -1    0    0    0    0 -0.00000000000E+00 -0.00000000000E+00 -0.45593999997E+02  0.45594000000E+02  0.51100000000E-03 0. -1.
    9900012    2    1    2    0    0  0.10320735712E+01  0.35583925130E+00 -0.44830835837E+00  0.90007839920E+02  0.90000102607E+02 0.  0.
        -12    1    1    2    0    0 -0.10320735712E+01 -0.35583925130E+00  0.44830835837E+00  0.11801600796E+01  0.00000000000E+00 0.  1.
         11    1    3    3    0    0  0.51711119770E+01 -0.75290271107E+01  0.27438147121E+01  0.95370418762E+01  0.51100000000E-03 0. -1.
        -11    1    3    3    0    0 -0.13802292059E+02  0.18507237446E+02  0.33718515053E+02  0.40865136261E+02  0.51100000000E-03 0.  1.
         12    1    3    3    0    0  0.96632536534E+01 -0.10622371084E+02 -0.36910638123E+02  0.39605661783E+02  0.00000000000E+00 0. -1.
</event>
<event>
 7    1  0.5158441E-015  0.9000781E+02  0.7816164E-02  0.1186339E+00
        -11   -1    0    0    0    0  0.00000000000E+00  0.00000000000E+00  0.45593999997E+02  0.45594000000E+02  0.51100000000E-03 0. -1.
         11   -1    0    0    0    0 -0.00000000000E+00 -0.00000000000E+00 -0.45593999997E+02  0.45594000000E+02  0.51100000000E-03 0.  1.
    9900012    2    1    2    0    0  0.54725992389E+00  0.87557971056E+00  0.57158139218E+00  0.90007814192E+02  0.90000076539E+02 0.  0.
        -12    1    1    2    0    0 -0.54725992389E+00 -0.87557971056E+00 -0.57158139218E+00  0.11801858081E+01  0.00000000000E+00 0.  1.
         11    1    3    3    0    0 -0.45109836192E+01 -0.47638945607E+00 -0.88011091044E+01  0.99012848588E+01  0.51100000000E-03 0. -1.
        -11    1    3    3    0    0 -0.35906933524E+02  0.62641285558E+01 -0.41585160827E+01  0.36685698002E+02  0.51100000000E-03 0.  1.
         12    1    3    3    0    0  0.40965177067E+02 -0.49121593891E+01  0.13531206579E+02  0.43420831331E+02  0.00000000000E+00 0. -1.
</event>
<event>
 7    1  0.5158441E-015  0.9000780E+02  0.7816164E-02  0.1186339E+00
        -11   -1    0    0    0    0  0.00000000000E+00  0.00000000000E+00  0.45593999997E+02  0.45594000000E+02  0.51100000000E-03 0. -1.
         11   -1    0    0    0    0 -0.00000000000E+00 -0.00000000000E+00 -0.45593999997E+02  0.45594000000E+02  0.51100000000E-03 0.  1.
    9900012    2    1    2    0    0 -0.61025368096E+00  0.71733009578E+00  0.71126895853E+00  0.90007798512E+02  0.90000060652E+02 0.  0.
        -12    1    1    2    0    0  0.61025368096E+00 -0.71733009578E+00 -0.71126895853E+00  0.11802014882E+01  0.00000000000E+00 0.  1.
         11    1    3    3    0    0  0.27791223565E+02  0.16359496764E+02  0.26223683390E+02  0.41565211564E+02  0.51100000000E-03 0. -1.
        -11    1    3    3    0    0 -0.16422252053E+01  0.61215417897E+01 -0.64082117552E+01  0.90130658307E+01  0.51100000000E-03 0.  1.
        -12    1    3    3    0    0 -0.26759252041E+02 -0.21763708458E+02 -0.19104202676E+02  0.39429521117E+02  0.00000000000E+00 0.  1.
</event>
<event>
 7    1  0.5158441E-015  0.9000773E+02  0.7816164E-02  0.1186339E+00
        -11   -1    0    0    0    0  0.00000000000E+00  0.00000000000E+00  0.45593999997E+02  0.45594000000E+02  0.51100000000E-03 0. -1.
         11   -1    0    0    0    0 -0.00000000000E+00 -0.00000000000E+00 -0.45593999997E+02  0.45594000000E+02  0.51100000000E-03 0.  1.
    9900012    2    1    2    0    0 -0.23545404030E+00  0.15169142112E+00  0.11465556663E+01  0.90007729358E+02  0.89999990586E+02 0.  0.
        -12    1    1    2    0    0  0.23545404030E+00 -0.15169142112E+00 -0.11465556663E+01  0.11802706419E+01  0.00000000000E+00 0.  1.
         11    1    3    3    0    0 -0.12023502121E+02  0.42239758976E+01 -0.23988479195E+01  0.12967692441E+02  0.51100000000E-03 0. -1.
        -11    1    3    3    0    0 -0.58232033695E+01  0.15243016788E+02 -0.30217304068E+02  0.34341588834E+02  0.51100000000E-03 0.  1.
         12    1    3    3    0    0  0.17611251450E+02 -0.19315301265E+02  0.33762707654E+02  0.42698448083E+02  0.00000000000E+00 0. -1.
</event>
<event>
 7    1  0.5158441E-015  0.9000775E+02  0.7816164E-02  0.1186339E+00
        -11   -1    0    0    0    0  0.00000000000E+00  0.00000000000E+00  0.45593999997E+02  0.45594000000E+02  0.51100000000E-03 0. -1.
         11   -1    0    0    0    0 -0.00000000000E+00 -0.00000000000E+00 -0.45593999997E+02  0.45594000000E+02  0.51100000000E-03 0.  1.
    9900012    2    1    2    0    0 -0.61015210086E+00 -0.32061813238E+00  0.95807657530E+00  0.90007749053E+02  0.90000010541E+02 0.  0.
        -12    1    1    2    0    0  0.61015210086E+00  0.32061813238E+00 -0.95807657530E+00  0.11802509467E+01  0.00000000000E+00 0.  1.
         11    1    3    3    0    0  0.81250501729E+01  0.65177597543E+01 -0.27117180561E+01  0.10763412452E+02  0.51100000000E-03 0. -1.
        -11    1    3    3    0    0  0.27016370378E+02 -0.12810870701E+02 -0.19982906933E+02  0.35962748036E+02  0.51100000000E-03 0.  1.
         12    1    3    3    0    0 -0.35751572652E+02  0.59724928144E+01  0.23652701565E+02  0.43281588566E+02  0.00000000000E+00 0. -1.
</event>
<event>
 7    1  0.5158441E-015  0.9000780E+02  0.7816164E-02  0.1186339E+00
        -11   -1    0    0    0    0  0.00000000000E+00  0.00000000000E+00  0.45593999997E+02  0.45594000000E+02  0.51100000000E-03 0. -1.
         11   -1    0    0    0    0 -0.00000000000E+00 -0.00000000000E+00 -0.45593999997E+02  0.45594000000E+02  0.51100000000E-03 0.  1.
    9900012    2    1    2    0    0  0.67980619497E+00 -0.81743055523E+00  0.51237995103E+00  0.90007804088E+02  0.90000066302E+02 0.  0.
        -12    1    1    2    0    0 -0.67980619497E+00  0.81743055523E+00 -0.51237995103E+00  0.11801959115E+01  0.00000000000E+00 0.  1.
         11    1    3    3    0    0 -0.11757367764E+02  0.30684982621E+02  0.13587153568E+02  0.35558607925E+02  0.51100000000E-03 0. -1.
        -11    1    3    3    0    0 -0.57363148696E+01  0.35333891705E+01  0.73818478774E+01  0.99940895363E+01  0.51100000000E-03 0.  1.
        -12    1    3    3    0    0  0.18173488829E+02 -0.35035802347E+02 -0.20456621495E+02  0.44455106627E+02  0.00000000000E+00 0.  1.
</event>
<event>
 7    1  0.5158441E-015  0.9000761E+02  0.7816164E-02  0.1186339E+00
        -11   -1    0    0    0    0  0.00000000000E+00  0.00000000000E+00  0.45593999997E+02  0.45594000000E+02  0.51100000000E-03 0.  1.
         11   -1    0    0    0    0 -0.00000000000E+00 -0.00000000000E+00 -0.45593999997E+02  0.45594000000E+02  0.51100000000E-03 0. -1.
    9900012    2    1    2    0    0  0.78451116542E+00 -0.77111675473E+00  0.42806921534E+00  0.90007609357E+02  0.89999869000E+02 0.  0.
        -12    1    1    2    0    0 -0.78451116542E+00  0.77111675473E+00 -0.42806921534E+00  0.11803906435E+01  0.00000000000E+00 0.  1.
         11    1    3    3    0    0  0.77344484576E+01  0.17746976654E+02 -0.32094837032E+02  0.37481401223E+02  0.51100000000E-03 0. -1.
        -11    1    3    3    0    0  0.60668882230E+01  0.81790262926E+01  0.29251215482E+01  0.10595279144E+02  0.51100000000E-03 0.  1.
        -12    1    3    3    0    0 -0.13016825515E+02 -0.26697119701E+02  0.29597784699E+02  0.41930928989E+02  0.00000000000E+00 0.  1.
</event>
<event>
 7    1  0.6433815E-015  0.9000771E+02  0.7816164E-02  0.1186339E+00
        -11   -1    0    0    0    0  0.00000000000E+00  0.00000000000E+00  0.45593999997E+02  0.45594000000E+02  0.51100000000E-03 0.  1.
         11   -1    0    0    0    0 -0.00000000000E+00 -0.00000000000E+00 -0.45593999997E+02  0.45594000000E+02  0.51100000000E-03 0. -1.
    9900012    2    1    2    0    0  0.68703796517E+00  0.92615694556E+00 -0.25157493668E+00  0.90007712831E+02  0.89999973840E+02 0.  0.
        -12    1    1    2    0    0 -0.68703796517E+00 -0.92615694556E+00  0.25157493668E+00  0.11802871694E+01  0.00000000000E+00 0.  1.
         11    1    3    3    0    0 -0.28303507944E+02 -0.22989948883E+02 -0.11688915974E+02  0.38291736295E+02  0.51100000000E-03 0. -1.
        -11    1    3    3    0    0  0.42619679908E+01 -0.85915034053E+01  0.20692396033E+01  0.98112208575E+01  0.51100000000E-03 0.  1.
        -12    1    3    3    0    0  0.24728577919E+02  0.32507609234E+02  0.93681014341E+01  0.41904755678E+02  0.00000000000E+00 0.  1.
</event>
<event>
 7    1  0.5158441E-015  0.9000759E+02  0.7816164E-02  0.1186339E+00
        -11   -1    0    0    0    0  0.00000000000E+00  0.00000000000E+00  0.45593999997E+02  0.45594000000E+02  0.51100000000E-03 0.  1.
         11   -1    0    0    0    0 -0.00000000000E+00 -0.00000000000E+00 -0.45593999997E+02  0.45594000000E+02  0.51100000000E-03 0. -1.
    9900012    2    1    2    0    0 -0.10690902630E+01  0.24398764641E+00 -0.43689880725E+00  0.90007591372E+02  0.89999850778E+02 0.  0.
        -12    1    1    2    0    0  0.10690902630E+01 -0.24398764641E+00  0.43689880725E+00  0.11804086283E+01  0.00000000000E+00 0.  1.
         11    1    3    3    0    0  0.10051020385E+02  0.73595251207E-01  0.11948676413E-01  0.10051296935E+02  0.51100000000E-03 0. -1.
        -11    1    3    3    0    0  0.28560292545E+02 -0.12591891381E+01  0.20389477831E+02  0.35114194766E+02  0.51100000000E-03 0.  1.
         12    1    3    3    0    0 -0.39680403194E+02  0.14295815333E+01 -0.20838325315E+02  0.44842099671E+02  0.00000000000E+00 0. -1.
</event>
<event>
 7    1  0.5158441E-015  0.9000774E+02  0.7816164E-02  0.1186339E+00
        -11   -1    0    0    0    0  0.00000000000E+00  0.00000000000E+00  0.45593999997E+02  0.45594000000E+02  0.51100000000E-03 0.  1.
         11   -1    0    0    0    0 -0.00000000000E+00 -0.00000000000E+00 -0.45593999997E+02  0.45594000000E+02  0.51100000000E-03 0. -1.
    9900012    2    1    2    0    0  0.94181871297E+00  0.61069368777E+00 -0.36476802377E+00  0.90007735208E+02  0.89999996513E+02 0.  0.
        -12    1    1    2    0    0 -0.94181871297E+00 -0.61069368777E+00  0.36476802377E+00  0.11802647921E+01  0.00000000000E+00 0.  1.
         11    1    3    3    0    0  0.67667560888E+01 -0.60097606897E+00  0.75611731791E+01  0.10164718408E+02  0.51100000000E-03 0. -1.
        -11    1    3    3    0    0  0.52687473388E+01 -0.32970531611E+02  0.15637616917E+02  0.36869373690E+02  0.51100000000E-03 0.  1.
         12    1    3    3    0    0 -0.11093684715E+02  0.34182201367E+02 -0.23563558120E+02  0.42973643110E+02  0.00000000000E+00 0. -1.
</event>
<event>
 7    1  0.5158441E-015  0.9000857E+02  0.7816164E-02  0.1186337E+00
        -11   -1    0    0    0    0  0.00000000000E+00  0.00000000000E+00  0.45593999997E+02  0.45594000000E+02  0.51100000000E-03 0. -1.
         11   -1    0    0    0    0 -0.00000000000E+00 -0.00000000000E+00 -0.45593999997E+02  0.45594000000E+02  0.51100000000E-03 0.  1.
    9900012    2    1    2    0    0  0.54433037299E+00  0.84929927092E+00  0.61111516061E+00  0.90008565158E+02  0.90000837414E+02 0.  0.
        -12    1    1    2    0    0 -0.54433037299E+00 -0.84929927092E+00 -0.61111516061E+00  0.11794348418E+01  0.00000000000E+00 0.  1.
         11    1    3    3    0    0 -0.70574543483E+00  0.34875525125E+02  0.17771691098E+02  0.39148861211E+02  0.51100000000E-03 0. -1.
        -11    1    3    3    0    0 -0.68432492110E+01  0.66994350492E+00  0.53537710514E+01  0.87144563109E+01  0.51100000000E-03 0.  1.
        -12    1    3    3    0    0  0.80933250188E+01 -0.34696169359E+02 -0.22514346989E+02  0.42145247637E+02  0.00000000000E+00 0.  1.
</event>
<event>
 7    1  0.5158441E-015  0.9000785E+02  0.7816164E-02  0.1186339E+00
        -11   -1    0    0    0    0  0.00000000000E+00  0.00000000000E+00  0.45593999997E+02  0.45594000000E+02  0.51100000000E-03 0. -1.
         11   -1    0    0    0    0 -0.00000000000E+00 -0.00000000000E+00 -0.45593999997E+02  0.45594000000E+02  0.51100000000E-03 0.  1.
    9900012    2    1    2    0    0  0.11056921692E+01  0.32925119730E+00  0.24859721744E+00  0.90007846578E+02  0.90000109352E+02 0.  0.
        -12    1    1    2    0    0 -0.11056921692E+01 -0.32925119730E+00 -0.24859721744E+00  0.11801534225E+01  0.00000000000E+00 0.  1.
         11    1    3    3    0    0  0.11449164775E+02 -0.81864007313E+01  0.37269814173E+02  0.39838920414E+02  0.51100000000E-03 0. -1.
        -11    1    3    3    0    0  0.77064173373E+01  0.73593824842E+01 -0.21276379814E+01  0.10866288344E+02  0.51100000000E-03 0.  1.
        -12    1    3    3    0    0 -0.18049889943E+02  0.11562694444E+01 -0.34893578974E+02  0.39302637820E+02  0.00000000000E+00 0.  1.
</event>
<event>
 7    1  0.5158441E-015  0.9000773E+02  0.7816164E-02  0.1186339E+00
        -11   -1    0    0    0    0  0.00000000000E+00  0.00000000000E+00  0.45593999997E+02  0.45594000000E+02  0.51100000000E-03 0.  1.
         11   -1    0    0    0    0 -0.00000000000E+00 -0.00000000000E+00 -0.45593999997E+02  0.45594000000E+02  0.51100000000E-03 0. -1.
    9900012    2    1    2    0    0 -0.65241958667E+00 -0.18304281120E+00 -0.96637051292E+00  0.90007733947E+02  0.89999995235E+02 0.  0.
        -12    1    1    2    0    0  0.65241958667E+00  0.18304281120E+00  0.96637051292E+00  0.11802660531E+01  0.00000000000E+00 0.  1.
         11    1    3    3    0    0  0.51110294900E+01  0.73075834206E+01  0.41530693030E+01  0.98372446749E+01  0.51100000000E-03 0. -1.
        -11    1    3    3    0    0 -0.14955672581E+01  0.33622313498E+02  0.11578052999E+02  0.35591403427E+02  0.51100000000E-03 0.  1.
         12    1    3    3    0    0 -0.42678818186E+01 -0.41112939730E+02 -0.16697492815E+02  0.44579085845E+02  0.00000000000E+00 0. -1.
</event>
<event>
 7    1  0.5158441E-015  0.9000757E+02  0.7816164E-02  0.1186339E+00
        -11   -1    0    0    0    0  0.00000000000E+00  0.00000000000E+00  0.45593999997E+02  0.45594000000E+02  0.51100000000E-03 0. -1.
         11   -1    0    0    0    0 -0.00000000000E+00 -0.00000000000E+00 -0.45593999997E+02  0.45594000000E+02  0.51100000000E-03 0.  1.
    9900012    2    1    2    0    0  0.37904777609E-01  0.52980080801E+00  0.10541787326E+01  0.90007568524E+02  0.89999827629E+02 0.  0.
        -12    1    1    2    0    0 -0.37904777609E-01 -0.52980080801E+00 -0.10541787326E+01  0.11804314756E+01  0.00000000000E+00 0.  1.
         11    1    3    3    0    0  0.27082874951E+01  0.75824240172E+01 -0.33399702161E+01  0.87168444083E+01  0.51100000000E-03 0. -1.
        -11    1    3    3    0    0 -0.16912087433E+02  0.16331670900E+02 -0.29497936315E+02  0.37720954691E+02  0.51100000000E-03 0.  1.
         12    1    3    3    0    0  0.14241704716E+02 -0.23384294109E+02  0.33892085264E+02  0.43569769425E+02  0.00000000000E+00 0. -1.
</event>
<event>
 7    1  0.5158441E-015  0.9000775E+02  0.7816164E-02  0.1186339E+00
        -11   -1    0    0    0    0  0.00000000000E+00  0.00000000000E+00  0.45593999997E+02  0.45594000000E+02  0.51100000000E-03 0.  1.
         11   -1    0    0    0    0 -0.00000000000E+00 -0.00000000000E+00 -0.45593999997E+02  0.45594000000E+02  0.51100000000E-03 0. -1.
    9900012    2    1    2    0    0  0.38941659911E+00 -0.47687802132E+00 -0.10069474915E+01  0.90007745288E+02  0.90000006726E+02 0.  0.
        -12    1    1    2    0    0 -0.38941659911E+00  0.47687802132E+00  0.10069474915E+01  0.11802547121E+01  0.00000000000E+00 0.  1.
         11    1    3    3    0    0 -0.10213951074E+02  0.35012363112E+01  0.22985471569E+01  0.11039328401E+02  0.51100000000E-03 0. -1.
        -11    1    3    3    0    0 -0.18109226176E+02  0.18425868575E+02  0.22559963310E+02  0.34298814123E+02  0.51100000000E-03 0.  1.
         12    1    3    3    0    0  0.28712593850E+02 -0.22403982908E+02 -0.25865457958E+02  0.44669602764E+02  0.00000000000E+00 0. -1.
</event>
<event>
 7    1  0.5158441E-015  0.9000790E+02  0.7816164E-02  0.1186339E+00
        -11   -1    0    0    0    0  0.00000000000E+00  0.00000000000E+00  0.45593999997E+02  0.45594000000E+02  0.51100000000E-03 0. -1.
         11   -1    0    0    0    0 -0.00000000000E+00 -0.00000000000E+00 -0.45593999997E+02  0.45594000000E+02  0.51100000000E-03 0.  1.
    9900012    2    1    2    0    0  0.85269579134E+00  0.74473508941E+00 -0.33303237466E+00  0.90007902111E+02  0.90000165618E+02 0.  0.
        -12    1    1    2    0    0 -0.85269579134E+00 -0.74473508941E+00  0.33303237466E+00  0.11800978894E+01  0.00000000000E+00 0.  1.
         11    1    3    3    0    0 -0.17724835955E+01 -0.12380638617E+02 -0.93918446748E+01  0.15640609238E+02  0.51100000000E-03 0. -1.
        -11    1    3    3    0    0  0.22662624067E+02 -0.23119559633E+02  0.30321702422E+01  0.32516190181E+02  0.51100000000E-03 0.  1.
         12    1    3    3    0    0 -0.20037444680E+02  0.36244933339E+02  0.60266420580E+01  0.41851102692E+02  0.00000000000E+00 0. -1.
</event>
<event>
 7    1  0.5158441E-015  0.9000776E+02  0.7816164E-02  0.1186339E+00
        -11   -1    0    0    0    0  0.00000000000E+00  0.00000000000E+00  0.45593999997E+02  0.45594000000E+02  0.51100000000E-03 0. -1.
         11   -1    0    0    0    0 -0.00000000000E+00 -0.00000000000E+00 -0.45593999997E+02  0.45594000000E+02  0.51100000000E-03 0.  1.
    9900012    2    1    2    0    0  0.70985741292E-01  0.11195473711E+01  0.36681025011E+00  0.90007756359E+02  0.90000017943E+02 0.  0.
        -12    1    1    2    0    0 -0.70985741292E-01 -0.11195473711E+01 -0.36681025011E+00  0.11802436406E+01  0.00000000000E+00 0.  1.
         11    1    3    3    0    0 -0.34050150855E+01 -0.16830167873E+02  0.30417590721E+02  0.34929622155E+02  0.51100000000E-03 0. -1.
        -11    1    3    3    0    0 -0.46149829023E+01  0.48674283005E+00  0.97888836395E+01  0.10833154155E+02  0.51100000000E-03 0.  1.
        -12    1    3    3    0    0  0.80909837291E+01  0.17462972414E+02 -0.39839664110E+02  0.44244980050E+02  0.00000000000E+00 0.  1.
</event>
<event>
 7    1  0.5158441E-015  0.9000774E+02  0.7816164E-02  0.1186339E+00
        -11   -1    0    0    0    0  0.00000000000E+00  0.00000000000E+00  0.45593999997E+02  0.45594000000E+02  0.51100000000E-03 0. -1.
         11   -1    0    0    0    0 -0.00000000000E+00 -0.00000000000E+00 -0.45593999997E+02  0.45594000000E+02  0.51100000000E-03 0.  1.
    9900012    2    1    2    0    0 -0.92654110535E+00  0.73089151707E+00 -0.18463974170E-01  0.90007736577E+02  0.89999997900E+02 0.  0.
        -12    1    1    2    0    0  0.92654110535E+00 -0.73089151707E+00  0.18463974170E-01  0.11802634231E+01  0.00000000000E+00 0.  1.
         11    1    3    3    0    0  0.60041064781E+01 -0.22955368888E+02  0.33777400232E+02  0.41278457118E+02  0.51100000000E-03 0. -1.
        -11    1    3    3    0    0  0.74981027954E+01  0.19463899970E+00 -0.81499678168E+01  0.11076163846E+02  0.51100000000E-03 0.  1.
        -12    1    3    3    0    0 -0.14428750379E+02  0.23491621405E+02 -0.25645896389E+02  0.37653115613E+02  0.00000000000E+00 0.  1.
</event>
<event>
 7    1  0.5158441E-015  0.9000747E+02  0.7816164E-02  0.1186340E+00
        -11   -1    0    0    0    0  0.00000000000E+00  0.00000000000E+00  0.45593999997E+02  0.45594000000E+02  0.51100000000E-03 0. -1.
         11   -1    0    0    0    0 -0.00000000000E+00 -0.00000000000E+00 -0.45593999997E+02  0.45594000000E+02  0.51100000000E-03 0.  1.
    9900012    2    1    2    0    0 -0.11030234406E+01 -0.29883440428E+00 -0.29610281654E+00  0.90007474867E+02  0.89999732735E+02 0.  0.
        -12    1    1    2    0    0  0.11030234406E+01  0.29883440428E+00  0.29610281654E+00  0.11805251330E+01  0.00000000000E+00 0.  1.
         11    1    3    3    0    0 -0.35492043487E+01 -0.62451569144E+01  0.14466151955E+01  0.73274505921E+01  0.51100000000E-03 0. -1.
        -11    1    3    3    0    0 -0.32369955905E+02  0.26426648528E+02  0.35673408326E+01  0.41939333788E+02  0.51100000000E-03 0.  1.
         12    1    3    3    0    0  0.34816136813E+02 -0.20480326018E+02 -0.53100588447E+01  0.40740690487E+02  0.00000000000E+00 0. -1.
</event>
<event>
 7    1  0.5158441E-015  0.9000776E+02  0.7816164E-02  0.1186339E+00
        -11   -1    0    0    0    0  0.00000000000E+00  0.00000000000E+00  0.45593999997E+02  0.45594000000E+02  0.51100000000E-03 0. -1.
         11   -1    0    0    0    0 -0.00000000000E+00 -0.00000000000E+00 -0.45593999997E+02  0.45594000000E+02  0.51100000000E-03 0.  1.
    9900012    2    1    2    0    0 -0.83835420799E+00 -0.17640555136E+00  0.81179242138E+00  0.90007761197E+02  0.90000022845E+02 0.  0.
        -12    1    1    2    0    0  0.83835420799E+00  0.17640555136E+00 -0.81179242138E+00  0.11802388030E+01  0.00000000000E+00 0.  1.
         11    1    3    3    0    0  0.16602282692E+02 -0.12537114986E+02  0.35695655540E+02  0.41315794407E+02  0.51100000000E-03 0. -1.
        -11    1    3    3    0    0  0.13772531393E+00  0.81898647216E+01  0.12571389264E+01  0.82869325424E+01  0.51100000000E-03 0.  1.
        -12    1    3    3    0    0 -0.17578362214E+02  0.41708447134E+01 -0.36141002045E+02  0.40405034248E+02  0.00000000000E+00 0.  1.
</event>
<event>
 7    1  0.5158441E-015  0.9000770E+02  0.7816164E-02  0.1186339E+00
        -11   -1    0    0    0    0  0.00000000000E+00  0.00000000000E+00  0.45593999997E+02  0.45594000000E+02  0.51100000000E-03 0.  1.
         11   -1    0    0    0    0 -0.00000000000E+00 -0.00000000000E+00 -0.45593999997E+02  0.45594000000E+02  0.51100000000E-03 0. -1.
    9900012    2    1    2    0    0  0.18800691123E+00  0.76012175340E+00 -0.88316055540E+00  0.90007701629E+02  0.89999962490E+02 0.  0.
        -12    1    1    2    0    0 -0.18800691123E+00 -0.76012175340E+00  0.88316055540E+00  0.11802983713E+01  0.00000000000E+00 0.  1.
         11    1    3    3    0    0 -0.16350478027E+01 -0.44030450563E+01 -0.92177740089E+01  0.10345411786E+02  0.51100000000E-03 0. -1.
        -11    1    3    3    0    0 -0.25536199737E+02 -0.26306836417E+02  0.97546751996E+01  0.37938118400E+02  0.51100000000E-03 0.  1.
         12    1    3    3    0    0  0.27359254451E+02  0.31470003226E+02 -0.14200617461E+01  0.41724171442E+02  0.00000000000E+00 0. -1.
</event>
<event>
 7    1  0.5158441E-015  0.9000825E+02  0.7816164E-02  0.1186338E+00
        -11   -1    0    0    0    0  0.00000000000E+00  0.00000000000E+00  0.45593999997E+02  0.45594000000E+02  0.51100000000E-03 0.  1.
         11   -1    0    0    0    0 -0.00000000000E+00 -0.00000000000E+00 -0.45593999997E+02  0.45594000000E+02  0.51100000000E-03 0. -1.
    9900012    2    1    2    0    0  0.42249096834E+00  0.81845309080E+00 -0.73719484335E+00  0.90008245654E+02  0.90000513695E+02 0.  0.
        -12    1    1    2    0    0 -0.42249096834E+00 -0.81845309080E+00  0.73719484335E+00  0.11797543461E+01  0.00000000000E+00 0.  1.
         11    1    3    3    0    0 -0.28058497515E+02  0.27474746103E+02 -0.98880992129E+01  0.40495869697E+02  0.51100000000E-03 0. -1.
        -11    1    3    3    0    0  0.67466477777E+01  0.46558947073E+01  0.78869596646E+01  0.11375356907E+02  0.51100000000E-03 0.  1.
        -12    1    3    3    0    0  0.21734340706E+02 -0.31312187720E+02  0.12639447050E+01  0.38137019049E+02  0.00000000000E+00 0.  1.
</event>
<event>
 7    1  0.5158441E-015  0.9000780E+02  0.7816164E-02  0.1186339E+00
        -11   -1    0    0    0    0  0.00000000000E+00  0.00000000000E+00  0.45593999997E+02  0.45594000000E+02  0.51100000000E-03 0. -1.
         11   -1    0    0    0    0 -0.00000000000E+00 -0.00000000000E+00 -0.45593999997E+02  0.45594000000E+02  0.51100000000E-03 0.  1.
    9900012    2    1    2    0    0 -0.81858437035E+00  0.44182543814E+00  0.72634071971E+00  0.90007804707E+02  0.90000066929E+02 0.  0.
        -12    1    1    2    0    0  0.81858437035E+00 -0.44182543814E+00 -0.72634071971E+00  0.11801952933E+01  0.00000000000E+00 0.  1.
         11    1    3    3    0    0 -0.29511581936E+00  0.99795378557E+01  0.14614774022E+01  0.10090301562E+02  0.51100000000E-03 0. -1.
        -11    1    3    3    0    0  0.30420016627E+02  0.15933405924E+01 -0.24707886124E+02  0.39222388795E+02  0.51100000000E-03 0.  1.
         12    1    3    3    0    0 -0.30943485178E+02 -0.11131053010E+02  0.23972749442E+02  0.40695114349E+02  0.00000000000E+00 0. -1.
</event>
<event>
 7    1  0.5158441E-015  0.9000754E+02  0.7816164E-02  0.1186339E+00
        -11   -1    0    0    0    0  0.00000000000E+00  0.00000000000E+00  0.45593999997E+02  0.45594000000E+02  0.51100000000E-03 0. -1.
         11   -1    0    0    0    0 -0.00000000000E+00 -0.00000000000E+00 -0.45593999997E+02  0.45594000000E+02  0.51100000000E-03 0.  1.
    9900012    2    1    2    0    0 -0.10363873853E+01  0.66543230298E-01  0.56121935062E+00  0.90007536543E+02  0.89999795225E+02 0.  0.
        -12    1    1    2    0    0  0.10363873853E+01 -0.66543230298E-01 -0.56121935062E+00  0.11804634570E+01  0.00000000000E+00 0.  1.
         11    1    3    3    0    0 -0.98873494302E+01  0.72694137302E+00 -0.69753263017E+01  0.12122017150E+02  0.51100000000E-03 0. -1.
        -11    1    3    3    0    0  0.16489206290E+02  0.20162144575E+02 -0.26566464465E+02  0.37204610364E+02  0.51100000000E-03 0.  1.
         12    1    3    3    0    0 -0.76382442450E+01 -0.20822542717E+02  0.34103010117E+02  0.40680909029E+02  0.00000000000E+00 0. -1.
</event>
<event>
 7    1  0.5158441E-015  0.9000776E+02  0.7816164E-02  0.1186339E+00
        -11   -1    0    0    0    0  0.00000000000E+00  0.00000000000E+00  0.45593999997E+02  0.45594000000E+02  0.51100000000E-03 0.  1.
         11   -1    0    0    0    0 -0.00000000000E+00 -0.00000000000E+00 -0.45593999997E+02  0.45594000000E+02  0.51100000000E-03 0. -1.
    9900012    2    1    2    0    0  0.11158075299E+01  0.37814086912E+00 -0.70415738955E-01  0.90007756238E+02  0.90000017821E+02 0.  0.
        -12    1    1    2    0    0 -0.11158075299E+01 -0.37814086912E+00  0.70415738955E-01  0.11802437617E+01  0.00000000000E+00 0.  1.
         11    1    3    3    0    0  0.29750503844E+01 -0.73798007739E+01  0.36759105899E+01  0.87649702326E+01  0.51100000000E-03 0. -1.
        -11    1    3    3    0    0  0.16033673436E+02  0.32668425499E+02  0.20838458669E+02  0.41935021980E+02  0.51100000000E-03 0.  1.
         12    1    3    3    0    0 -0.17892916290E+02 -0.24910483856E+02 -0.24584784998E+02  0.39307764026E+02  0.00000000000E+00 0. -1.
</event>
<event>
 7    1  0.5158441E-015  0.9000753E+02  0.7816164E-02  0.1186339E+00
        -11   -1    0    0    0    0  0.00000000000E+00  0.00000000000E+00  0.45593999997E+02  0.45594000000E+02  0.51100000000E-03 0. -1.
         11   -1    0    0    0    0 -0.00000000000E+00 -0.00000000000E+00 -0.45593999997E+02  0.45594000000E+02  0.51100000000E-03 0.  1.
    9900012    2    1    2    0    0  0.44200312910E+00 -0.29568453065E+00  0.10538993151E+01  0.90007534044E+02  0.89999792693E+02 0.  0.
        -12    1    1    2    0    0 -0.44200312910E+00  0.29568453065E+00 -0.10538993151E+01  0.11804659564E+01  0.00000000000E+00 0.  1.
         11    1    3    3    0    0  0.38314508068E+01  0.26225480707E+01 -0.33234289093E+01  0.57098996177E+01  0.51100000000E-03 0. -1.
        -11    1    3    3    0    0  0.25924070008E+02  0.22488609169E+02  0.22953583604E+02  0.41287551982E+02  0.51100000000E-03 0.  1.
         12    1    3    3    0    0 -0.29313517686E+02 -0.25406841770E+02 -0.18576255380E+02  0.43010082444E+02  0.00000000000E+00 0. -1.
</event>
<event>
 7    1  0.5158441E-015  0.9000788E+02  0.7816164E-02  0.1186339E+00
        -11   -1    0    0    0    0  0.00000000000E+00  0.00000000000E+00  0.45593999997E+02  0.45594000000E+02  0.51100000000E-03 0. -1.
         11   -1    0    0    0    0 -0.00000000000E+00 -0.00000000000E+00 -0.45593999997E+02  0.45594000000E+02  0.51100000000E-03 0.  1.
    9900012    2    1    2    0    0 -0.57351928665E+00 -0.44606238498E+00 -0.92994258813E+00  0.90007877447E+02  0.90000140629E+02 0.  0.
        -12    1    1    2    0    0  0.57351928665E+00  0.44606238498E+00  0.92994258813E+00  0.11801225532E+01  0.00000000000E+00 0.  1.
         11    1    3    3    0    0 -0.11874946446E+02 -0.23628228301E+02  0.23119003408E+02  0.35125430169E+02  0.51100000000E-03 0. -1.
        -11    1    3    3    0    0 -0.70823985562E+01 -0.90937907362E+01 -0.20347691636E+01  0.11704601022E+02  0.51100000000E-03 0.  1.
        -12    1    3    3    0    0  0.18383825716E+02  0.32275956652E+02 -0.22014176832E+02  0.43177846256E+02  0.00000000000E+00 0.  1.
</event>
<event>
 7    1  0.5158441E-015  0.9000762E+02  0.7816164E-02  0.1186339E+00
        -11   -1    0    0    0    0  0.00000000000E+00  0.00000000000E+00  0.45593999997E+02  0.45594000000E+02  0.51100000000E-03 0.  1.
         11   -1    0    0    0    0 -0.00000000000E+00 -0.00000000000E+00 -0.45593999997E+02  0.45594000000E+02  0.51100000000E-03 0. -1.
    9900012    2    1    2    0    0 -0.95018823899E+00  0.69978391074E+00  0.27128193267E-01  0.90007622454E+02  0.89999882271E+02 0.  0.
        -12    1    1    2    0    0  0.95018823899E+00 -0.69978391074E+00 -0.27128193267E-01  0.11803775456E+01  0.00000000000E+00 0.  1.
         11    1    3    3    0    0  0.12179099190E+02 -0.34585424323E+02 -0.22310132268E+01  0.36734989492E+02  0.51100000000E-03 0. -1.
        -11    1    3    3    0    0  0.67319497706E+01 -0.43362005971E+01  0.39308189725E+01  0.89203767515E+01  0.51100000000E-03 0.  1.
        -12    1    3    3    0    0 -0.19861237199E+02  0.39621408831E+02 -0.16726775525E+01  0.44352256211E+02  0.00000000000E+00 0.  1.
</event>
<event>
 7    1  0.5158441E-015  0.9000781E+02  0.7816164E-02  0.1186339E+00
        -11   -1    0    0    0    0  0.00000000000E+00  0.00000000000E+00  0.45593999997E+02  0.45594000000E+02  0.51100000000E-03 0.  1.
         11   -1    0    0    0    0 -0.00000000000E+00 -0.00000000000E+00 -0.45593999997E+02  0.45594000000E+02  0.51100000000E-03 0. -1.
    9900012    2    1    2    0    0 -0.59735630032E+00  0.10169211892E+01  0.43426276269E-01  0.90007809720E+02  0.90000072009E+02 0.  0.
        -12    1    1    2    0    0  0.59735630032E+00 -0.10169211892E+01 -0.43426276269E-01  0.11801902796E+01  0.00000000000E+00 0.  1.
         11    1    3    3    0    0 -0.14412650897E+01 -0.11868087154E+02  0.50467845732E+01  0.12976855264E+02  0.51100000000E-03 0. -1.
        -11    1    3    3    0    0  0.15728904621E+01 -0.19669581178E+02  0.25614934695E+02  0.32334057708E+02  0.51100000000E-03 0.  1.
         12    1    3    3    0    0 -0.72898167273E+00  0.32554589521E+02 -0.30618292992E+02  0.44696896749E+02  0.00000000000E+00 0. -1.
</event>
<event>
 7    1  0.5158441E-015  0.9000774E+02  0.7816164E-02  0.1186339E+00
        -11   -1    0    0    0    0  0.00000000000E+00  0.00000000000E+00  0.45593999997E+02  0.45594000000E+02  0.51100000000E-03 0.  1.
         11   -1    0    0    0    0 -0.00000000000E+00 -0.00000000000E+00 -0.45593999997E+02  0.45594000000E+02  0.51100000000E-03 0. -1.
    9900012    2    1    2    0    0  0.50202438891E+00 -0.95169429076E+00  0.48503636447E+00  0.90007741221E+02  0.90000002605E+02 0.  0.
        -12    1    1    2    0    0 -0.50202438891E+00  0.95169429076E+00 -0.48503636447E+00  0.11802587788E+01  0.00000000000E+00 0.  1.
         11    1    3    3    0    0 -0.54423718472E+00  0.10649089548E+02 -0.12470625226E+01  0.10735663348E+02  0.51100000000E-03 0. -1.
        -11    1    3    3    0    0  0.31814462046E+02 -0.39433533699E+01 -0.22668828027E+02  0.39263033447E+02  0.51100000000E-03 0.  1.
         12    1    3    3    0    0 -0.30768200472E+02 -0.76574304692E+01  0.24400926914E+02  0.40009044427E+02  0.00000000000E+00 0. -1.
</event>
<event>
 7    1  0.5158441E-015  0.9000774E+02  0.7816164E-02  0.1186339E+00
        -11   -1    0    0    0    0  0.00000000000E+00  0.00000000000E+00  0.45593999997E+02  0.45594000000E+02  0.51100000000E-03 0. -1.
         11   -1    0    0    0    0 -0.00000000000E+00 -0.00000000000E+00 -0.45593999997E+02  0.45594000000E+02  0.51100000000E-03 0.  1.
    9900012    2    1    2    0    0 -0.95040714329E+00 -0.36390440835E+00  0.59775513799E+00  0.90007740977E+02  0.90000002358E+02 0.  0.
        -12    1    1    2    0    0  0.95040714329E+00  0.36390440835E+00 -0.59775513799E+00  0.11802590230E+01  0.00000000000E+00 0.  1.
         11    1    3    3    0    0 -0.14917371547E+01 -0.38178038086E+01 -0.88918689789E+01  0.97911306731E+01  0.51100000000E-03 0. -1.
        -11    1    3    3    0    0  0.22104093095E+02 -0.25497055326E+01 -0.28479545472E+02  0.36141063078E+02  0.51100000000E-03 0.  1.
         12    1    3    3    0    0 -0.21562763083E+02  0.60036049329E+01  0.37969169589E+02  0.44075547226E+02  0.00000000000E+00 0. -1.
</event>
<event>
 7    1  0.5158441E-015  0.9000788E+02  0.7816164E-02  0.1186339E+00
        -11   -1    0    0    0    0  0.00000000000E+00  0.00000000000E+00  0.45593999997E+02  0.45594000000E+02  0.51100000000E-03 0. -1.
         11   -1    0    0    0    0 -0.00000000000E+00 -0.00000000000E+00 -0.45593999997E+02  0.45594000000E+02  0.51100000000E-03 0.  1.
    9900012    2    1    2    0    0 -0.11096318358E+01  0.26979473018E+00 -0.29768019333E+00  0.90007879030E+02  0.90000142233E+02 0.  0.
        -12    1    1    2    0    0  0.11096318358E+01 -0.26979473018E+00  0.29768019333E+00  0.11801209705E+01  0.00000000000E+00 0.  1.
         11    1    3    3    0    0 -0.53450741302E+01 -0.11165027698E+02  0.21413375057E+01  0.12562363930E+02  0.51100000000E-03 0. -1.
        -11    1    3    3    0    0 -0.13282357984E+02 -0.26651726439E+02 -0.15454321478E+02  0.33549539616E+02  0.51100000000E-03 0.  1.
         12    1    3    3    0    0  0.17517800278E+02  0.38086548867E+02  0.13015303779E+02  0.43895975484E+02  0.00000000000E+00 0. -1.
</event>
<event>
 7    1  0.5158441E-015  0.9000808E+02  0.7816164E-02  0.1186338E+00
        -11   -1    0    0    0    0  0.00000000000E+00  0.00000000000E+00  0.45593999997E+02  0.45594000000E+02  0.51100000000E-03 0.  1.
         11   -1    0    0    0    0 -0.00000000000E+00 -0.00000000000E+00 -0.45593999997E+02  0.45594000000E+02  0.51100000000E-03 0. -1.
    9900012    2    1    2    0    0 -0.68180367855E+00 -0.91408520288E+00  0.30300696602E+00  0.90008075750E+02  0.90000341549E+02 0.  0.
        -12    1    1    2    0    0  0.68180367855E+00  0.91408520288E+00 -0.30300696602E+00  0.11799242500E+01  0.00000000000E+00 0.  1.
         11    1    3    3    0    0  0.20004806519E+02  0.26011923574E+02 -0.10031734965E+02  0.34313964483E+02  0.51100000000E-03 0. -1.
        -11    1    3    3    0    0  0.11646788115E+02 -0.11843082339E+02  0.11151289793E+02  0.20006437389E+02  0.51100000000E-03 0.  1.
        -12    1    3    3    0    0 -0.32333398313E+02 -0.15082926438E+02 -0.81654786243E+00  0.35687673878E+02  0.00000000000E+00 0.  1.
</event>
<event>
 7    1  0.5158441E-015  0.9000770E+02  0.7816164E-02  0.1186339E+00
        -11   -1    0    0    0    0  0.00000000000E+00  0.00000000000E+00  0.45593999997E+02  0.45594000000E+02  0.51100000000E-03 0.  1.
         11   -1    0    0    0    0 -0.00000000000E+00 -0.00000000000E+00 -0.45593999997E+02  0.45594000000E+02  0.51100000000E-03 0. -1.
    9900012    2    1    2    0    0  0.36294651562E+00  0.34212333407E+00 -0.10697319471E+01  0.90007701314E+02  0.89999962172E+02 0.  0.
        -12    1    1    2    0    0 -0.36294651562E+00 -0.34212333407E+00  0.10697319471E+01  0.11802986858E+01  0.00000000000E+00 0.  1.
         11    1    3    3    0    0 -0.16785761399E+02  0.20905182634E+02 -0.32094023776E+02  0.41818833187E+02  0.51100000000E-03 0. -1.
        -11    1    3    3    0    0 -0.63339282526E+01 -0.17491346182E+01  0.76657072439E+01  0.10096592833E+02  0.51100000000E-03 0.  1.
        -12    1    3    3    0    0  0.23482636167E+02 -0.18813924682E+02  0.23358584585E+02  0.38092275295E+02  0.00000000000E+00 0.  1.
</event>
<event>
 7    1  0.5158441E-015  0.9000771E+02  0.7816164E-02  0.1186339E+00
        -11   -1    0    0    0    0  0.00000000000E+00  0.00000000000E+00  0.45593999997E+02  0.45594000000E+02  0.51100000000E-03 0.  1.
         11   -1    0    0    0    0 -0.00000000000E+00 -0.00000000000E+00 -0.45593999997E+02  0.45594000000E+02  0.51100000000E-03 0. -1.
    9900012    2    1    2    0    0 -0.30522074144E-01 -0.60930838278E+00 -0.10103965519E+01  0.90007707878E+02  0.89999968822E+02 0.  0.
        -12    1    1    2    0    0  0.30522074144E-01  0.60930838278E+00  0.10103965519E+01  0.11802921225E+01  0.00000000000E+00 0.  1.
         11    1    3    3    0    0 -0.68740437087E+00  0.18992228278E+02 -0.29520349827E+02  0.35108806785E+02  0.51100000000E-03 0. -1.
        -11    1    3    3    0    0  0.33823034280E+01  0.11546988602E+02 -0.77739181361E+00  0.12057249295E+02  0.51100000000E-03 0.  1.
        -12    1    3    3    0    0 -0.27254211313E+01 -0.31148525263E+02  0.29287345088E+02  0.42841651798E+02  0.00000000000E+00 0.  1.
</event>
<event>
 7    1  0.5158441E-015  0.9000784E+02  0.7816164E-02  0.1186339E+00
        -11   -1    0    0    0    0  0.00000000000E+00  0.00000000000E+00  0.45593999997E+02  0.45594000000E+02  0.51100000000E-03 0. -1.
         11   -1    0    0    0    0 -0.00000000000E+00 -0.00000000000E+00 -0.45593999997E+02  0.45594000000E+02  0.51100000000E-03 0.  1.
    9900012    2    1    2    0    0 -0.87371453518E-01  0.34853020330E+00  0.11241272365E+01  0.90007843605E+02  0.90000106340E+02 0.  0.
        -12    1    1    2    0    0  0.87371453518E-01 -0.34853020330E+00 -0.11241272365E+01  0.11801563953E+01  0.00000000000E+00 0.  1.
         11    1    3    3    0    0 -0.14990563639E+02 -0.38244017338E+02 -0.26653935752E+01  0.41163408308E+02  0.51100000000E-03 0. -1.
        -11    1    3    3    0    0 -0.68135265841E+01  0.63936616351E+01 -0.20613007787E+01  0.95682817045E+01  0.51100000000E-03 0.  1.
        -12    1    3    3    0    0  0.21716718770E+02  0.32198885906E+02  0.58508215903E+01  0.39276153592E+02  0.00000000000E+00 0.  1.
</event>
<event>
 7    1  0.5158441E-015  0.9000774E+02  0.7816164E-02  0.1186339E+00
        -11   -1    0    0    0    0  0.00000000000E+00  0.00000000000E+00  0.45593999997E+02  0.45594000000E+02  0.51100000000E-03 0. -1.
         11   -1    0    0    0    0 -0.00000000000E+00 -0.00000000000E+00 -0.45593999997E+02  0.45594000000E+02  0.51100000000E-03 0.  1.
    9900012    2    1    2    0    0  0.39933499833E+00 -0.72687677667E+00  0.83976048971E+00  0.90007739025E+02  0.90000000380E+02 0.  0.
        -12    1    1    2    0    0 -0.39933499833E+00  0.72687677667E+00 -0.83976048971E+00  0.11802609751E+01  0.00000000000E+00 0.  1.
         11    1    3    3    0    0  0.13909312521E+02  0.25595455020E+02  0.28802685210E+02  0.40965729190E+02  0.51100000000E-03 0. -1.
        -11    1    3    3    0    0 -0.73647442953E+01  0.28849863014E+01  0.32973141999E+00  0.79165224414E+01  0.51100000000E-03 0.  1.
        -12    1    3    3    0    0 -0.61452332273E+01 -0.29207318098E+02 -0.28292656140E+02  0.41125487394E+02  0.00000000000E+00 0.  1.
</event>
<event>
 7    1  0.5158441E-015  0.9000778E+02  0.7816164E-02  0.1186339E+00
        -11   -1    0    0    0    0  0.00000000000E+00  0.00000000000E+00  0.45593999997E+02  0.45594000000E+02  0.51100000000E-03 0.  1.
         11   -1    0    0    0    0 -0.00000000000E+00 -0.00000000000E+00 -0.45593999997E+02  0.45594000000E+02  0.51100000000E-03 0. -1.
    9900012    2    1    2    0    0 -0.44996541782E+00 -0.48315924494E+00 -0.97826292895E+00  0.90007783879E+02  0.90000045827E+02 0.  0.
        -12    1    1    2    0    0  0.44996541782E+00  0.48315924494E+00  0.97826292895E+00  0.11802161206E+01  0.00000000000E+00 0.  1.
         11    1    3    3    0    0  0.38205334707E+01 -0.45405579002E+01 -0.70948764212E+01  0.92493466655E+01  0.51100000000E-03 0. -1.
        -11    1    3    3    0    0  0.38049302923E+02  0.44493376781E+00  0.30767991202E+01  0.38176093463E+02  0.51100000000E-03 0.  1.
         12    1    3    3    0    0 -0.42319801811E+02  0.36124648874E+01  0.30398143721E+01  0.42582343751E+02  0.00000000000E+00 0. -1.
</event>
<event>
 7    1  0.5507370E-015  0.9000776E+02  0.7816164E-02  0.1186339E+00
        -11   -1    0    0    0    0  0.00000000000E+00  0.00000000000E+00  0.45593999997E+02  0.45594000000E+02  0.51100000000E-03 0.  1.
         11   -1    0    0    0    0 -0.00000000000E+00 -0.00000000000E+00 -0.45593999997E+02  0.45594000000E+02  0.51100000000E-03 0. -1.
    9900012    2    1    2    0    0 -0.45575716782E+00 -0.89445956586E+00 -0.62063082276E+00  0.90007764799E+02  0.90000026495E+02 0.  0.
        -12    1    1    2    0    0  0.45575716782E+00  0.89445956586E+00  0.62063082276E+00  0.11802352008E+01  0.00000000000E+00 0.  1.
         11    1    3    3    0    0  0.21300778904E+02 -0.33905305191E+01 -0.30920851915E+02  0.37700370853E+02  0.51100000000E-03 0. -1.
        -11    1    3    3    0    0  0.66798119940E+00 -0.88643639323E+01 -0.40277847718E+01  0.97594158246E+01  0.51100000000E-03 0.  1.
        -12    1    3    3    0    0 -0.22424517271E+02  0.11360434886E+02  0.34328005864E+02  0.42547978121E+02  0.00000000000E+00 0.  1.
</event>
<event>
 7    1  0.5158441E-015  0.9000775E+02  0.7816164E-02  0.1186339E+00
        -11   -1    0    0    0    0  0.00000000000E+00  0.00000000000E+00  0.45593999997E+02  0.45594000000E+02  0.51100000000E-03 0. -1.
         11   -1    0    0    0    0 -0.00000000000E+00 -0.00000000000E+00 -0.45593999997E+02  0.45594000000E+02  0.51100000000E-03 0.  1.
    9900012    2    1    2    0    0 -0.81837884849E+00 -0.22268821203E-01  0.85014074466E+00  0.90007754633E+02  0.90000016194E+02 0.  0.
        -12    1    1    2    0    0  0.81837884849E+00  0.22268821203E-01 -0.85014074466E+00  0.11802453668E+01  0.00000000000E+00 0.  1.
         11    1    3    3    0    0 -0.21686008029E+02  0.21295804821E+02  0.17781841551E+01  0.30445955172E+02  0.51100000000E-03 0. -1.
        -11    1    3    3    0    0 -0.14526228966E+02  0.26744771580E+01  0.65428063357E+01  0.16154642399E+02  0.51100000000E-03 0.  1.
        -12    1    3    3    0    0  0.35393858146E+02 -0.23992550800E+02 -0.74708497461E+01  0.43407157062E+02  0.00000000000E+00 0.  1.
</event>
<event>
 7    1  0.5158441E-015  0.9000786E+02  0.7816164E-02  0.1186339E+00
        -11   -1    0    0    0    0  0.00000000000E+00  0.00000000000E+00  0.45593999997E+02  0.45594000000E+02  0.51100000000E-03 0.  1.
         11   -1    0    0    0    0 -0.00000000000E+00 -0.00000000000E+00 -0.45593999997E+02  0.45594000000E+02  0.51100000000E-03 0. -1.
    9900012    2    1    2    0    0  0.11784966444E+01  0.56234254349E-01  0.26765479990E-01  0.90007858897E+02  0.90000121834E+02 0.  0.
        -12    1    1    2    0    0 -0.11784966444E+01 -0.56234254349E-01 -0.26765479990E-01  0.11801411031E+01  0.00000000000E+00 0.  1.
         11    1    3    3    0    0 -0.31280758210E+02 -0.90538110887E+01 -0.24025983088E+02  0.40468570434E+02  0.51100000000E-03 0. -1.
        -11    1    3    3    0    0  0.90803029873E+01  0.75829010598E+00 -0.57319601201E+01  0.10764862902E+02  0.51100000000E-03 0.  1.
        -12    1    3    3    0    0  0.23378951867E+02  0.83517552371E+01  0.29784708688E+02  0.38774425560E+02  0.00000000000E+00 0.  1.
</event>
<event>
 7    1  0.5158441E-015  0.9000776E+02  0.7816164E-02  0.1186339E+00
        -11   -1    0    0    0    0  0.00000000000E+00  0.00000000000E+00  0.45593999997E+02  0.45594000000E+02  0.51100000000E-03 0.  1.
         11   -1    0    0    0    0 -0.00000000000E+00 -0.00000000000E+00 -0.45593999997E+02  0.45594000000E+02  0.51100000000E-03 0. -1.
    9900012    2    1    2    0    0 -0.60452176263E+00 -0.73684702981E-01 -0.10109864391E+01  0.90007758678E+02  0.90000020293E+02 0.  0.
        -12    1    1    2    0    0  0.60452176263E+00  0.73684702981E-01  0.10109864391E+01  0.11802413215E+01  0.00000000000E+00 0.  1.
         11    1    3    3    0    0  0.24929774634E+01 -0.49253633069E+01 -0.60221408532E+01  0.81694749559E+01  0.51100000000E-03 0. -1.
        -11    1    3    3    0    0  0.17463707212E+02 -0.29314907430E+02  0.19630916663E+02  0.39366454711E+02  0.51100000000E-03 0.  1.
         12    1    3    3    0    0 -0.20561206438E+02  0.34166586034E+02 -0.14619762249E+02  0.42471829012E+02  0.00000000000E+00 0. -1.
</event>
<event>
 7    1  0.5158441E-015  0.9000774E+02  0.7816164E-02  0.1186339E+00
        -11   -1    0    0    0    0  0.00000000000E+00  0.00000000000E+00  0.45593999997E+02  0.45594000000E+02  0.51100000000E-03 0.  1.
         11   -1    0    0    0    0 -0.00000000000E+00 -0.00000000000E+00 -0.45593999997E+02  0.45594000000E+02  0.51100000000E-03 0. -1.
    9900012    2    1    2    0    0  0.22502000040E+00 -0.57639012943E+00 -0.10050672296E+01  0.90007737437E+02  0.89999998771E+02 0.  0.
        -12    1    1    2    0    0 -0.22502000040E+00  0.57639012943E+00  0.10050672296E+01  0.11802625631E+01  0.00000000000E+00 0.  1.
         11    1    3    3    0    0  0.92594308988E+00  0.68295627067E+01 -0.18948701645E+01  0.71477850116E+01  0.51100000000E-03 0. -1.
        -11    1    3    3    0    0 -0.41410456443E+01  0.22314724746E+01  0.41099885641E+02  0.41368204317E+02  0.51100000000E-03 0.  1.
         12    1    3    3    0    0  0.34401225549E+01 -0.96374253108E+01 -0.40210082706E+02  0.41491748108E+02  0.00000000000E+00 0. -1.
</event>
<event>
 7    1  0.5158441E-015  0.9000762E+02  0.7816164E-02  0.1186339E+00
        -11   -1    0    0    0    0  0.00000000000E+00  0.00000000000E+00  0.45593999997E+02  0.45594000000E+02  0.51100000000E-03 0. -1.
         11   -1    0    0    0    0 -0.00000000000E+00 -0.00000000000E+00 -0.45593999997E+02  0.45594000000E+02  0.51100000000E-03 0.  1.
    9900012    2    1    2    0    0 -0.62071921913E+00  0.90291454381E+00  0.43902456975E+00  0.90007623113E+02  0.89999882938E+02 0.  0.
        -12    1    1    2    0    0  0.62071921913E+00 -0.90291454381E+00 -0.43902456975E+00  0.11803768870E+01  0.00000000000E+00 0.  1.
         11    1    3    3    0    0 -0.26151503968E+01  0.89656956978E+01  0.35957556275E+01  0.10007605595E+02  0.51100000000E-03 0. -1.
        -11    1    3    3    0    0 -0.10877536263E+02 -0.10171676574E+02 -0.39058979185E+02  0.41801766167E+02  0.51100000000E-03 0.  1.
         12    1    3    3    0    0  0.12871967441E+02  0.21088954205E+01  0.35902248127E+02  0.38198251351E+02  0.00000000000E+00 0. -1.
</event>
<event>
 7    1  0.5158441E-015  0.9000772E+02  0.7816164E-02  0.1186339E+00
        -11   -1    0    0    0    0  0.00000000000E+00  0.00000000000E+00  0.45593999997E+02  0.45594000000E+02  0.51100000000E-03 0. -1.
         11   -1    0    0    0    0 -0.00000000000E+00 -0.00000000000E+00 -0.45593999997E+02  0.45594000000E+02  0.51100000000E-03 0.  1.
    9900012    2    1    2    0    0 -0.60384966121E+00  0.62868275727E+00 -0.79572855139E+00  0.90007720224E+02  0.89999981331E+02 0.  0.
        -12    1    1    2    0    0  0.60384966121E+00 -0.62868275727E+00  0.79572855139E+00  0.11802797762E+01  0.00000000000E+00 0.  1.
         11    1    3    3    0    0  0.68820137385E+01 -0.25135129122E+02  0.24510755793E+02  0.35775885438E+02  0.51100000000E-03 0. -1.
        -11    1    3    3    0    0 -0.45042404161E+01 -0.72434399468E+01  0.45126875285E+01  0.96498680292E+01  0.51100000000E-03 0.  1.
        -12    1    3    3    0    0 -0.29816229836E+01  0.33007251826E+02 -0.29819171873E+02  0.44581966757E+02  0.00000000000E+00 0.  1.
</event>
<event>
 7    1  0.5158441E-015  0.9000781E+02  0.7816164E-02  0.1186339E+00
        -11   -1    0    0    0    0  0.00000000000E+00  0.00000000000E+00  0.45593999997E+02  0.45594000000E+02  0.51100000000E-03 0.  1.
         11   -1    0    0    0    0 -0.00000000000E+00 -0.00000000000E+00 -0.45593999997E+02  0.45594000000E+02  0.51100000000E-03 0. -1.
    9900012    2    1    2    0    0 -0.79692183762E+00 -0.31958157590E+00 -0.80971346061E+00  0.90007808199E+02  0.90000070467E+02 0.  0.
        -12    1    1    2    0    0  0.79692183762E+00  0.31958157590E+00  0.80971346061E+00  0.11801918010E+01  0.00000000000E+00 0.  1.
         11    1    3    3    0    0 -0.68058643420E+00  0.21222410209E+01  0.11711708569E+02  0.11921879999E+02  0.51100000000E-03 0. -1.
        -11    1    3    3    0    0  0.30495247884E+02 -0.60243827317E+00  0.17504602456E+02  0.35167231662E+02  0.51100000000E-03 0.  1.
         12    1    3    3    0    0 -0.30611583287E+02 -0.18393843237E+01 -0.30026024486E+02  0.42918696538E+02  0.00000000000E+00 0. -1.
</event>
<event>
 7    1  0.5158441E-015  0.9000772E+02  0.7816164E-02  0.1186339E+00
        -11   -1    0    0    0    0  0.00000000000E+00  0.00000000000E+00  0.45593999997E+02  0.45594000000E+02  0.51100000000E-03 0.  1.
         11   -1    0    0    0    0 -0.00000000000E+00 -0.00000000000E+00 -0.45593999997E+02  0.45594000000E+02  0.51100000000E-03 0. -1.
    9900012    2    1    2    0    0  0.24885847434E+00  0.55663488202E+00 -0.10105900210E+01  0.90007718202E+02  0.89999979282E+02 0.  0.
        -12    1    1    2    0    0 -0.24885847434E+00 -0.55663488202E+00  0.10105900210E+01  0.11802817979E+01  0.00000000000E+00 0.  1.
         11    1    3    3    0    0 -0.19676295987E+01  0.26321804441E+01  0.14698485642E+02  0.15061388401E+02  0.51100000000E-03 0. -1.
        -11    1    3    3    0    0  0.40155293323E+01  0.35090163529E+02 -0.22973102276E+01  0.35393808595E+02  0.51100000000E-03 0.  1.
         12    1    3    3    0    0 -0.17990412593E+01 -0.37165709091E+02 -0.13411765435E+02  0.39552521207E+02  0.00000000000E+00 0. -1.
</event>
<event>
 7    1  0.5158441E-015  0.9000775E+02  0.7816164E-02  0.1186339E+00
        -11   -1    0    0    0    0  0.00000000000E+00  0.00000000000E+00  0.45593999997E+02  0.45594000000E+02  0.51100000000E-03 0.  1.
         11   -1    0    0    0    0 -0.00000000000E+00 -0.00000000000E+00 -0.45593999997E+02  0.45594000000E+02  0.51100000000E-03 0. -1.
    9900012    2    1    2    0    0 -0.33098176235E+00 -0.89142565428E+00  0.69913495694E+00  0.90007754978E+02  0.90000016544E+02 0.  0.
        -12    1    1    2    0    0  0.33098176235E+00  0.89142565428E+00 -0.69913495694E+00  0.11802450221E+01  0.00000000000E+00 0.  1.
         11    1    3    3    0    0 -0.35840266232E+01  0.58513394686E+01 -0.37856524056E+02  0.38473365258E+02  0.51100000000E-03 0. -1.
        -11    1    3    3    0    0 -0.77637946962E+01 -0.59604119034E+01 -0.15730740653E+01  0.99135049513E+01  0.51100000000E-03 0.  1.
        -12    1    3    3    0    0  0.11016839557E+02 -0.78235321945E+00  0.40128733079E+02  0.41620884768E+02  0.00000000000E+00 0.  1.
</event>
<event>
 7    1  0.5158441E-015  0.9000775E+02  0.7816164E-02  0.1186339E+00
        -11   -1    0    0    0    0  0.00000000000E+00  0.00000000000E+00  0.45593999997E+02  0.45594000000E+02  0.51100000000E-03 0. -1.
         11   -1    0    0    0    0 -0.00000000000E+00 -0.00000000000E+00 -0.45593999997E+02  0.45594000000E+02  0.51100000000E-03 0.  1.
    9900012    2    1    2    0    0  0.93871310745E+00  0.28199223389E+00  0.65748899547E+00  0.90007748460E+02  0.90000009940E+02 0.  0.
        -12    1    1    2    0    0 -0.93871310745E+00 -0.28199223389E+00 -0.65748899547E+00  0.11802515398E+01  0.00000000000E+00 0.  1.
         11    1    3    3    0    0 -0.97737541443E+00  0.13511515576E+01  0.10654582538E+02  0.10784294253E+02  0.51100000000E-03 0. -1.
        -11    1    3    3    0    0 -0.22454438208E+02  0.28629722233E+02  0.72688183150E+01  0.37103888076E+02  0.51100000000E-03 0.  1.
         12    1    3    3    0    0  0.24370526730E+02 -0.29698881557E+02 -0.17265911857E+02  0.42119566131E+02  0.00000000000E+00 0. -1.
</event>
<event>
 7    1  0.5158441E-015  0.9000776E+02  0.7816164E-02  0.1186339E+00
        -11   -1    0    0    0    0  0.00000000000E+00  0.00000000000E+00  0.45593999997E+02  0.45594000000E+02  0.51100000000E-03 0.  1.
         11   -1    0    0    0    0 -0.00000000000E+00 -0.00000000000E+00 -0.45593999997E+02  0.45594000000E+02  0.51100000000E-03 0. -1.
    9900012    2    1    2    0    0  0.17094987643E+00  0.99134385439E+00 -0.61723293229E+00  0.90007761469E+02  0.90000023120E+02 0.  0.
        -12    1    1    2    0    0 -0.17094987643E+00 -0.99134385439E+00  0.61723293229E+00  0.11802385312E+01  0.00000000000E+00 0.  1.
         11    1    3    3    0    0  0.25772243704E+02 -0.40240505457E+01 -0.20124577563E+02  0.32945411679E+02  0.51100000000E-03 0. -1.
        -11    1    3    3    0    0  0.15172438913E+01  0.43815397383E+00 -0.13787535531E+02  0.13877685117E+02  0.51100000000E-03 0.  1.
        -12    1    3    3    0    0 -0.27118537719E+02  0.45772404262E+01  0.33294880161E+02  0.43184664673E+02  0.00000000000E+00 0.  1.
</event>
<event>
 7    1  0.5158441E-015  0.9000775E+02  0.7816164E-02  0.1186339E+00
        -11   -1    0    0    0    0  0.00000000000E+00  0.00000000000E+00  0.45593999997E+02  0.45594000000E+02  0.51100000000E-03 0. -1.
         11   -1    0    0    0    0 -0.00000000000E+00 -0.00000000000E+00 -0.45593999997E+02  0.45594000000E+02  0.51100000000E-03 0.  1.
    9900012    2    1    2    0    0  0.93040128318E+00 -0.71297446173E+00  0.13791353027E+00  0.90007746098E+02  0.90000007547E+02 0.  0.
        -12    1    1    2    0    0 -0.93040128318E+00  0.71297446173E+00 -0.13791353027E+00  0.11802539018E+01  0.00000000000E+00 0.  1.
         11    1    3    3    0    0 -0.18644478848E+02 -0.15472491584E+02 -0.32274230363E+02  0.40356418735E+02  0.51100000000E-03 0. -1.
        -11    1    3    3    0    0  0.12807527389E+02  0.71852093702E+00 -0.91413156954E+00  0.12860197002E+02  0.51100000000E-03 0.  1.
        -12    1    3    3    0    0  0.67673527425E+01  0.14040996185E+02  0.33326275463E+02  0.36791130361E+02  0.00000000000E+00 0.  1.
</event>
<event>
 7    1  0.5158441E-015  0.9000776E+02  0.7816164E-02  0.1186339E+00
        -11   -1    0    0    0    0  0.00000000000E+00  0.00000000000E+00  0.45593999997E+02  0.45594000000E+02  0.51100000000E-03 0. -1.
         11   -1    0    0    0    0 -0.00000000000E+00 -0.00000000000E+00 -0.45593999997E+02  0.45594000000E+02  0.51100000000E-03 0.  1.
    9900012    2    1    2    0    0 -0.83437511350E+00 -0.35339074370E+00  0.75623959998E+00  0.90007760541E+02  0.90000022180E+02 0.  0.
        -12    1    1    2    0    0  0.83437511350E+00  0.35339074370E+00 -0.75623959998E+00  0.11802394589E+01  0.00000000000E+00 0.  1.
         11    1    3    3    0    0  0.30735188962E+02  0.65660714548E+01 -0.17265536113E+02  0.35858944106E+02  0.51100000000E-03 0. -1.
        -11    1    3    3    0    0  0.39039772182E+01 -0.88520653576E+01 -0.58884934260E+01  0.11325831285E+02  0.51100000000E-03 0.  1.
        -12    1    3    3    0    0 -0.35473541293E+02  0.19326031591E+01  0.23910269139E+02  0.42822985150E+02  0.00000000000E+00 0.  1.
</event>
<event>
 7    1  0.5158441E-015  0.9000774E+02  0.7816164E-02  0.1186339E+00
        -11   -1    0    0    0    0  0.00000000000E+00  0.00000000000E+00  0.45593999997E+02  0.45594000000E+02  0.51100000000E-03 0.  1.
         11   -1    0    0    0    0 -0.00000000000E+00 -0.00000000000E+00 -0.45593999997E+02  0.45594000000E+02  0.51100000000E-03 0. -1.
    9900012    2    1    2    0    0  0.27380420079E+00 -0.25450182372E-01 -0.11477826412E+01  0.90007736706E+02  0.89999998030E+02 0.  0.
        -12    1    1    2    0    0 -0.27380420079E+00  0.25450182372E-01  0.11477826412E+01  0.11802632942E+01  0.00000000000E+00 0.  1.
         11    1    3    3    0    0 -0.21424849441E+02 -0.23846728203E+02 -0.29713978049E+02  0.43710537761E+02  0.51100000000E-03 0. -1.
        -11    1    3    3    0    0  0.23064859047E+01  0.13490846061E+02  0.64797475533E+01  0.15142982972E+02  0.51100000000E-03 0.  1.
        -12    1    3    3    0    0  0.19392167737E+02  0.10330431960E+02  0.22086447855E+02  0.31154215973E+02  0.00000000000E+00 0.  1.
</event>
<event>
 7    1  0.5158441E-015  0.9000777E+02  0.7816164E-02  0.1186339E+00
        -11   -1    0    0    0    0  0.00000000000E+00  0.00000000000E+00  0.45593999997E+02  0.45594000000E+02  0.51100000000E-03 0. -1.
         11   -1    0    0    0    0 -0.00000000000E+00 -0.00000000000E+00 -0.45593999997E+02  0.45594000000E+02  0.51100000000E-03 0.  1.
    9900012    2    1    2    0    0  0.36928579462E+00 -0.99302636213E+00  0.52005923870E+00  0.90007773341E+02  0.90000035149E+02 0.  0.
        -12    1    1    2    0    0 -0.36928579462E+00  0.99302636213E+00 -0.52005923870E+00  0.11802266586E+01  0.00000000000E+00 0.  1.
         11    1    3    3    0    0 -0.22097094004E+02 -0.11591468506E+01  0.32520550086E+02  0.39334607701E+02  0.51100000000E-03 0. -1.
        -11    1    3    3    0    0  0.75292651906E+01  0.63530242990E+01  0.44410018726E+01  0.10806167218E+02  0.51100000000E-03 0.  1.
        -12    1    3    3    0    0  0.14937114608E+02 -0.61869038106E+01 -0.36441492720E+02  0.39866998422E+02  0.00000000000E+00 0.  1.
</event>
<event>
 7    1  0.5158441E-015  0.9000812E+02  0.7816164E-02  0.1186338E+00
        -11   -1    0    0    0    0  0.00000000000E+00  0.00000000000E+00  0.45593999997E+02  0.45594000000E+02  0.51100000000E-03 0. -1.
         11   -1    0    0    0    0 -0.00000000000E+00 -0.00000000000E+00 -0.45593999997E+02  0.45594000000E+02  0.51100000000E-03 0.  1.
    9900012    2    1    2    0    0  0.67847637524E+00 -0.31985088328E+00  0.91076200301E+00  0.90008117715E+02  0.90000384068E+02 0.  0.
        -12    1    1    2    0    0 -0.67847637524E+00  0.31985088328E+00 -0.91076200301E+00  0.11798822846E+01  0.00000000000E+00 0.  1.
         11    1    3    3    0    0 -0.24652597466E+01 -0.31196490210E+01 -0.71355490059E+01  0.81685846699E+01  0.51100000000E-03 0. -1.
        -11    1    3    3    0    0  0.20209633716E+02 -0.60981956056E+01 -0.31464903756E+02  0.37890070642E+02  0.51100000000E-03 0.  1.
         12    1    3    3    0    0 -0.17065897595E+02  0.88979937433E+01  0.39511214765E+02  0.43949462404E+02  0.00000000000E+00 0. -1.
</event>
<event>
 7    1  0.5158441E-015  0.9000781E+02  0.7816164E-02  0.1186339E+00
        -11   -1    0    0    0    0  0.00000000000E+00  0.00000000000E+00  0.45593999997E+02  0.45594000000E+02  0.51100000000E-03 0.  1.
         11   -1    0    0    0    0 -0.00000000000E+00 -0.00000000000E+00 -0.45593999997E+02  0.45594000000E+02  0.51100000000E-03 0. -1.
    9900012    2    1    2    0    0 -0.14423036625E+00 -0.34189406915E-01 -0.11708445161E+01  0.90007810102E+02  0.90000072395E+02 0.  0.
        -12    1    1    2    0    0  0.14423036625E+00  0.34189406915E-01  0.11708445161E+01  0.11801898978E+01  0.00000000000E+00 0.  1.
         11    1    3    3    0    0  0.17136800378E+01 -0.10147063190E+02  0.19927643167E+01  0.10481922559E+02  0.51100000000E-03 0. -1.
        -11    1    3    3    0    0 -0.32859651791E+02 -0.17233739292E+02 -0.78365886009E+01  0.37923219892E+02  0.51100000000E-03 0.  1.
         12    1    3    3    0    0  0.31001741387E+02  0.27346613075E+02  0.46729797681E+01  0.41602667651E+02  0.00000000000E+00 0. -1.
</event>
<event>
 7    1  0.5158441E-015  0.9000776E+02  0.7816164E-02  0.1186339E+00
        -11   -1    0    0    0    0  0.00000000000E+00  0.00000000000E+00  0.45593999997E+02  0.45594000000E+02  0.51100000000E-03 0.  1.
         11   -1    0    0    0    0 -0.00000000000E+00 -0.00000000000E+00 -0.45593999997E+02  0.45594000000E+02  0.51100000000E-03 0. -1.
    9900012    2    1    2    0    0 -0.10288765614E+01  0.53014043377E+00  0.23093225314E+00  0.90007760379E+02  0.90000022016E+02 0.  0.
        -12    1    1    2    0    0  0.10288765614E+01 -0.53014043377E+00 -0.23093225314E+00  0.11802396213E+01  0.00000000000E+00 0.  1.
         11    1    3    3    0    0 -0.30485431616E+02 -0.64480037578E+01  0.24400182130E+02  0.39576598913E+02  0.51100000000E-03 0. -1.
        -11    1    3    3    0    0 -0.53436028339E+01 -0.43496637336E+01 -0.75979086303E+01  0.10256796852E+02  0.51100000000E-03 0.  1.
        -12    1    3    3    0    0  0.34800157889E+02  0.11327807925E+02 -0.16571341246E+02  0.40174364614E+02  0.00000000000E+00 0.  1.
</event>
<event>
 7    1  0.5158441E-015  0.9000782E+02  0.7816164E-02  0.1186339E+00
        -11   -1    0    0    0    0  0.00000000000E+00  0.00000000000E+00  0.45593999997E+02  0.45594000000E+02  0.51100000000E-03 0.  1.
         11   -1    0    0    0    0 -0.00000000000E+00 -0.00000000000E+00 -0.45593999997E+02  0.45594000000E+02  0.51100000000E-03 0. -1.
    9900012    2    1    2    0    0  0.31534996501E+00  0.10952992316E+01  0.30610133028E+00  0.90007820339E+02  0.90000082768E+02 0.  0.
        -12    1    1    2    0    0 -0.31534996501E+00 -0.10952992316E+01 -0.30610133028E+00  0.11801796607E+01  0.00000000000E+00 0.  1.
         11    1    3    3    0    0 -0.12343772681E+02  0.74465728120E+01  0.14243316367E+02  0.20265542974E+02  0.51100000000E-03 0. -1.
        -11    1    3    3    0    0  0.19386998575E+02 -0.17356827502E+01  0.24020913120E+02  0.30917189001E+02  0.51100000000E-03 0.  1.
         12    1    3    3    0    0 -0.67278759294E+01 -0.46155908302E+01 -0.37958128157E+02  0.38825088363E+02  0.00000000000E+00 0. -1.
</event>
<event>
 7    1  0.5158441E-015  0.9000780E+02  0.7816164E-02  0.1186339E+00
        -11   -1    0    0    0    0  0.00000000000E+00  0.00000000000E+00  0.45593999997E+02  0.45594000000E+02  0.51100000000E-03 0. -1.
         11   -1    0    0    0    0 -0.00000000000E+00 -0.00000000000E+00 -0.45593999997E+02  0.45594000000E+02  0.51100000000E-03 0.  1.
    9900012    2    1    2    0    0 -0.19883832239E+00 -0.95012017584E+00  0.67127529365E+00  0.90007798514E+02  0.90000060655E+02 0.  0.
        -12    1    1    2    0    0  0.19883832239E+00  0.95012017584E+00 -0.67127529365E+00  0.11802014857E+01  0.00000000000E+00 0.  1.
         11    1    3    3    0    0  0.70415984565E+01 -0.11790381091E+02  0.32169766917E+02  0.34978437628E+02  0.51100000000E-03 0. -1.
        -11    1    3    3    0    0  0.54158794309E+01  0.30342533489E+01  0.95388261259E+01  0.11381021374E+02  0.51100000000E-03 0.  1.
        -12    1    3    3    0    0 -0.12656316210E+02  0.78060075663E+01 -0.41037317750E+02  0.43648339513E+02  0.00000000000E+00 0.  1.
</event>
<event>
 7    1  0.5158441E-015  0.9000818E+02  0.7816164E-02  0.1186338E+00
        -11   -1    0    0    0    0  0.00000000000E+00  0.00000000000E+00  0.45593999997E+02  0.45594000000E+02  0.51100000000E-03 0.  1.
         11   -1    0    0    0    0 -0.00000000000E+00 -0.00000000000E+00 -0.45593999997E+02  0.45594000000E+02  0.51100000000E-03 0. -1.
    9900012    2    1    2    0    0 -0.74815118314E+00 -0.66880662254E+00 -0.62043637358E+00  0.90008180613E+02  0.90000447796E+02 0.  0.
        -12    1    1    2    0    0  0.74815118314E+00  0.66880662254E+00  0.62043637358E+00  0.11798193865E+01  0.00000000000E+00 0.  1.
         11    1    3    3    0    0  0.71569129646E+01 -0.44024122027E+00 -0.16611123080E+02  0.18092667735E+02  0.51100000000E-03 0. -1.
        -11    1    3    3    0    0  0.13324698805E+02 -0.80585758506E+01  0.37556581287E+02  0.40656918737E+02  0.51100000000E-03 0.  1.
         12    1    3    3    0    0 -0.21229762952E+02  0.78300104484E+01 -0.21565894581E+02  0.31258594141E+02  0.00000000000E+00 0. -1.
</event>
<event>
 7    1  0.6519122E-015  0.9000780E+02  0.7816164E-02  0.1186339E+00
        -11   -1    0    0    0    0  0.00000000000E+00  0.00000000000E+00  0.45593999997E+02  0.45594000000E+02  0.51100000000E-03 0.  1.
         11   -1    0    0    0    0 -0.00000000000E+00 -0.00000000000E+00 -0.45593999997E+02  0.45594000000E+02  0.51100000000E-03 0. -1.
    9900012    2    1    2    0    0  0.36937787276E+00  0.71361178610E+00 -0.86439758781E+00  0.90007802989E+02  0.90000065189E+02 0.  0.
        -12    1    1    2    0    0 -0.36937787276E+00 -0.71361178610E+00  0.86439758781E+00  0.11801970106E+01  0.00000000000E+00 0.  1.
         11    1    3    3    0    0  0.10917209922E+02  0.16307660053E+02 -0.34931897589E+02  0.40066977904E+02  0.51100000000E-03 0. -1.
        -11    1    3    3    0    0  0.10864607920E+01  0.87388520052E+01  0.43943279996E+01  0.98416487567E+01  0.51100000000E-03 0.  1.
        -12    1    3    3    0    0 -0.11634292842E+02 -0.24332900272E+02  0.29673172002E+02  0.40099176329E+02  0.00000000000E+00 0.  1.
</event>
<event>
 7    1  0.5158441E-015  0.9000775E+02  0.7816164E-02  0.1186339E+00
        -11   -1    0    0    0    0  0.00000000000E+00  0.00000000000E+00  0.45593999997E+02  0.45594000000E+02  0.51100000000E-03 0.  1.
         11   -1    0    0    0    0 -0.00000000000E+00 -0.00000000000E+00 -0.45593999997E+02  0.45594000000E+02  0.51100000000E-03 0. -1.
    9900012    2    1    2    0    0 -0.38686159804E+00  0.70458951206E+00  0.86422999219E+00  0.90007745046E+02  0.90000006481E+02 0.  0.
        -12    1    1    2    0    0  0.38686159804E+00 -0.70458951206E+00 -0.86422999219E+00  0.11802549538E+01  0.00000000000E+00 0.  1.
         11    1    3    3    0    0  0.18460429902E+02  0.56797583985E+01 -0.34249767538E+02  0.39320398069E+02  0.51100000000E-03 0. -1.
        -11    1    3    3    0    0  0.78410266944E+01 -0.23620954292E+01  0.27085422131E+01  0.86253924908E+01  0.51100000000E-03 0.  1.
        -12    1    3    3    0    0 -0.26688318195E+02 -0.26130734573E+01  0.32405455317E+02  0.42061954487E+02  0.00000000000E+00 0.  1.
</event>
<event>
 7    1  0.5158443E-015  0.9000755E+02  0.7816164E-02  0.1186339E+00
        -11   -1    0    0    0    0  0.00000000000E+00  0.00000000000E+00  0.45593999997E+02  0.45594000000E+02  0.51100000000E-03 0. -1.
         11   -1    0    0    0    0 -0.00000000000E+00 -0.00000000000E+00 -0.45593999997E+02  0.45594000000E+02  0.51100000000E-03 0.  1.
    9900012    2    1    2    0    0  0.59957180737E+00  0.75272431499E+00  0.68366149584E+00  0.90007545305E+02  0.89999804103E+02 0.  0.
        -12    1    1    2    0    0 -0.59957180737E+00 -0.75272431499E+00 -0.68366149584E+00  0.11804546952E+01  0.00000000000E+00 0.  1.
         11    1    3    3    0    0 -0.34395635227E+02 -0.40362617360E+01  0.10780212415E+02  0.36270705969E+02  0.51100000000E-03 0. -1.
        -11    1    3    3    0    0 -0.86880926195E+01  0.68565063736E+00 -0.33920255778E+01  0.93519467462E+01  0.51100000000E-03 0.  1.
        -12    1    3    3    0    0  0.43683299654E+02  0.41033354136E+01 -0.67045253415E+01  0.44384892590E+02  0.00000000000E+00 0.  1.
</event>
<event>
 7    1  0.5158441E-015  0.9000773E+02  0.7816164E-02  0.1186339E+00
        -11   -1    0    0    0    0  0.00000000000E+00  0.00000000000E+00  0.45593999997E+02  0.45594000000E+02  0.51100000000E-03 0. -1.
         11   -1    0    0    0    0 -0.00000000000E+00 -0.00000000000E+00 -0.45593999997E+02  0.45594000000E+02  0.51100000000E-03 0.  1.
    9900012    2    1    2    0    0 -0.45369569629E+00 -0.67887982586E+00  0.85225012816E+00  0.90007725505E+02  0.89999986682E+02 0.  0.
        -12    1    1    2    0    0  0.45369569629E+00  0.67887982586E+00 -0.85225012816E+00  0.11802744951E+01  0.00000000000E+00 0.  1.
         11    1    3    3    0    0 -0.22750613781E+01  0.58000005077E+01  0.64202446085E+01  0.89462534760E+01  0.51100000000E-03 0. -1.
        -11    1    3    3    0    0 -0.21737900747E+02  0.29711645494E+02  0.33507963625E+01  0.36966823550E+02  0.51100000000E-03 0.  1.
         12    1    3    3    0    0  0.23559266429E+02 -0.36190525828E+02 -0.89187908429E+01  0.44094648479E+02  0.00000000000E+00 0. -1.
</event>
<event>
 7    1  0.5158441E-015  0.9000785E+02  0.7816164E-02  0.1186339E+00
        -11   -1    0    0    0    0  0.00000000000E+00  0.00000000000E+00  0.45593999997E+02  0.45594000000E+02  0.51100000000E-03 0. -1.
         11   -1    0    0    0    0 -0.00000000000E+00 -0.00000000000E+00 -0.45593999997E+02  0.45594000000E+02  0.51100000000E-03 0.  1.
    9900012    2    1    2    0    0  0.80723996013E+00  0.57441798802E+00 -0.64122053746E+00  0.90007849096E+02  0.90000111904E+02 0.  0.
        -12    1    1    2    0    0 -0.80723996013E+00 -0.57441798802E+00  0.64122053746E+00  0.11801509038E+01  0.00000000000E+00 0.  1.
         11    1    3    3    0    0 -0.10213349998E+02  0.41894188043E+01 -0.15738612597E+01  0.11150820043E+02  0.51100000000E-03 0. -1.
        -11    1    3    3    0    0 -0.20445124963E+02 -0.77084039692E+01 -0.28272528277E+02  0.35731757330E+02  0.51100000000E-03 0.  1.
         12    1    3    3    0    0  0.31465714921E+02  0.40934031529E+01  0.29205168999E+02  0.43125271723E+02  0.00000000000E+00 0. -1.
</event>
<event>
 7    1  0.5158441E-015  0.9000788E+02  0.7816164E-02  0.1186339E+00
        -11   -1    0    0    0    0  0.00000000000E+00  0.00000000000E+00  0.45593999997E+02  0.45594000000E+02  0.51100000000E-03 0.  1.
         11   -1    0    0    0    0 -0.00000000000E+00 -0.00000000000E+00 -0.45593999997E+02  0.45594000000E+02  0.51100000000E-03 0. -1.
    9900012    2    1    2    0    0  0.28870727906E+00 -0.27620021226E+00 -0.11104282708E+01  0.90007877381E+02  0.90000140563E+02 0.  0.
        -12    1    1    2    0    0 -0.28870727906E+00  0.27620021226E+00  0.11104282708E+01  0.11801226186E+01  0.00000000000E+00 0.  1.
         11    1    3    3    0    0 -0.79518980242E+01  0.10380666349E+02 -0.12404557762E+02  0.18023983177E+02  0.51100000000E-03 0. -1.
        -11    1    3    3    0    0 -0.20387978892E+02 -0.46273302052E+01  0.30506597823E+02  0.36982893060E+02  0.51100000000E-03 0.  1.
         12    1    3    3    0    0  0.28628584195E+02 -0.60295363560E+01 -0.19212468332E+02  0.35001001144E+02  0.00000000000E+00 0. -1.
</event>
<event>
 7    1  0.5158441E-015  0.9000796E+02  0.7816164E-02  0.1186339E+00
        -11   -1    0    0    0    0  0.00000000000E+00  0.00000000000E+00  0.45593999997E+02  0.45594000000E+02  0.51100000000E-03 0.  1.
         11   -1    0    0    0    0 -0.00000000000E+00 -0.00000000000E+00 -0.45593999997E+02  0.45594000000E+02  0.51100000000E-03 0. -1.
    9900012    2    1    2    0    0  0.10449746050E+01  0.48438650903E+00 -0.25669341803E+00  0.90007960286E+02  0.90000224562E+02 0.  0.
        -12    1    1    2    0    0 -0.10449746050E+01 -0.48438650903E+00  0.25669341803E+00  0.11800397138E+01  0.00000000000E+00 0.  1.
         11    1    3    3    0    0 -0.56600387566E+01 -0.62744971377E+01  0.73135851939E+01  0.11175593125E+02  0.51100000000E-03 0. -1.
        -11    1    3    3    0    0  0.20198795711E+02 -0.78340179678E+01  0.29600292812E+02  0.36681610114E+02  0.51100000000E-03 0.  1.
         12    1    3    3    0    0 -0.13493782350E+02  0.14592901615E+02 -0.37170571424E+02  0.42150757047E+02  0.00000000000E+00 0. -1.
</event>
<event>
 7    1  0.5158441E-015  0.9000774E+02  0.7816164E-02  0.1186339E+00
        -11   -1    0    0    0    0  0.00000000000E+00  0.00000000000E+00  0.45593999997E+02  0.45594000000E+02  0.51100000000E-03 0.  1.
         11   -1    0    0    0    0 -0.00000000000E+00 -0.00000000000E+00 -0.45593999997E+02  0.45594000000E+02  0.51100000000E-03 0. -1.
    9900012    2    1    2    0    0  0.27416471520E+00 -0.43801093183E+00 -0.10611270136E+01  0.90007741382E+02  0.90000002768E+02 0.  0.
        -12    1    1    2    0    0 -0.27416471520E+00  0.43801093183E+00  0.10611270136E+01  0.11802586185E+01  0.00000000000E+00 0.  1.
         11    1    3    3    0    0 -0.45340386250E+01 -0.35456816102E+01 -0.69671845396E+01  0.90372022775E+01  0.51100000000E-03 0. -1.
        -11    1    3    3    0    0 -0.21778229820E+02  0.17074074849E+02  0.31201361220E+02  0.41705398551E+02  0.51100000000E-03 0.  1.
         12    1    3    3    0    0  0.26586433161E+02 -0.13966404171E+02 -0.25295303694E+02  0.39265140553E+02  0.00000000000E+00 0. -1.
</event>
<event>
 7    1  0.5158441E-015  0.9000771E+02  0.7816164E-02  0.1186339E+00
        -11   -1    0    0    0    0  0.00000000000E+00  0.00000000000E+00  0.45593999997E+02  0.45594000000E+02  0.51100000000E-03 0.  1.
         11   -1    0    0    0    0 -0.00000000000E+00 -0.00000000000E+00 -0.45593999997E+02  0.45594000000E+02  0.51100000000E-03 0. -1.
    9900012    2    1    2    0    0  0.57692812465E+00 -0.62806707083E+00  0.81594846716E+00  0.90007709270E+02  0.89999970232E+02 0.  0.
        -12    1    1    2    0    0 -0.57692812465E+00  0.62806707083E+00 -0.81594846716E+00  0.11802907301E+01  0.00000000000E+00 0.  1.
         11    1    3    3    0    0  0.14216929848E+01 -0.85851961517E+01 -0.53862530492E+01  0.10234184192E+02  0.51100000000E-03 0. -1.
        -11    1    3    3    0    0  0.27848238164E+02 -0.22054114855E+02  0.12745144365E+02  0.37740522731E+02  0.51100000000E-03 0.  1.
         12    1    3    3    0    0 -0.28693003024E+02  0.30011243936E+02 -0.65429428486E+01  0.42033002346E+02  0.00000000000E+00 0. -1.
</event>
<event>
 7    1  0.5158441E-015  0.9000777E+02  0.7816164E-02  0.1186339E+00
        -11   -1    0    0    0    0  0.00000000000E+00  0.00000000000E+00  0.45593999997E+02  0.45594000000E+02  0.51100000000E-03 0.  1.
         11   -1    0    0    0    0 -0.00000000000E+00 -0.00000000000E+00 -0.45593999997E+02  0.45594000000E+02  0.51100000000E-03 0. -1.
    9900012    2    1    2    0    0  0.95385277727E+00 -0.34038684840E+00 -0.60600409697E+00  0.90007771508E+02  0.90000033292E+02 0.  0.
        -12    1    1    2    0    0 -0.95385277727E+00  0.34038684840E+00  0.60600409697E+00  0.11802284918E+01  0.00000000000E+00 0.  1.
         11    1    3    3    0    0 -0.55785806348E+01 -0.58857085032E+01 -0.21556431667E+00  0.81122496707E+01  0.51100000000E-03 0. -1.
        -11    1    3    3    0    0  0.38985016436E+01 -0.13789731907E+02  0.37022669013E+02  0.39699282641E+02  0.51100000000E-03 0.  1.
         12    1    3    3    0    0  0.26339317685E+01  0.19335053561E+02 -0.37413108793E+02  0.42196239197E+02  0.00000000000E+00 0. -1.
</event>
<event>
 7    1  0.5158441E-015  0.9000787E+02  0.7816164E-02  0.1186339E+00
        -11   -1    0    0    0    0  0.00000000000E+00  0.00000000000E+00  0.45593999997E+02  0.45594000000E+02  0.51100000000E-03 0. -1.
         11   -1    0    0    0    0 -0.00000000000E+00 -0.00000000000E+00 -0.45593999997E+02  0.45594000000E+02  0.51100000000E-03 0.  1.
    9900012    2    1    2    0    0  0.48632251964E+00  0.49681593240E+00  0.95360641418E+00  0.90007872525E+02  0.90000135642E+02 0.  0.
        -12    1    1    2    0    0 -0.48632251964E+00 -0.49681593240E+00 -0.95360641418E+00  0.11801274749E+01  0.00000000000E+00 0.  1.
         11    1    3    3    0    0  0.95181283977E+01 -0.32414805481E+01 -0.61186271125E+00  0.10073546574E+02  0.51100000000E-03 0. -1.
        -11    1    3    3    0    0  0.21016911026E+02  0.32146958906E+02 -0.17689483967E+01  0.38448233961E+02  0.51100000000E-03 0.  1.
         12    1    3    3    0    0 -0.30048716905E+02 -0.28408662426E+02  0.33344175221E+01  0.41486091990E+02  0.00000000000E+00 0. -1.
</event>
<event>
 7    1  0.5158441E-015  0.9000771E+02  0.7816164E-02  0.1186339E+00
        -11   -1    0    0    0    0  0.00000000000E+00  0.00000000000E+00  0.45593999997E+02  0.45594000000E+02  0.51100000000E-03 0.  1.
         11   -1    0    0    0    0 -0.00000000000E+00 -0.00000000000E+00 -0.45593999997E+02  0.45594000000E+02  0.51100000000E-03 0. -1.
    9900012    2    1    2    0    0  0.63766156748E-01 -0.49568702752E+00 -0.10692528954E+01  0.90007714651E+02  0.89999975684E+02 0.  0.
        -12    1    1    2    0    0 -0.63766156748E-01  0.49568702752E+00  0.10692528954E+01  0.11802853495E+01  0.00000000000E+00 0.  1.
         11    1    3    3    0    0  0.26405861446E+01  0.29293887903E+02 -0.33421561677E+02  0.44520841736E+02  0.51100000000E-03 0. -1.
        -11    1    3    3    0    0  0.11035690276E+01  0.55334896634E+00  0.23646215740E+01  0.26674885430E+01  0.51100000000E-03 0.  1.
        -12    1    3    3    0    0 -0.36803890155E+01 -0.30342923897E+02  0.29987687208E+02  0.42819384372E+02  0.00000000000E+00 0.  1.
</event>
<event>
 7    1  0.5158441E-015  0.9000776E+02  0.7816164E-02  0.1186339E+00
        -11   -1    0    0    0    0  0.00000000000E+00  0.00000000000E+00  0.45593999997E+02  0.45594000000E+02  0.51100000000E-03 0. -1.
         11   -1    0    0    0    0 -0.00000000000E+00 -0.00000000000E+00 -0.45593999997E+02  0.45594000000E+02  0.51100000000E-03 0.  1.
    9900012    2    1    2    0    0 -0.99512730722E+00 -0.51617423720E-01  0.63248217154E+00  0.90007755782E+02  0.90000017359E+02 0.  0.
        -12    1    1    2    0    0  0.99512730722E+00  0.51617423720E-01 -0.63248217154E+00  0.11802442177E+01  0.00000000000E+00 0.  1.
         11    1    3    3    0    0 -0.92167041565E+01 -0.25739962642E+01 -0.64785802299E+01  0.11556171266E+02  0.51100000000E-03 0. -1.
        -11    1    3    3    0    0  0.13070649537E+02  0.12400773028E+02 -0.32598064107E+02  0.37245870037E+02  0.51100000000E-03 0.  1.
         12    1    3    3    0    0 -0.48490726876E+01 -0.98783941879E+01  0.39709126509E+02  0.41205714479E+02  0.00000000000E+00 0. -1.
</event>
<event>
 7    1  0.5158441E-015  0.9000768E+02  0.7816164E-02  0.1186339E+00
        -11   -1    0    0    0    0  0.00000000000E+00  0.00000000000E+00  0.45593999997E+02  0.45594000000E+02  0.51100000000E-03 0.  1.
         11   -1    0    0    0    0 -0.00000000000E+00 -0.00000000000E+00 -0.45593999997E+02  0.45594000000E+02  0.51100000000E-03 0. -1.
    9900012    2    1    2    0    0 -0.52726549556E+00  0.20957433715E+00 -0.10350039805E+01  0.90007676508E+02  0.89999937038E+02 0.  0.
        -12    1    1    2    0    0  0.52726549556E+00 -0.20957433715E+00  0.10350039805E+01  0.11803234918E+01  0.00000000000E+00 0.  1.
         11    1    3    3    0    0 -0.55325419748E+00  0.98359173604E+01 -0.16513982053E+01  0.99889177002E+01  0.51100000000E-03 0. -1.
        -11    1    3    3    0    0  0.36188590502E+02  0.11700926185E+02  0.29527373847E+00  0.38034365289E+02  0.51100000000E-03 0.  1.
         12    1    3    3    0    0 -0.36162601800E+02 -0.21327269208E+02  0.32112048632E+00  0.41984393519E+02  0.00000000000E+00 0. -1.
</event>
<event>
 7    1  0.5158441E-015  0.9000768E+02  0.7816164E-02  0.1186339E+00
        -11   -1    0    0    0    0  0.00000000000E+00  0.00000000000E+00  0.45593999997E+02  0.45594000000E+02  0.51100000000E-03 0. -1.
         11   -1    0    0    0    0 -0.00000000000E+00 -0.00000000000E+00 -0.45593999997E+02  0.45594000000E+02  0.51100000000E-03 0.  1.
    9900012    2    1    2    0    0 -0.27055470039E+00  0.97783032193E+00  0.60315195374E+00  0.90007684676E+02  0.89999945314E+02 0.  0.
        -12    1    1    2    0    0  0.27055470039E+00 -0.97783032193E+00 -0.60315195374E+00  0.11803153238E+01  0.00000000000E+00 0.  1.
         11    1    3    3    0    0  0.13666517770E+00 -0.52129137173E+01 -0.13940727708E+02  0.14884120266E+02  0.51100000000E-03 0. -1.
        -11    1    3    3    0    0 -0.25189593379E+02 -0.23623526991E+02  0.29588390692E+01  0.34660371766E+02  0.51100000000E-03 0.  1.
         12    1    3    3    0    0  0.24782373501E+02  0.29814271030E+02  0.11585040593E+02  0.40463192644E+02  0.00000000000E+00 0. -1.
</event>
<event>
 7    1  0.5158441E-015  0.9000766E+02  0.7816164E-02  0.1186339E+00
        -11   -1    0    0    0    0  0.00000000000E+00  0.00000000000E+00  0.45593999997E+02  0.45594000000E+02  0.51100000000E-03 0. -1.
         11   -1    0    0    0    0 -0.00000000000E+00 -0.00000000000E+00 -0.45593999997E+02  0.45594000000E+02  0.51100000000E-03 0.  1.
    9900012    2    1    2    0    0  0.45291419241E+00  0.93426729800E+00  0.56144077376E+00  0.90007660052E+02  0.89999920365E+02 0.  0.
        -12    1    1    2    0    0 -0.45291419241E+00 -0.93426729800E+00 -0.56144077376E+00  0.11803399477E+01  0.00000000000E+00 0.  1.
         11    1    3    3    0    0  0.28109776158E+02  0.18603635981E+02  0.18316417588E+02  0.38363341107E+02  0.51100000000E-03 0. -1.
        -11    1    3    3    0    0  0.77540298899E+01  0.15507478901E+01 -0.85829374848E+00  0.79540220626E+01  0.51100000000E-03 0.  1.
        -12    1    3    3    0    0 -0.35410891855E+02 -0.19220116573E+02 -0.16896683066E+02  0.43690296883E+02  0.00000000000E+00 0.  1.
</event>
<event>
 7    1  0.5158441E-015  0.9000772E+02  0.7816164E-02  0.1186339E+00
        -11   -1    0    0    0    0  0.00000000000E+00  0.00000000000E+00  0.45593999997E+02  0.45594000000E+02  0.51100000000E-03 0.  1.
         11   -1    0    0    0    0 -0.00000000000E+00 -0.00000000000E+00 -0.45593999997E+02  0.45594000000E+02  0.51100000000E-03 0. -1.
    9900012    2    1    2    0    0 -0.65809486284E+00  0.95337214500E+00  0.22594774664E+00  0.90007720508E+02  0.89999981619E+02 0.  0.
        -12    1    1    2    0    0  0.65809486284E+00 -0.95337214500E+00 -0.22594774664E+00  0.11802794921E+01  0.00000000000E+00 0.  1.
         11    1    3    3    0    0  0.25270785554E+01  0.10971239728E+02  0.11819072455E+02  0.16323133926E+02  0.51100000000E-03 0. -1.
        -11    1    3    3    0    0  0.12880306520E+02  0.20957299299E+02  0.15875001539E+02  0.29276720515E+02  0.51100000000E-03 0.  1.
         12    1    3    3    0    0 -0.16065479938E+02 -0.30975166882E+02 -0.27468126248E+02  0.44407866067E+02  0.00000000000E+00 0. -1.
</event>
<event>
 7    1  0.5158441E-015  0.9000769E+02  0.7816164E-02  0.1186339E+00
        -11   -1    0    0    0    0  0.00000000000E+00  0.00000000000E+00  0.45593999997E+02  0.45594000000E+02  0.51100000000E-03 0. -1.
         11   -1    0    0    0    0 -0.00000000000E+00 -0.00000000000E+00 -0.45593999997E+02  0.45594000000E+02  0.51100000000E-03 0.  1.
    9900012    2    1    2    0    0 -0.38311492896E+00  0.10692605907E+01  0.32098770465E+00  0.90007691411E+02  0.89999952137E+02 0.  0.
        -12    1    1    2    0    0  0.38311492896E+00 -0.10692605907E+01 -0.32098770465E+00  0.11803085894E+01  0.00000000000E+00 0.  1.
         11    1    3    3    0    0 -0.32797120334E+02 -0.22540094276E+02 -0.49979401929E+01  0.40108432513E+02  0.51100000000E-03 0. -1.
        -11    1    3    3    0    0 -0.16513863712E+01  0.18842299769E+01  0.89870143640E+01  0.93297281307E+01  0.51100000000E-03 0.  1.
        -12    1    3    3    0    0  0.34065391776E+02  0.21725124890E+02 -0.36680864664E+01  0.40569530767E+02  0.00000000000E+00 0.  1.
</event>
<event>
 7    1  0.5158441E-015  0.9000770E+02  0.7816164E-02  0.1186339E+00
        -11   -1    0    0    0    0  0.00000000000E+00  0.00000000000E+00  0.45593999997E+02  0.45594000000E+02  0.51100000000E-03 0.  1.
         11   -1    0    0    0    0 -0.00000000000E+00 -0.00000000000E+00 -0.45593999997E+02  0.45594000000E+02  0.51100000000E-03 0. -1.
    9900012    2    1    2    0    0 -0.97819845245E+00 -0.44140416681E+00 -0.49133141275E+00  0.90007696476E+02  0.89999957270E+02 0.  0.
        -12    1    1    2    0    0  0.97819845245E+00  0.44140416681E+00  0.49133141275E+00  0.11803035237E+01  0.00000000000E+00 0.  1.
         11    1    3    3    0    0  0.36640421055E+02  0.48452288691E+01  0.20919036902E+01  0.37018546152E+02  0.51100000000E-03 0. -1.
        -11    1    3    3    0    0 -0.42677564586E-01 -0.87013852203E+01  0.99622610083E+01  0.13227341788E+02  0.51100000000E-03 0.  1.
        -12    1    3    3    0    0 -0.37575941943E+02  0.34147521844E+01 -0.12545496111E+02  0.39761808536E+02  0.00000000000E+00 0.  1.
</event>
<event>
 7    1  0.5158441E-015  0.9000775E+02  0.7816164E-02  0.1186339E+00
        -11   -1    0    0    0    0  0.00000000000E+00  0.00000000000E+00  0.45593999997E+02  0.45594000000E+02  0.51100000000E-03 0.  1.
         11   -1    0    0    0    0 -0.00000000000E+00 -0.00000000000E+00 -0.45593999997E+02  0.45594000000E+02  0.51100000000E-03 0. -1.
    9900012    2    1    2    0    0  0.16223146272E+00  0.11235712290E+01 -0.32289025737E+00  0.90007750250E+02  0.90000011753E+02 0.  0.
        -12    1    1    2    0    0 -0.16223146272E+00 -0.11235712290E+01  0.32289025737E+00  0.11802497500E+01  0.00000000000E+00 0.  1.
         11    1    3    3    0    0  0.85392490176E+00  0.71783449566E+01 -0.67231757043E+01  0.98721282339E+01  0.51100000000E-03 0. -1.
        -11    1    3    3    0    0  0.19660814337E+02  0.31226430345E+02  0.74629343886E+01  0.37647482817E+02  0.51100000000E-03 0.  1.
         12    1    3    3    0    0 -0.20352507776E+02 -0.37281204073E+02 -0.10626489416E+01  0.42488139200E+02  0.00000000000E+00 0. -1.
</event>
<event>
 7    1  0.5158441E-015  0.9000774E+02  0.7816164E-02  0.1186339E+00
        -11   -1    0    0    0    0  0.00000000000E+00  0.00000000000E+00  0.45593999997E+02  0.45594000000E+02  0.51100000000E-03 0. -1.
         11   -1    0    0    0    0 -0.00000000000E+00 -0.00000000000E+00 -0.45593999997E+02  0.45594000000E+02  0.51100000000E-03 0.  1.
    9900012    2    1    2    0    0  0.86157384821E+00 -0.38280056135E+00 -0.71005296635E+00  0.90007736902E+02  0.89999998229E+02 0.  0.
        -12    1    1    2    0    0 -0.86157384821E+00  0.38280056135E+00  0.71005296635E+00  0.11802630981E+01  0.00000000000E+00 0.  1.
         11    1    3    3    0    0 -0.18041204089E+02  0.34450826795E+02  0.20931500271E+02  0.44164150797E+02  0.51100000000E-03 0. -1.
        -11    1    3    3    0    0  0.20555709742E+01 -0.72623362479E+01 -0.72735891379E+01  0.10481984498E+02  0.51100000000E-03 0.  1.
        -12    1    3    3    0    0  0.16847206963E+02 -0.27571291108E+02 -0.14367964100E+02  0.35361601606E+02  0.00000000000E+00 0.  1.
</event>
<event>
 7    1  0.5158441E-015  0.9000762E+02  0.7816164E-02  0.1186339E+00
        -11   -1    0    0    0    0  0.00000000000E+00  0.00000000000E+00  0.45593999997E+02  0.45594000000E+02  0.51100000000E-03 0. -1.
         11   -1    0    0    0    0 -0.00000000000E+00 -0.00000000000E+00 -0.45593999997E+02  0.45594000000E+02  0.51100000000E-03 0.  1.
    9900012    2    1    2    0    0  0.11797598412E+01  0.35661188018E-01 -0.14189616032E-01  0.90007616017E+02  0.89999875748E+02 0.  0.
        -12    1    1    2    0    0 -0.11797598412E+01 -0.35661188018E-01  0.14189616032E-01  0.11803839835E+01  0.00000000000E+00 0.  1.
         11    1    3    3    0    0  0.54612596836E+00  0.81976746604E+01  0.56879446462E+01  0.99926391894E+01  0.51100000000E-03 0. -1.
        -11    1    3    3    0    0  0.24925478144E+02 -0.30712527424E+02 -0.19515196200E+02  0.44106481207E+02  0.51100000000E-03 0.  1.
         12    1    3    3    0    0 -0.24291844271E+02  0.22550513952E+02  0.13813061938E+02  0.35908495620E+02  0.00000000000E+00 0. -1.
</event>
<event>
 7    1  0.5158441E-015  0.9000774E+02  0.7816164E-02  0.1186339E+00
        -11   -1    0    0    0    0  0.00000000000E+00  0.00000000000E+00  0.45593999997E+02  0.45594000000E+02  0.51100000000E-03 0.  1.
         11   -1    0    0    0    0 -0.00000000000E+00 -0.00000000000E+00 -0.45593999997E+02  0.45594000000E+02  0.51100000000E-03 0. -1.
    9900012    2    1    2    0    0  0.94169506746E+00  0.72626244310E-01 -0.70778073114E+00  0.90007738277E+02  0.89999999622E+02 0.  0.
        -12    1    1    2    0    0 -0.94169506746E+00 -0.72626244310E-01  0.70778073114E+00  0.11802617230E+01  0.00000000000E+00 0.  1.
         11    1    3    3    0    0 -0.12104543617E+01 -0.10295931720E+02 -0.51734188413E+01  0.11586011933E+02  0.51100000000E-03 0. -1.
        -11    1    3    3    0    0 -0.31668573361E+02 -0.15772499095E+02  0.45928221807E+01  0.35675822096E+02  0.51100000000E-03 0.  1.
         12    1    3    3    0    0  0.33820722790E+02  0.26141057059E+02 -0.12718407055E+00  0.42745904248E+02  0.00000000000E+00 0. -1.
</event>
<event>
 7    1  0.5158441E-015  0.9000752E+02  0.7816164E-02  0.1186339E+00
        -11   -1    0    0    0    0  0.00000000000E+00  0.00000000000E+00  0.45593999997E+02  0.45594000000E+02  0.51100000000E-03 0.  1.
         11   -1    0    0    0    0 -0.00000000000E+00 -0.00000000000E+00 -0.45593999997E+02  0.45594000000E+02  0.51100000000E-03 0. -1.
    9900012    2    1    2    0    0 -0.64126873146E+00 -0.79296566948E+00 -0.59456634036E+00  0.90007521592E+02  0.89999780077E+02 0.  0.
        -12    1    1    2    0    0  0.64126873146E+00  0.79296566948E+00  0.59456634036E+00  0.11804784081E+01  0.00000000000E+00 0.  1.
         11    1    3    3    0    0 -0.27327080865E+02  0.24382277931E+02 -0.49177247912E+01  0.36951980232E+02  0.51100000000E-03 0. -1.
        -11    1    3    3    0    0 -0.97994276737E+01 -0.33252945313E+01  0.10815794768E+01  0.10404623053E+02  0.51100000000E-03 0.  1.
        -12    1    3    3    0    0  0.36485239808E+02 -0.21849949069E+02  0.32415789741E+01  0.42650918306E+02  0.00000000000E+00 0.  1.
</event>
<event>
 7    1  0.5158441E-015  0.9000783E+02  0.7816164E-02  0.1186339E+00
        -11   -1    0    0    0    0  0.00000000000E+00  0.00000000000E+00  0.45593999997E+02  0.45594000000E+02  0.51100000000E-03 0.  1.
         11   -1    0    0    0    0 -0.00000000000E+00 -0.00000000000E+00 -0.45593999997E+02  0.45594000000E+02  0.51100000000E-03 0. -1.
    9900012    2    1    2    0    0  0.55678606341E+00  0.11592757797E+00 -0.10340904332E+01  0.90007833508E+02  0.90000096111E+02 0.  0.
        -12    1    1    2    0    0 -0.55678606341E+00 -0.11592757797E+00  0.10340904332E+01  0.11801664916E+01  0.00000000000E+00 0.  1.
         11    1    3    3    0    0 -0.90509796931E+01 -0.52867220258E+01  0.19812855208E+01  0.10667481228E+02  0.51100000000E-03 0. -1.
        -11    1    3    3    0    0 -0.39048118192E+00  0.39203061937E+02  0.12039165322E+02  0.41011876850E+02  0.51100000000E-03 0.  1.
         12    1    3    3    0    0  0.99982469384E+01 -0.33800412334E+02 -0.15054541276E+02  0.38328475430E+02  0.00000000000E+00 0. -1.
</event>
<event>
 7    1  0.5209225E-015  0.9000782E+02  0.7816164E-02  0.1186339E+00
        -11   -1    0    0    0    0  0.00000000000E+00  0.00000000000E+00  0.45593999997E+02  0.45594000000E+02  0.51100000000E-03 0. -1.
         11   -1    0    0    0    0 -0.00000000000E+00 -0.00000000000E+00 -0.45593999997E+02  0.45594000000E+02  0.51100000000E-03 0.  1.
    9900012    2    1    2    0    0 -0.97998403268E-01  0.36730810777E+00  0.11172784728E+01  0.90007817760E+02  0.90000080155E+02 0.  0.
        -12    1    1    2    0    0  0.97998403268E-01 -0.36730810777E+00 -0.11172784728E+01  0.11801822396E+01  0.00000000000E+00 0.  1.
         11    1    3    3    0    0 -0.23206886616E+02  0.20184231474E+02  0.24983301772E+02  0.39624842640E+02  0.51100000000E-03 0. -1.
        -11    1    3    3    0    0  0.51560217105E+01 -0.96911435345E-01  0.75696656719E+01  0.91593553458E+01  0.51100000000E-03 0.  1.
        -12    1    3    3    0    0  0.17952866502E+02 -0.19720011931E+02 -0.31435688971E+02  0.41223619774E+02  0.00000000000E+00 0.  1.
</event>
<event>
 7    1  0.5334692E-015  0.9000786E+02  0.7816164E-02  0.1186339E+00
        -11   -1    0    0    0    0  0.00000000000E+00  0.00000000000E+00  0.45593999997E+02  0.45594000000E+02  0.51100000000E-03 0.  1.
         11   -1    0    0    0    0 -0.00000000000E+00 -0.00000000000E+00 -0.45593999997E+02  0.45594000000E+02  0.51100000000E-03 0. -1.
    9900012    2    1    2    0    0 -0.10691425208E+01 -0.85361251267E-01 -0.49231056437E+00  0.90007863582E+02  0.90000126581E+02 0.  0.
        -12    1    1    2    0    0  0.10691425208E+01  0.85361251267E-01  0.49231056437E+00  0.11801364179E+01  0.00000000000E+00 0.  1.
         11    1    3    3    0    0 -0.33539172967E+02  0.20684143450E+02  0.15422835697E+02  0.42315171922E+02  0.51100000000E-03 0. -1.
        -11    1    3    3    0    0  0.88409247410E+01  0.25037921971E+01  0.28062934670E+01  0.96076120304E+01  0.51100000000E-03 0.  1.
        -12    1    3    3    0    0  0.23629105705E+02 -0.23273296899E+02 -0.18721439728E+02  0.38085079630E+02  0.00000000000E+00 0.  1.
</event>
<event>
 7    1  0.5158441E-015  0.9000772E+02  0.7816164E-02  0.1186339E+00
        -11   -1    0    0    0    0  0.00000000000E+00  0.00000000000E+00  0.45593999997E+02  0.45594000000E+02  0.51100000000E-03 0. -1.
         11   -1    0    0    0    0 -0.00000000000E+00 -0.00000000000E+00 -0.45593999997E+02  0.45594000000E+02  0.51100000000E-03 0.  1.
    9900012    2    1    2    0    0  0.10831759858E+01  0.34678112646E+00  0.31549466371E+00  0.90007718572E+02  0.89999979657E+02 0.  0.
        -12    1    1    2    0    0 -0.10831759858E+01 -0.34678112646E+00 -0.31549466371E+00  0.11802814277E+01  0.00000000000E+00 0.  1.
         11    1    3    3    0    0  0.38848162580E+01  0.66467517616E+01 -0.29359104444E+00  0.77043690398E+01  0.51100000000E-03 0. -1.
        -11    1    3    3    0    0 -0.64666624797E+01  0.37015458897E+02  0.74232587695E+01  0.38302306615E+02  0.51100000000E-03 0.  1.
         12    1    3    3    0    0  0.36650222075E+01 -0.43315429532E+02 -0.68141730613E+01  0.44001042918E+02  0.00000000000E+00 0. -1.
</event>
<event>
 7    1  0.5158441E-015  0.9000768E+02  0.7816164E-02  0.1186339E+00
        -11   -1    0    0    0    0  0.00000000000E+00  0.00000000000E+00  0.45593999997E+02  0.45594000000E+02  0.51100000000E-03 0.  1.
         11   -1    0    0    0    0 -0.00000000000E+00 -0.00000000000E+00 -0.45593999997E+02  0.45594000000E+02  0.51100000000E-03 0. -1.
    9900012    2    1    2    0    0 -0.87267822445E+00  0.79196594408E+00 -0.66144051532E-01  0.90007681240E+02  0.89999941832E+02 0.  0.
        -12    1    1    2    0    0  0.87267822445E+00 -0.79196594408E+00  0.66144051532E-01  0.11803187602E+01  0.00000000000E+00 0.  1.
         11    1    3    3    0    0  0.83544981644E+00 -0.89978073965E+01 -0.68367699119E+01  0.11331369618E+02  0.51100000000E-03 0. -1.
        -11    1    3    3    0    0  0.33898285447E+02  0.21716656584E+02  0.82569915549E+01  0.41096044082E+02  0.51100000000E-03 0.  1.
         12    1    3    3    0    0 -0.35606413488E+02 -0.11926883243E+02 -0.14863656946E+01  0.37580267539E+02  0.00000000000E+00 0. -1.
</event>
<event>
 7    1  0.5158441E-015  0.9000776E+02  0.7816164E-02  0.1186339E+00
        -11   -1    0    0    0    0  0.00000000000E+00  0.00000000000E+00  0.45593999997E+02  0.45594000000E+02  0.51100000000E-03 0.  1.
         11   -1    0    0    0    0 -0.00000000000E+00 -0.00000000000E+00 -0.45593999997E+02  0.45594000000E+02  0.51100000000E-03 0. -1.
    9900012    2    1    2    0    0  0.99869301818E+00 -0.38176933247E+00 -0.49982527121E+00  0.90007762367E+02  0.90000024031E+02 0.  0.
        -12    1    1    2    0    0 -0.99869301818E+00  0.38176933247E+00  0.49982527121E+00  0.11802376326E+01  0.00000000000E+00 0.  1.
         11    1    3    3    0    0  0.21404558280E+02 -0.23815221995E+02 -0.13789263149E+01  0.32050294100E+02  0.51100000000E-03 0. -1.
        -11    1    3    3    0    0 -0.28997909928E+01 -0.15051778506E+02  0.30213980495E+01  0.15623497382E+02  0.51100000000E-03 0.  1.
        -12    1    3    3    0    0 -0.17506074269E+02  0.38485231169E+02 -0.21422970058E+01  0.42333970885E+02  0.00000000000E+00 0.  1.
</event>
<event>
 7    1  0.5158441E-015  0.9000773E+02  0.7816164E-02  0.1186339E+00
        -11   -1    0    0    0    0  0.00000000000E+00  0.00000000000E+00  0.45593999997E+02  0.45594000000E+02  0.51100000000E-03 0.  1.
         11   -1    0    0    0    0 -0.00000000000E+00 -0.00000000000E+00 -0.45593999997E+02  0.45594000000E+02  0.51100000000E-03 0. -1.
    9900012    2    1    2    0    0 -0.63285570182E+00  0.51135384558E+00 -0.85501813378E+00  0.90007726683E+02  0.89999987875E+02 0.  0.
        -12    1    1    2    0    0  0.63285570182E+00 -0.51135384558E+00  0.85501813378E+00  0.11802733174E+01  0.00000000000E+00 0.  1.
         11    1    3    3    0    0 -0.17278016011E+01 -0.65381327176E+01 -0.11422806206E+00  0.67635439022E+01  0.51100000000E-03 0. -1.
        -11    1    3    3    0    0  0.38095088858E+02 -0.11424935260E+02  0.89544436566E+01  0.40766984218E+02  0.51100000000E-03 0.  1.
         12    1    3    3    0    0 -0.37000142959E+02  0.18474421823E+02 -0.96952337283E+01  0.42477198562E+02  0.00000000000E+00 0. -1.
</event>
<event>
 7    1  0.5158441E-015  0.9000774E+02  0.7816164E-02  0.1186339E+00
        -11   -1    0    0    0    0  0.00000000000E+00  0.00000000000E+00  0.45593999997E+02  0.45594000000E+02  0.51100000000E-03 0.  1.
         11   -1    0    0    0    0 -0.00000000000E+00 -0.00000000000E+00 -0.45593999997E+02  0.45594000000E+02  0.51100000000E-03 0. -1.
    9900012    2    1    2    0    0 -0.10364799232E+01 -0.56140358021E+00  0.59497339403E-01  0.90007743865E+02  0.90000005284E+02 0.  0.
        -12    1    1    2    0    0  0.10364799232E+01  0.56140358021E+00 -0.59497339403E-01  0.11802561351E+01  0.00000000000E+00 0.  1.
         11    1    3    3    0    0  0.31271774830E+02  0.23999066048E+01 -0.12562935393E+02  0.33786251623E+02  0.51100000000E-03 0. -1.
        -11    1    3    3    0    0 -0.16103395418E+02  0.37519487222E+01 -0.15769118540E+02  0.22848666547E+02  0.51100000000E-03 0.  1.
        -12    1    3    3    0    0 -0.16204859335E+02 -0.67132589072E+01  0.28391551272E+02  0.33372825695E+02  0.00000000000E+00 0.  1.
</event>
<event>
 7    1  0.8836920E-015  0.9000787E+02  0.7816164E-02  0.1186339E+00
        -11   -1    0    0    0    0  0.00000000000E+00  0.00000000000E+00  0.45593999997E+02  0.45594000000E+02  0.51100000000E-03 0.  1.
         11   -1    0    0    0    0 -0.00000000000E+00 -0.00000000000E+00 -0.45593999997E+02  0.45594000000E+02  0.51100000000E-03 0. -1.
    9900012    2    1    2    0    0 -0.90296551721E+00 -0.75144009727E+00  0.11268188530E+00  0.90007870282E+02  0.90000133369E+02 0.  0.
        -12    1    1    2    0    0  0.90296551721E+00  0.75144009727E+00 -0.11268188530E+00  0.11801297184E+01  0.00000000000E+00 0.  1.
         11    1    3    3    0    0 -0.22732106519E+02 -0.26871879810E+02  0.66631508761E+01  0.35822397619E+02  0.51100000000E-03 0. -1.
        -11    1    3    3    0    0 -0.77382968598E+01 -0.62494719291E+01 -0.11499127287E+01  0.10012963459E+02  0.51100000000E-03 0.  1.
        -12    1    3    3    0    0  0.29567437861E+02  0.32369911642E+02 -0.54005562622E+01  0.44172509204E+02  0.00000000000E+00 0.  1.
</event>
<event>
 7    1  0.5158441E-015  0.9000780E+02  0.7816164E-02  0.1186339E+00
        -11   -1    0    0    0    0  0.00000000000E+00  0.00000000000E+00  0.45593999997E+02  0.45594000000E+02  0.51100000000E-03 0. -1.
         11   -1    0    0    0    0 -0.00000000000E+00 -0.00000000000E+00 -0.45593999997E+02  0.45594000000E+02  0.51100000000E-03 0.  1.
    9900012    2    1    2    0    0  0.64633351603E+00  0.54176985114E-01  0.98599361703E+00  0.90007802740E+02  0.90000064936E+02 0.  0.
        -12    1    1    2    0    0 -0.64633351603E+00 -0.54176985114E-01 -0.98599361703E+00  0.11801972600E+01  0.00000000000E+00 0.  1.
         11    1    3    3    0    0 -0.20946686519E+02  0.45884316951E+01  0.32403417030E+02  0.38856129723E+02  0.51100000000E-03 0. -1.
        -11    1    3    3    0    0  0.33323546449E+01  0.64549994586E+01  0.50959140335E+01  0.88735531546E+01  0.51100000000E-03 0.  1.
        -12    1    3    3    0    0  0.18260665390E+02 -0.10989254169E+02 -0.36513337446E+02  0.42278119863E+02  0.00000000000E+00 0.  1.
</event>
<event>
 7    1  0.5158441E-015  0.9000770E+02  0.7816164E-02  0.1186339E+00
        -11   -1    0    0    0    0  0.00000000000E+00  0.00000000000E+00  0.45593999997E+02  0.45594000000E+02  0.51100000000E-03 0. -1.
         11   -1    0    0    0    0 -0.00000000000E+00 -0.00000000000E+00 -0.45593999997E+02  0.45594000000E+02  0.51100000000E-03 0.  1.
    9900012    2    1    2    0    0  0.10217073486E+01 -0.58041357650E+00 -0.11104754787E+00  0.90007704535E+02  0.89999965435E+02 0.  0.
        -12    1    1    2    0    0 -0.10217073486E+01  0.58041357650E+00  0.11104754787E+00  0.11802954646E+01  0.00000000000E+00 0.  1.
         11    1    3    3    0    0 -0.10804832383E+02 -0.36034198457E+02  0.15071178676E+02  0.40525896513E+02  0.51100000000E-03 0. -1.
        -11    1    3    3    0    0 -0.60529653120E+01 -0.50840088644E+00 -0.54430090004E+01  0.81561760506E+01  0.51100000000E-03 0.  1.
        -12    1    3    3    0    0  0.17879505044E+02  0.35962185767E+02 -0.97392172234E+01  0.41325631972E+02  0.00000000000E+00 0.  1.
</event>
<event>
 7    1  0.5158441E-015  0.9000780E+02  0.7816164E-02  0.1186339E+00
        -11   -1    0    0    0    0  0.00000000000E+00  0.00000000000E+00  0.45593999997E+02  0.45594000000E+02  0.51100000000E-03 0. -1.
         11   -1    0    0    0    0 -0.00000000000E+00 -0.00000000000E+00 -0.45593999997E+02  0.45594000000E+02  0.51100000000E-03 0.  1.
    9900012    2    1    2    0    0  0.22706373637E+00 -0.81355417156E+00  0.82427880159E+00  0.90007803460E+02  0.90000065666E+02 0.  0.
        -12    1    1    2    0    0 -0.22706373637E+00  0.81355417156E+00 -0.82427880159E+00  0.11801965401E+01  0.00000000000E+00 0.  1.
         11    1    3    3    0    0  0.74241117978E+01  0.11121063516E+02  0.34176232513E+01  0.13801291195E+02  0.51100000000E-03 0. -1.
        -11    1    3    3    0    0  0.11777807103E+02  0.10728704517E+02 -0.31225305066E+02  0.35054835864E+02  0.51100000000E-03 0.  1.
         12    1    3    3    0    0 -0.18974855165E+02 -0.22663322204E+02  0.28631960616E+02  0.41151676400E+02  0.00000000000E+00 0. -1.
</event>
<event>
 7    1  0.5158441E-015  0.9000773E+02  0.7816164E-02  0.1186339E+00
        -11   -1    0    0    0    0  0.00000000000E+00  0.00000000000E+00  0.45593999997E+02  0.45594000000E+02  0.51100000000E-03 0. -1.
         11   -1    0    0    0    0 -0.00000000000E+00 -0.00000000000E+00 -0.45593999997E+02  0.45594000000E+02  0.51100000000E-03 0.  1.
    9900012    2    1    2    0    0 -0.28082007346E+00  0.24451632804E+00  0.11199996824E+01  0.90007725694E+02  0.89999986873E+02 0.  0.
        -12    1    1    2    0    0  0.28082007346E+00 -0.24451632804E+00 -0.11199996824E+01  0.11802743058E+01  0.00000000000E+00 0.  1.
         11    1    3    3    0    0 -0.72921794308E+01 -0.77985396716E+01 -0.19533896387E+01  0.10853977759E+02  0.51100000000E-03 0. -1.
        -11    1    3    3    0    0 -0.28528740198E+02 -0.42389952343E+01 -0.19943852086E+02  0.35065871359E+02  0.51100000000E-03 0.  1.
         12    1    3    3    0    0  0.35540099556E+02  0.12282051234E+02  0.23017241407E+02  0.44087876575E+02  0.00000000000E+00 0. -1.
</event>
<event>
 7    1  0.5158441E-015  0.9000755E+02  0.7816164E-02  0.1186339E+00
        -11   -1    0    0    0    0  0.00000000000E+00  0.00000000000E+00  0.45593999997E+02  0.45594000000E+02  0.51100000000E-03 0. -1.
         11   -1    0    0    0    0 -0.00000000000E+00 -0.00000000000E+00 -0.45593999997E+02  0.45594000000E+02  0.51100000000E-03 0.  1.
    9900012    2    1    2    0    0  0.82408089513E+00  0.31433587855E+00  0.78456404263E+00  0.90007552160E+02  0.89999811048E+02 0.  0.
        -12    1    1    2    0    0 -0.82408089513E+00 -0.31433587855E+00 -0.78456404263E+00  0.11804478401E+01  0.00000000000E+00 0.  1.
         11    1    3    3    0    0 -0.62724848353E+01 -0.70293462878E+01 -0.87516404876E+01  0.12858731925E+02  0.51100000000E-03 0. -1.
        -11    1    3    3    0    0 -0.11010545933E+02  0.37361997855E+02 -0.48574371716E+01  0.39252333709E+02  0.51100000000E-03 0.  1.
         12    1    3    3    0    0  0.18107111663E+02 -0.30018315689E+02  0.14393641702E+02  0.37896486526E+02  0.00000000000E+00 0. -1.
</event>
<event>
 7    1  0.5158441E-015  0.9000776E+02  0.7816164E-02  0.1186339E+00
        -11   -1    0    0    0    0  0.00000000000E+00  0.00000000000E+00  0.45593999997E+02  0.45594000000E+02  0.51100000000E-03 0. -1.
         11   -1    0    0    0    0 -0.00000000000E+00 -0.00000000000E+00 -0.45593999997E+02  0.45594000000E+02  0.51100000000E-03 0.  1.
    9900012    2    1    2    0    0 -0.92111510773E+00  0.14237970033E+00  0.72404375156E+00  0.90007760882E+02  0.90000022526E+02 0.  0.
        -12    1    1    2    0    0  0.92111510773E+00 -0.14237970033E+00 -0.72404375156E+00  0.11802391177E+01  0.00000000000E+00 0.  1.
         11    1    3    3    0    0  0.11266474010E+02  0.21918384980E+02  0.23921090275E+02  0.34344833628E+02  0.51100000000E-03 0. -1.
        -11    1    3    3    0    0 -0.23910874145E+01 -0.31823411290E+02 -0.44143078946E+01  0.32216966332E+02  0.51100000000E-03 0.  1.
        -12    1    3    3    0    0 -0.97965017030E+01  0.10047406011E+02 -0.18782738629E+02  0.23445960922E+02  0.00000000000E+00 0.  1.
</event>
<event>
 7    1  0.5158441E-015  0.9000776E+02  0.7816164E-02  0.1186339E+00
        -11   -1    0    0    0    0  0.00000000000E+00  0.00000000000E+00  0.45593999997E+02  0.45594000000E+02  0.51100000000E-03 0.  1.
         11   -1    0    0    0    0 -0.00000000000E+00 -0.00000000000E+00 -0.45593999997E+02  0.45594000000E+02  0.51100000000E-03 0. -1.
    9900012    2    1    2    0    0 -0.97107878948E+00  0.66554766537E+00  0.83813468510E-01  0.90007757479E+02  0.90000019078E+02 0.  0.
        -12    1    1    2    0    0  0.97107878948E+00 -0.66554766537E+00 -0.83813468510E-01  0.11802425207E+01  0.00000000000E+00 0.  1.
         11    1    3    3    0    0  0.21004443415E+02 -0.13476163508E+02  0.10613629315E+02  0.27119047799E+02  0.51100000000E-03 0. -1.
        -11    1    3    3    0    0  0.18627183288E+02  0.78463476425E+01 -0.79512605841E+01  0.21720029321E+02  0.51100000000E-03 0.  1.
        -12    1    3    3    0    0 -0.40602705492E+02  0.62953635307E+01 -0.25785552620E+01  0.41168680359E+02  0.00000000000E+00 0.  1.
</event>
<event>
 7    1  0.5158441E-015  0.9000767E+02  0.7816164E-02  0.1186339E+00
        -11   -1    0    0    0    0  0.00000000000E+00  0.00000000000E+00  0.45593999997E+02  0.45594000000E+02  0.51100000000E-03 0.  1.
         11   -1    0    0    0    0 -0.00000000000E+00 -0.00000000000E+00 -0.45593999997E+02  0.45594000000E+02  0.51100000000E-03 0. -1.
    9900012    2    1    2    0    0  0.19360302158E+00 -0.44082540722E+00 -0.10776708754E+01  0.90007667977E+02  0.89999928394E+02 0.  0.
        -12    1    1    2    0    0 -0.19360302158E+00  0.44082540722E+00  0.10776708754E+01  0.11803320233E+01  0.00000000000E+00 0.  1.
         11    1    3    3    0    0  0.37661220719E+02 -0.41237556210E+01 -0.14043102303E+02  0.40405217844E+02  0.51100000000E-03 0. -1.
        -11    1    3    3    0    0  0.16170349946E+01  0.72067233750E+01  0.64828152940E+01  0.98274390547E+01  0.51100000000E-03 0.  1.
        -12    1    3    3    0    0 -0.39084652692E+02 -0.35237931613E+01  0.64826161332E+01  0.39775011078E+02  0.00000000000E+00 0.  1.
</event>
<event>
 7    1  0.5158441E-015  0.9000772E+02  0.7816164E-02  0.1186339E+00
        -11   -1    0    0    0    0  0.00000000000E+00  0.00000000000E+00  0.45593999997E+02  0.45594000000E+02  0.51100000000E-03 0.  1.
         11   -1    0    0    0    0 -0.00000000000E+00 -0.00000000000E+00 -0.45593999997E+02  0.45594000000E+02  0.51100000000E-03 0. -1.
    9900012    2    1    2    0    0 -0.52570030293E+00  0.89875484355E-01 -0.10529143090E+01  0.90007717426E+02  0.89999978496E+02 0.  0.
        -12    1    1    2    0    0  0.52570030293E+00 -0.89875484355E-01  0.10529143090E+01  0.11802825735E+01  0.00000000000E+00 0.  1.
         11    1    3    3    0    0 -0.19530745130E+01 -0.13167833057E+02 -0.61841850937E-01  0.13312030354E+02  0.51100000000E-03 0. -1.
        -11    1    3    3    0    0 -0.36033980697E+02  0.15226404202E+02 -0.19876800912E+01  0.39169401606E+02  0.51100000000E-03 0.  1.
         12    1    3    3    0    0  0.37461354907E+02 -0.19686956604E+01  0.99660763305E+00  0.37526285466E+02  0.00000000000E+00 0. -1.
</event>
<event>
 7    1  0.5158441E-015  0.9000762E+02  0.7816164E-02  0.1186339E+00
        -11   -1    0    0    0    0  0.00000000000E+00  0.00000000000E+00  0.45593999997E+02  0.45594000000E+02  0.51100000000E-03 0. -1.
         11   -1    0    0    0    0 -0.00000000000E+00 -0.00000000000E+00 -0.45593999997E+02  0.45594000000E+02  0.51100000000E-03 0.  1.
    9900012    2    1    2    0    0  0.56797227219E+00 -0.10322702359E+01 -0.71516107110E-01  0.90007623409E+02  0.89999883238E+02 0.  0.
        -12    1    1    2    0    0 -0.56797227219E+00  0.10322702359E+01  0.71516107110E-01  0.11803765905E+01  0.00000000000E+00 0.  1.
         11    1    3    3    0    0  0.12365133447E+01  0.28084042856E+02  0.19007727165E+02  0.33934291221E+02  0.51100000000E-03 0. -1.
        -11    1    3    3    0    0  0.12671532264E+02  0.63660571622E+01 -0.14109585236E+01  0.14250797098E+02  0.51100000000E-03 0.  1.
        -12    1    3    3    0    0 -0.13340073336E+02 -0.35482370254E+02 -0.17668284749E+02  0.41822535091E+02  0.00000000000E+00 0.  1.
</event>
<event>
 7    1  0.5158441E-015  0.9000777E+02  0.7816164E-02  0.1186339E+00
        -11   -1    0    0    0    0  0.00000000000E+00  0.00000000000E+00  0.45593999997E+02  0.45594000000E+02  0.51100000000E-03 0.  1.
         11   -1    0    0    0    0 -0.00000000000E+00 -0.00000000000E+00 -0.45593999997E+02  0.45594000000E+02  0.51100000000E-03 0. -1.
    9900012    2    1    2    0    0  0.60346474483E+00 -0.61356591186E+00 -0.80766007779E+00  0.90007767977E+02  0.90000029714E+02 0.  0.
        -12    1    1    2    0    0 -0.60346474483E+00  0.61356591186E+00  0.80766007779E+00  0.11802320228E+01  0.00000000000E+00 0.  1.
         11    1    3    3    0    0  0.67984506110E+01  0.90228043616E+00  0.96378961600E+00  0.69254553193E+01  0.51100000000E-03 0. -1.
        -11    1    3    3    0    0  0.17676235557E+02 -0.20954196849E+02  0.28754823021E+02  0.39728673730E+02  0.51100000000E-03 0.  1.
         12    1    3    3    0    0 -0.23871221424E+02  0.19438350501E+02 -0.30526272715E+02  0.43353638928E+02  0.00000000000E+00 0. -1.
</event>
<event>
 7    1  0.5158441E-015  0.9000770E+02  0.7816164E-02  0.1186339E+00
        -11   -1    0    0    0    0  0.00000000000E+00  0.00000000000E+00  0.45593999997E+02  0.45594000000E+02  0.51100000000E-03 0.  1.
         11   -1    0    0    0    0 -0.00000000000E+00 -0.00000000000E+00 -0.45593999997E+02  0.45594000000E+02  0.51100000000E-03 0. -1.
    9900012    2    1    2    0    0  0.16308421885E+00  0.23613295406E+00 -0.11448761224E+01  0.90007704880E+02  0.89999965784E+02 0.  0.
        -12    1    1    2    0    0 -0.16308421885E+00 -0.23613295406E+00  0.11448761224E+01  0.11802951199E+01  0.00000000000E+00 0.  1.
         11    1    3    3    0    0  0.11360318921E+02  0.27704581476E+02 -0.24180467015E+02  0.38487604057E+02  0.51100000000E-03 0. -1.
        -11    1    3    3    0    0 -0.44146052547E+01  0.77998535989E+01  0.20828280481E+00  0.89649226270E+01  0.51100000000E-03 0.  1.
        -12    1    3    3    0    0 -0.67826294471E+01 -0.35268302121E+02  0.22827308088E+02  0.42555178196E+02  0.00000000000E+00 0.  1.
</event>
<event>
 7    1  0.5158441E-015  0.9000761E+02  0.7816164E-02  0.1186339E+00
        -11   -1    0    0    0    0  0.00000000000E+00  0.00000000000E+00  0.45593999997E+02  0.45594000000E+02  0.51100000000E-03 0. -1.
         11   -1    0    0    0    0 -0.00000000000E+00 -0.00000000000E+00 -0.45593999997E+02  0.45594000000E+02  0.51100000000E-03 0.  1.
    9900012    2    1    2    0    0 -0.11194993040E+01  0.36968327077E+00  0.58131527031E-01  0.90007608672E+02  0.89999868307E+02 0.  0.
        -12    1    1    2    0    0  0.11194993040E+01 -0.36968327077E+00 -0.58131527031E-01  0.11803913278E+01  0.00000000000E+00 0.  1.
         11    1    3    3    0    0  0.20657822068E+02  0.30752415959E+02  0.14406319659E+01  0.37074683014E+02  0.51100000000E-03 0. -1.
        -11    1    3    3    0    0  0.34174509568E+01 -0.10686376986E+01 -0.12264783201E+02  0.12776770515E+02  0.51100000000E-03 0.  1.
        -12    1    3    3    0    0 -0.25194772329E+02 -0.29314094989E+02  0.10882282762E+02  0.40156155143E+02  0.00000000000E+00 0.  1.
</event>
<event>
 7    1  0.5158441E-015  0.9000766E+02  0.7816164E-02  0.1186339E+00
        -11   -1    0    0    0    0  0.00000000000E+00  0.00000000000E+00  0.45593999997E+02  0.45594000000E+02  0.51100000000E-03 0.  1.
         11   -1    0    0    0    0 -0.00000000000E+00 -0.00000000000E+00 -0.45593999997E+02  0.45594000000E+02  0.51100000000E-03 0. -1.
    9900012    2    1    2    0    0 -0.45209557584E+00  0.10128146491E+01 -0.40375361928E+00  0.90007660681E+02  0.89999921002E+02 0.  0.
        -12    1    1    2    0    0  0.45209557584E+00 -0.10128146491E+01  0.40375361928E+00  0.11803393191E+01  0.00000000000E+00 0.  1.
         11    1    3    3    0    0 -0.40670294803E+01 -0.71476226771E+01  0.43703884691E+01  0.93128692871E+01  0.51100000000E-03 0. -1.
        -11    1    3    3    0    0 -0.29972611850E+02 -0.12526882832E+02  0.15889666686E+02  0.36162988846E+02  0.51100000000E-03 0.  1.
         12    1    3    3    0    0  0.33587545755E+02  0.20687320158E+02 -0.20663808774E+02  0.44531802548E+02  0.00000000000E+00 0. -1.
</event>
<event>
 7    1  0.5158441E-015  0.9000771E+02  0.7816164E-02  0.1186339E+00
        -11   -1    0    0    0    0  0.00000000000E+00  0.00000000000E+00  0.45593999997E+02  0.45594000000E+02  0.51100000000E-03 0. -1.
         11   -1    0    0    0    0 -0.00000000000E+00 -0.00000000000E+00 -0.45593999997E+02  0.45594000000E+02  0.51100000000E-03 0.  1.
    9900012    2    1    2    0    0  0.92272405065E+00 -0.73072927520E+00 -0.87807362086E-01  0.90007705511E+02  0.89999966424E+02 0.  0.
        -12    1    1    2    0    0 -0.92272405065E+00  0.73072927520E+00  0.87807362086E-01  0.11802944887E+01  0.00000000000E+00 0.  1.
         11    1    3    3    0    0 -0.28039896420E+01  0.53973931564E+01  0.68573595969E+01  0.91661110456E+01  0.51100000000E-03 0. -1.
        -11    1    3    3    0    0 -0.33681700223E+02  0.13710230650E+02 -0.11774391495E+02  0.38223862308E+02  0.51100000000E-03 0.  1.
         12    1    3    3    0    0  0.37408413915E+02 -0.19838353082E+02  0.48292245361E+01  0.42617732158E+02  0.00000000000E+00 0. -1.
</event>
<event>
 7    1  0.5158441E-015  0.9000760E+02  0.7816164E-02  0.1186339E+00
        -11   -1    0    0    0    0  0.00000000000E+00  0.00000000000E+00  0.45593999997E+02  0.45594000000E+02  0.51100000000E-03 0.  1.
         11   -1    0    0    0    0 -0.00000000000E+00 -0.00000000000E+00 -0.45593999997E+02  0.45594000000E+02  0.51100000000E-03 0. -1.
    9900012    2    1    2    0    0 -0.96932690462E-03 -0.56340045972E-01 -0.11790537551E+01  0.90007600535E+02  0.89999860062E+02 0.  0.
        -12    1    1    2    0    0  0.96932690462E-03  0.56340045972E-01  0.11790537551E+01  0.11803994653E+01  0.00000000000E+00 0.  1.
         11    1    3    3    0    0  0.50178039026E+01  0.38937642701E+02 -0.51982649334E+01  0.39602276875E+02  0.51100000000E-03 0. -1.
        -11    1    3    3    0    0 -0.84491790893E+01  0.82778762286E+00 -0.43952998654E+01  0.95599435563E+01  0.51100000000E-03 0.  1.
        -12    1    3    3    0    0  0.34304058599E+01 -0.39821770369E+02  0.84145110437E+01  0.40845380104E+02  0.00000000000E+00 0.  1.
</event>
<event>
 7    1  0.5158441E-015  0.9000775E+02  0.7816164E-02  0.1186339E+00
        -11   -1    0    0    0    0  0.00000000000E+00  0.00000000000E+00  0.45593999997E+02  0.45594000000E+02  0.51100000000E-03 0.  1.
         11   -1    0    0    0    0 -0.00000000000E+00 -0.00000000000E+00 -0.45593999997E+02  0.45594000000E+02  0.51100000000E-03 0. -1.
    9900012    2    1    2    0    0 -0.94596232062E+00 -0.37239524628E+00 -0.59955454326E+00  0.90007750627E+02  0.90000012136E+02 0.  0.
        -12    1    1    2    0    0  0.94596232062E+00  0.37239524628E+00  0.59955454326E+00  0.11802493727E+01  0.00000000000E+00 0.  1.
         11    1    3    3    0    0  0.31189502299E+02 -0.19321461634E+02 -0.95945009517E+01  0.37923058713E+02  0.51100000000E-03 0. -1.
        -11    1    3    3    0    0  0.39810160661E+01 -0.46733250178E+01  0.63736810107E+01  0.88494217623E+01  0.51100000000E-03 0.  1.
        -12    1    3    3    0    0 -0.36116480686E+02  0.23622391405E+02  0.26212653978E+01  0.43235270152E+02  0.00000000000E+00 0.  1.
</event>
<event>
 7    1  0.5158441E-015  0.9000750E+02  0.7816164E-02  0.1186340E+00
        -11   -1    0    0    0    0  0.00000000000E+00  0.00000000000E+00  0.45593999997E+02  0.45594000000E+02  0.51100000000E-03 0. -1.
         11   -1    0    0    0    0 -0.00000000000E+00 -0.00000000000E+00 -0.45593999997E+02  0.45594000000E+02  0.51100000000E-03 0.  1.
    9900012    2    1    2    0    0  0.73870906002E+00  0.20204134323E+00  0.89837269960E+00  0.90007497867E+02  0.89999756038E+02 0.  0.
        -12    1    1    2    0    0 -0.73870906002E+00 -0.20204134323E+00 -0.89837269960E+00  0.11805021335E+01  0.00000000000E+00 0.  1.
         11    1    3    3    0    0 -0.12992195145E+01 -0.10693135685E+02  0.35458587225E+02  0.37058636380E+02  0.51100000000E-03 0. -1.
        -11    1    3    3    0    0 -0.21643711624E+01 -0.13106175806E+02 -0.40186225639E+01  0.13878244643E+02  0.51100000000E-03 0.  1.
        -12    1    3    3    0    0  0.42022997369E+01  0.24001352835E+02 -0.30541591961E+02  0.39070616843E+02  0.00000000000E+00 0.  1.
</event>
<event>
 7    1  0.5158441E-015  0.9000756E+02  0.7816164E-02  0.1186339E+00
        -11   -1    0    0    0    0  0.00000000000E+00  0.00000000000E+00  0.45593999997E+02  0.45594000000E+02  0.51100000000E-03 0. -1.
         11   -1    0    0    0    0 -0.00000000000E+00 -0.00000000000E+00 -0.45593999997E+02  0.45594000000E+02  0.51100000000E-03 0.  1.
    9900012    2    1    2    0    0 -0.98399509893E+00 -0.13121061893E+00  0.63872994373E+00  0.90007560030E+02  0.89999819022E+02 0.  0.
        -12    1    1    2    0    0  0.98399509893E+00  0.13121061893E+00 -0.63872994373E+00  0.11804399698E+01  0.00000000000E+00 0.  1.
         11    1    3    3    0    0  0.31496436864E+01 -0.99090493245E+01  0.15219976203E+01  0.10508377177E+02  0.51100000000E-03 0. -1.
        -11    1    3    3    0    0 -0.18937253218E+02  0.14085215913E+02 -0.34911858436E+02  0.42140843922E+02  0.51100000000E-03 0.  1.
         12    1    3    3    0    0  0.14803614433E+02 -0.43073772075E+01  0.34028590759E+02  0.37358338932E+02  0.00000000000E+00 0. -1.
</event>
<event>
 7    1  0.5158441E-015  0.9000774E+02  0.7816164E-02  0.1186339E+00
        -11   -1    0    0    0    0  0.00000000000E+00  0.00000000000E+00  0.45593999997E+02  0.45594000000E+02  0.51100000000E-03 0. -1.
         11   -1    0    0    0    0 -0.00000000000E+00 -0.00000000000E+00 -0.45593999997E+02  0.45594000000E+02  0.51100000000E-03 0.  1.
    9900012    2    1    2    0    0  0.76445875181E+00  0.53808510762E+00 -0.72047376968E+00  0.90007739343E+02  0.90000000702E+02 0.  0.
        -12    1    1    2    0    0 -0.76445875181E+00 -0.53808510762E+00  0.72047376968E+00  0.11802606573E+01  0.00000000000E+00 0.  1.
         11    1    3    3    0    0  0.84832970526E+01  0.21395670657E+02  0.65854647823E+00  0.23025523565E+02  0.51100000000E-03 0. -1.
        -11    1    3    3    0    0 -0.20198799317E+02  0.16127635240E+02  0.75745295221E+01  0.26934468809E+02  0.51100000000E-03 0.  1.
         12    1    3    3    0    0  0.12479961016E+02 -0.36985220789E+02 -0.89535497700E+01  0.40047746969E+02  0.00000000000E+00 0. -1.
</event>
<event>
 7    1  0.5158441E-015  0.9000775E+02  0.7816164E-02  0.1186339E+00
        -11   -1    0    0    0    0  0.00000000000E+00  0.00000000000E+00  0.45593999997E+02  0.45594000000E+02  0.51100000000E-03 0. -1.
         11   -1    0    0    0    0 -0.00000000000E+00 -0.00000000000E+00 -0.45593999997E+02  0.45594000000E+02  0.51100000000E-03 0.  1.
    9900012    2    1    2    0    0 -0.78502990881E+00 -0.51133761019E+00  0.71780459171E+00  0.90007753610E+02  0.90000015158E+02 0.  0.
        -12    1    1    2    0    0  0.78502990881E+00  0.51133761019E+00 -0.71780459171E+00  0.11802463900E+01  0.00000000000E+00 0.  1.
         11    1    3    3    0    0  0.12806055054E+01 -0.69348892507E+01  0.69445851271E+01  0.98974694861E+01  0.51100000000E-03 0. -1.
        -11    1    3    3    0    0 -0.28096848773E+02 -0.38655316793E+01  0.25260805310E+02  0.37980041223E+02  0.51100000000E-03 0.  1.
         12    1    3    3    0    0  0.26031213359E+02  0.10289083320E+02 -0.31487585845E+02  0.42130242901E+02  0.00000000000E+00 0. -1.
</event>
<event>
 7    1  0.5158441E-015  0.9000777E+02  0.7816164E-02  0.1186339E+00
        -11   -1    0    0    0    0  0.00000000000E+00  0.00000000000E+00  0.45593999997E+02  0.45594000000E+02  0.51100000000E-03 0. -1.
         11   -1    0    0    0    0 -0.00000000000E+00 -0.00000000000E+00 -0.45593999997E+02  0.45594000000E+02  0.51100000000E-03 0.  1.
    9900012    2    1    2    0    0  0.87367663213E+00  0.77924285613E+00  0.14971364671E+00  0.90007769318E+02  0.90000031073E+02 0.  0.
        -12    1    1    2    0    0 -0.87367663213E+00 -0.77924285613E+00 -0.14971364671E+00  0.11802306818E+01  0.00000000000E+00 0.  1.
         11    1    3    3    0    0 -0.31179743800E+02  0.61140477575E+01  0.24643164823E+02  0.40209993486E+02  0.51100000000E-03 0. -1.
        -11    1    3    3    0    0 -0.27553598298E+01  0.57350067559E+01 -0.64409964939E+01  0.90536592810E+01  0.51100000000E-03 0.  1.
        -12    1    3    3    0    0  0.34808780262E+02 -0.11069811657E+02 -0.18052454682E+02  0.40744116551E+02  0.00000000000E+00 0.  1.
</event>
<event>
 7    1  0.5158441E-015  0.9000841E+02  0.7816164E-02  0.1186338E+00
        -11   -1    0    0    0    0  0.00000000000E+00  0.00000000000E+00  0.45593999997E+02  0.45594000000E+02  0.51100000000E-03 0. -1.
         11   -1    0    0    0    0 -0.00000000000E+00 -0.00000000000E+00 -0.45593999997E+02  0.45594000000E+02  0.51100000000E-03 0.  1.
    9900012    2    1    2    0    0  0.11597319916E+01 -0.16735810222E+00  0.13584064757E+00  0.90008406973E+02  0.90000677143E+02 0.  0.
        -12    1    1    2    0    0 -0.11597319916E+01  0.16735810222E+00 -0.13584064757E+00  0.11795930266E+01  0.00000000000E+00 0.  1.
         11    1    3    3    0    0  0.13591262708E+02  0.26735112073E+02 -0.21412888470E+02  0.36851057413E+02  0.51100000000E-03 0. -1.
        -11    1    3    3    0    0  0.92054166795E+01  0.41369050060E+01  0.11092982983E+01  0.10153040050E+02  0.51100000000E-03 0.  1.
        -12    1    3    3    0    0 -0.21636947396E+02 -0.31039375181E+02  0.20439430819E+02  0.43004309511E+02  0.00000000000E+00 0.  1.
</event>
<event>
 7    1  0.5158441E-015  0.9000804E+02  0.7816164E-02  0.1186338E+00
        -11   -1    0    0    0    0  0.00000000000E+00  0.00000000000E+00  0.45593999997E+02  0.45594000000E+02  0.51100000000E-03 0.  1.
         11   -1    0    0    0    0 -0.00000000000E+00 -0.00000000000E+00 -0.45593999997E+02  0.45594000000E+02  0.51100000000E-03 0. -1.
    9900012    2    1    2    0    0 -0.20191293494E+00  0.10715548795E+01 -0.45089397498E+00  0.90008040649E+02  0.90000305985E+02 0.  0.
        -12    1    1    2    0    0  0.20191293494E+00 -0.10715548795E+01  0.45089397498E+00  0.11799593509E+01  0.00000000000E+00 0.  1.
         11    1    3    3    0    0 -0.50334549581E+01  0.11816588264E+02  0.51961514070E+01  0.13855230662E+02  0.51100000000E-03 0. -1.
        -11    1    3    3    0    0 -0.34019134524E+02 -0.25967517705E+01 -0.11550546024E+02  0.36020268561E+02  0.51100000000E-03 0.  1.
         12    1    3    3    0    0  0.38850676547E+02 -0.81482816135E+01  0.59035006424E+01  0.40132541425E+02  0.00000000000E+00 0. -1.
</event>
<event>
 7    1  0.5158441E-015  0.9000771E+02  0.7816164E-02  0.1186339E+00
        -11   -1    0    0    0    0  0.00000000000E+00  0.00000000000E+00  0.45593999997E+02  0.45594000000E+02  0.51100000000E-03 0.  1.
         11   -1    0    0    0    0 -0.00000000000E+00 -0.00000000000E+00 -0.45593999997E+02  0.45594000000E+02  0.51100000000E-03 0. -1.
    9900012    2    1    2    0    0  0.14534469699E+00 -0.28093203944E+00 -0.11371202341E+01  0.90007707528E+02  0.89999968468E+02 0.  0.
        -12    1    1    2    0    0 -0.14534469699E+00  0.28093203944E+00  0.11371202341E+01  0.11802924716E+01  0.00000000000E+00 0.  1.
         11    1    3    3    0    0 -0.63714913316E+01 -0.83281363644E+01 -0.29098344251E+01  0.10882136451E+02  0.51100000000E-03 0. -1.
        -11    1    3    3    0    0  0.12081342721E+02 -0.52439344642E+01  0.37957481908E+02  0.40177457904E+02  0.51100000000E-03 0.  1.
         12    1    3    3    0    0 -0.55645066924E+01  0.13291138789E+02 -0.36184767717E+02  0.38948113173E+02  0.00000000000E+00 0. -1.
</event>
<event>
 7    1  0.5158441E-015  0.9000797E+02  0.7816164E-02  0.1186339E+00
        -11   -1    0    0    0    0  0.00000000000E+00  0.00000000000E+00  0.45593999997E+02  0.45594000000E+02  0.51100000000E-03 0.  1.
         11   -1    0    0    0    0 -0.00000000000E+00 -0.00000000000E+00 -0.45593999997E+02  0.45594000000E+02  0.51100000000E-03 0. -1.
    9900012    2    1    2    0    0 -0.15225820511E+00  0.24321542803E-01 -0.11699151504E+01  0.90007967985E+02  0.90000232362E+02 0.  0.
        -12    1    1    2    0    0  0.15225820511E+00 -0.24321542803E-01  0.11699151504E+01  0.11800320155E+01  0.00000000000E+00 0.  1.
         11    1    3    3    0    0  0.90286154696E+01 -0.31095018887E+01  0.19602259773E+01  0.97481990868E+01  0.51100000000E-03 0. -1.
        -11    1    3    3    0    0 -0.55508711778E+01  0.21497206077E+02  0.32880525767E+02  0.39674563828E+02  0.51100000000E-03 0.  1.
         12    1    3    3    0    0 -0.36300024969E+01 -0.18363382646E+02 -0.36010666895E+02  0.40585205070E+02  0.00000000000E+00 0. -1.
</event>
<event>
 7    1  0.5158441E-015  0.9000774E+02  0.7816164E-02  0.1186339E+00
        -11   -1    0    0    0    0  0.00000000000E+00  0.00000000000E+00  0.45593999997E+02  0.45594000000E+02  0.51100000000E-03 0. -1.
         11   -1    0    0    0    0 -0.00000000000E+00 -0.00000000000E+00 -0.45593999997E+02  0.45594000000E+02  0.51100000000E-03 0.  1.
    9900012    2    1    2    0    0  0.53232408137E+00  0.15064684706E+00  0.10425745372E+01  0.90007735171E+02  0.89999996476E+02 0.  0.
        -12    1    1    2    0    0 -0.53232408137E+00 -0.15064684706E+00 -0.10425745372E+01  0.11802648286E+01  0.00000000000E+00 0.  1.
         11    1    3    3    0    0  0.25342192647E+01 -0.74963083120E+01  0.43975655345E+01  0.90529270671E+01  0.51100000000E-03 0. -1.
        -11    1    3    3    0    0 -0.35529763498E+02 -0.15679423107E+02  0.53237737569E+01  0.39198864403E+02  0.51100000000E-03 0.  1.
         12    1    3    3    0    0  0.33527868314E+02  0.23326378267E+02 -0.86787647542E+01  0.41755943702E+02  0.00000000000E+00 0. -1.
</event>
<event>
 7    1  0.5158441E-015  0.9000779E+02  0.7816164E-02  0.1186339E+00
        -11   -1    0    0    0    0  0.00000000000E+00  0.00000000000E+00  0.45593999997E+02  0.45594000000E+02  0.51100000000E-03 0.  1.
         11   -1    0    0    0    0 -0.00000000000E+00 -0.00000000000E+00 -0.45593999997E+02  0.45594000000E+02  0.51100000000E-03 0. -1.
    9900012    2    1    2    0    0 -0.48422322150E+00 -0.91939662285E+00 -0.55958435139E+00  0.90007789457E+02  0.90000051478E+02 0.  0.
        -12    1    1    2    0    0  0.48422322150E+00  0.91939662285E+00  0.55958435139E+00  0.11802105425E+01  0.00000000000E+00 0.  1.
         11    1    3    3    0    0  0.12040783375E+02 -0.30300174363E+02 -0.26585873546E+02  0.42070057086E+02  0.51100000000E-03 0. -1.
        -11    1    3    3    0    0 -0.10091737307E+02  0.63281446166E+01 -0.14383030856E+01  0.11998220376E+02  0.51100000000E-03 0.  1.
        -12    1    3    3    0    0 -0.24332692886E+01  0.23052633124E+02  0.27464592280E+02  0.35939511996E+02  0.00000000000E+00 0.  1.
</event>
<event>
 7    1  0.5158441E-015  0.9000799E+02  0.7816164E-02  0.1186339E+00
        -11   -1    0    0    0    0  0.00000000000E+00  0.00000000000E+00  0.45593999997E+02  0.45594000000E+02  0.51100000000E-03 0. -1.
         11   -1    0    0    0    0 -0.00000000000E+00 -0.00000000000E+00 -0.45593999997E+02  0.45594000000E+02  0.51100000000E-03 0.  1.
    9900012    2    1    2    0    0 -0.32065585805E-01  0.11489882195E+01  0.26689284355E+00  0.90007985627E+02  0.90000250237E+02 0.  0.
        -12    1    1    2    0    0  0.32065585805E-01 -0.11489882195E+01 -0.26689284355E+00  0.11800143729E+01  0.00000000000E+00 0.  1.
         11    1    3    3    0    0 -0.34150495878E+02 -0.66645638294E+01 -0.50524430493E+01  0.35159635390E+02  0.51100000000E-03 0. -1.
        -11    1    3    3    0    0 -0.82421321460E+01 -0.86199137879E+00  0.80092710240E+01  0.11524937919E+02  0.51100000000E-03 0.  1.
        -12    1    3    3    0    0  0.42360562438E+02  0.86755434277E+01 -0.26899351312E+01  0.43323412318E+02  0.00000000000E+00 0.  1.
</event>
<event>
 7    1  0.5158441E-015  0.9000774E+02  0.7816164E-02  0.1186339E+00
        -11   -1    0    0    0    0  0.00000000000E+00  0.00000000000E+00  0.45593999997E+02  0.45594000000E+02  0.51100000000E-03 0.  1.
         11   -1    0    0    0    0 -0.00000000000E+00 -0.00000000000E+00 -0.45593999997E+02  0.45594000000E+02  0.51100000000E-03 0. -1.
    9900012    2    1    2    0    0  0.55763731340E+00 -0.78783736089E+00 -0.67923413827E+00  0.90007743208E+02  0.90000004618E+02 0.  0.
        -12    1    1    2    0    0 -0.55763731340E+00  0.78783736089E+00  0.67923413827E+00  0.11802567920E+01  0.00000000000E+00 0.  1.
         11    1    3    3    0    0  0.55171811027E+01  0.89464880151E+01  0.24091382391E+01  0.10783454105E+02  0.51100000000E-03 0. -1.
        -11    1    3    3    0    0  0.30479518442E+01  0.34059727258E+02 -0.55169091403E+01  0.34638003956E+02  0.51100000000E-03 0.  1.
         12    1    3    3    0    0 -0.80074956335E+01 -0.43794052634E+02  0.24285367629E+01  0.44586285147E+02  0.00000000000E+00 0. -1.
</event>
<event>
 7    1  0.5158441E-015  0.9000759E+02  0.7816164E-02  0.1186339E+00
        -11   -1    0    0    0    0  0.00000000000E+00  0.00000000000E+00  0.45593999997E+02  0.45594000000E+02  0.51100000000E-03 0.  1.
         11   -1    0    0    0    0 -0.00000000000E+00 -0.00000000000E+00 -0.45593999997E+02  0.45594000000E+02  0.51100000000E-03 0. -1.
    9900012    2    1    2    0    0  0.53685936153E+00 -0.33292891777E+00 -0.99715496727E+00  0.90007585807E+02  0.89999845139E+02 0.  0.
        -12    1    1    2    0    0 -0.53685936153E+00  0.33292891777E+00  0.99715496727E+00  0.11804141930E+01  0.00000000000E+00 0.  1.
         11    1    3    3    0    0  0.14754190538E+01  0.39248666181E+02 -0.13941470747E+02  0.41677323154E+02  0.51100000000E-03 0. -1.
        -11    1    3    3    0    0 -0.85776587536E+01 -0.32144082541E+01  0.62837949456E+00  0.91816943517E+01  0.51100000000E-03 0.  1.
        -12    1    3    3    0    0  0.76390990613E+01 -0.36367186845E+02  0.12315936285E+02  0.39148568302E+02  0.00000000000E+00 0.  1.
</event>
<event>
 7    1  0.5158441E-015  0.9000791E+02  0.7816164E-02  0.1186339E+00
        -11   -1    0    0    0    0  0.00000000000E+00  0.00000000000E+00  0.45593999997E+02  0.45594000000E+02  0.51100000000E-03 0.  1.
         11   -1    0    0    0    0 -0.00000000000E+00 -0.00000000000E+00 -0.45593999997E+02  0.45594000000E+02  0.51100000000E-03 0. -1.
    9900012    2    1    2    0    0 -0.38407012923E+00  0.11149149191E+01  0.45343010438E-01  0.90007914779E+02  0.90000178454E+02 0.  0.
        -12    1    1    2    0    0  0.38407012923E+00 -0.11149149191E+01 -0.45343010438E-01  0.11800852214E+01  0.00000000000E+00 0.  1.
         11    1    3    3    0    0  0.51810495063E+01  0.12803291415E+02 -0.38146367961E+02  0.40569852525E+02  0.51100000000E-03 0. -1.
        -11    1    3    3    0    0 -0.22356853485E+01 -0.82296426476E+01 -0.21636780311E+01  0.87981140007E+01  0.51100000000E-03 0.  1.
        -12    1    3    3    0    0 -0.33294342869E+01 -0.34587338479E+01  0.40355389002E+02  0.40639948253E+02  0.00000000000E+00 0.  1.
</event>
<event>
 7    1  0.5158441E-015  0.9000754E+02  0.7816164E-02  0.1186339E+00
        -11   -1    0    0    0    0  0.00000000000E+00  0.00000000000E+00  0.45593999997E+02  0.45594000000E+02  0.51100000000E-03 0. -1.
         11   -1    0    0    0    0 -0.00000000000E+00 -0.00000000000E+00 -0.45593999997E+02  0.45594000000E+02  0.51100000000E-03 0.  1.
    9900012    2    1    2    0    0  0.10961013694E+01 -0.36534156935E+00  0.24203279348E+00  0.90007537147E+02  0.89999795837E+02 0.  0.
        -12    1    1    2    0    0 -0.10961013694E+01  0.36534156935E+00 -0.24203279348E+00  0.11804628530E+01  0.00000000000E+00 0.  1.
         11    1    3    3    0    0  0.29692374706E+01 -0.24728018971E+01  0.83568025021E+01  0.92069141790E+01  0.51100000000E-03 0. -1.
        -11    1    3    3    0    0 -0.30992298281E+02 -0.25187850438E+02 -0.87479587941E+01  0.40883702692E+02  0.51100000000E-03 0.  1.
         12    1    3    3    0    0  0.29119162180E+02  0.27295310766E+02  0.63318908551E+00  0.39916920276E+02  0.00000000000E+00 0. -1.
</event>
<event>
 7    1  0.5158441E-015  0.9000769E+02  0.7816164E-02  0.1186339E+00
        -11   -1    0    0    0    0  0.00000000000E+00  0.00000000000E+00  0.45593999997E+02  0.45594000000E+02  0.51100000000E-03 0.  1.
         11   -1    0    0    0    0 -0.00000000000E+00 -0.00000000000E+00 -0.45593999997E+02  0.45594000000E+02  0.51100000000E-03 0. -1.
    9900012    2    1    2    0    0 -0.14366161053E+00 -0.11256653248E+01  0.32460958297E+00  0.90007689675E+02  0.89999950379E+02 0.  0.
        -12    1    1    2    0    0  0.14366161053E+00  0.11256653248E+01 -0.32460958297E+00  0.11803103249E+01  0.00000000000E+00 0.  1.
         11    1    3    3    0    0  0.87434279327E+00  0.12496017630E+01  0.98674932644E+01  0.99846584052E+01  0.51100000000E-03 0. -1.
        -11    1    3    3    0    0 -0.23270246163E+02 -0.20101489072E+02  0.21800139883E+02  0.37693770288E+02  0.51100000000E-03 0.  1.
         12    1    3    3    0    0  0.22252241759E+02  0.17726221984E+02 -0.31343023564E+02  0.42329260982E+02  0.00000000000E+00 0. -1.
</event>
<event>
 7    1  0.5158441E-015  0.9000776E+02  0.7816164E-02  0.1186339E+00
        -11   -1    0    0    0    0  0.00000000000E+00  0.00000000000E+00  0.45593999997E+02  0.45594000000E+02  0.51100000000E-03 0.  1.
         11   -1    0    0    0    0 -0.00000000000E+00 -0.00000000000E+00 -0.45593999997E+02  0.45594000000E+02  0.51100000000E-03 0. -1.
    9900012    2    1    2    0    0 -0.78866951659E+00  0.17162096632E+00 -0.86111014085E+00  0.90007761025E+02  0.90000022671E+02 0.  0.
        -12    1    1    2    0    0  0.78866951659E+00 -0.17162096632E+00  0.86111014085E+00  0.11802389746E+01  0.00000000000E+00 0.  1.
         11    1    3    3    0    0 -0.16618880630E+02  0.79055323946E+01 -0.42828722995E+01  0.18895174813E+02  0.51100000000E-03 0. -1.
        -11    1    3    3    0    0 -0.16212258276E+02 -0.25006952142E+02 -0.11264216213E+02  0.31860124623E+02  0.51100000000E-03 0.  1.
         12    1    3    3    0    0  0.32042469389E+02  0.17273040714E+02  0.14685978372E+02  0.39252461589E+02  0.00000000000E+00 0. -1.
</event>
<event>
 7    1  0.5158441E-015  0.9000775E+02  0.7816164E-02  0.1186339E+00
        -11   -1    0    0    0    0  0.00000000000E+00  0.00000000000E+00  0.45593999997E+02  0.45594000000E+02  0.51100000000E-03 0. -1.
         11   -1    0    0    0    0 -0.00000000000E+00 -0.00000000000E+00 -0.45593999997E+02  0.45594000000E+02  0.51100000000E-03 0.  1.
    9900012    2    1    2    0    0  0.12679618547E+00  0.11361099545E+01 -0.29353615168E+00  0.90007751478E+02  0.90000012997E+02 0.  0.
        -12    1    1    2    0    0 -0.12679618547E+00 -0.11361099545E+01  0.29353615168E+00  0.11802485220E+01  0.00000000000E+00 0.  1.
         11    1    3    3    0    0 -0.11384601353E+02  0.16058415680E+01 -0.14488940897E+02  0.18496412725E+02  0.51100000000E-03 0.  1.
        -11    1    3    3    0    0 -0.24757753709E+02 -0.17063705701E+02  0.39113274436E+01  0.30321855214E+02  0.51100000000E-03 0. -1.
         12    1    3    3    0    0  0.36269151248E+02  0.16593974087E+02  0.10284077302E+02  0.41189483539E+02  0.00000000000E+00 0. -1.
</event>
<event>
 7    1  0.5158441E-015  0.9000774E+02  0.7816164E-02  0.1186339E+00
        -11   -1    0    0    0    0  0.00000000000E+00  0.00000000000E+00  0.45593999997E+02  0.45594000000E+02  0.51100000000E-03 0. -1.
         11   -1    0    0    0    0 -0.00000000000E+00 -0.00000000000E+00 -0.45593999997E+02  0.45594000000E+02  0.51100000000E-03 0.  1.
    9900012    2    1    2    0    0 -0.24690593244E+00 -0.61918473616E-01  0.11524850941E+01  0.90007738025E+02  0.89999999367E+02 0.  0.
        -12    1    1    2    0    0  0.24690593244E+00  0.61918473616E-01 -0.11524850941E+01  0.11802619747E+01  0.00000000000E+00 0.  1.
         11    1    3    3    0    0  0.24846740691E+02 -0.18190153358E+02  0.26888585482E+02  0.40880780712E+02  0.51100000000E-03 0. -1.
        -11    1    3    3    0    0  0.85782428390E+00  0.88401243345E+01  0.29362863079E+01  0.93544341514E+01  0.51100000000E-03 0.  1.
        -12    1    3    3    0    0 -0.25951470908E+02  0.92881105495E+01 -0.28672386695E+02  0.39772523162E+02  0.00000000000E+00 0.  1.
</event>
<event>
 7    1  0.5158441E-015  0.9000774E+02  0.7816164E-02  0.1186339E+00
        -11   -1    0    0    0    0  0.00000000000E+00  0.00000000000E+00  0.45593999997E+02  0.45594000000E+02  0.51100000000E-03 0.  1.
         11   -1    0    0    0    0 -0.00000000000E+00 -0.00000000000E+00 -0.45593999997E+02  0.45594000000E+02  0.51100000000E-03 0. -1.
    9900012    2    1    2    0    0  0.77358238916E+00 -0.69517509682E-01 -0.88867810851E+00  0.90007741055E+02  0.90000002437E+02 0.  0.
        -12    1    1    2    0    0 -0.77358238916E+00  0.69517509682E-01  0.88867810851E+00  0.11802589451E+01  0.00000000000E+00 0.  1.
         11    1    3    3    0    0 -0.21838207952E+02  0.31957944226E+00  0.20042595511E+02  0.29643128929E+02  0.51100000000E-03 0. -1.
        -11    1    3    3    0    0 -0.15456886266E+02  0.83389842610E+01 -0.64130916140E+01  0.18697105013E+02  0.51100000000E-03 0.  1.
         12    1    3    3    0    0  0.38068676608E+02 -0.87280812129E+01 -0.14518182006E+02  0.41667507114E+02  0.00000000000E+00 0. -1.
</event>
<event>
 7    1  0.5158441E-015  0.9000765E+02  0.7816164E-02  0.1186339E+00
        -11   -1    0    0    0    0  0.00000000000E+00  0.00000000000E+00  0.45593999997E+02  0.45594000000E+02  0.51100000000E-03 0. -1.
         11   -1    0    0    0    0 -0.00000000000E+00 -0.00000000000E+00 -0.45593999997E+02  0.45594000000E+02  0.51100000000E-03 0.  1.
    9900012    2    1    2    0    0 -0.78223229740E+00 -0.81993384206E+00  0.33023878550E+00  0.90007645592E+02  0.89999905714E+02 0.  0.
        -12    1    1    2    0    0  0.78223229740E+00  0.81993384206E+00 -0.33023878550E+00  0.11803544078E+01  0.00000000000E+00 0.  1.
         11    1    3    3    0    0  0.91924322877E+01 -0.26925425873E-03  0.27861467722E+01  0.96053852361E+01  0.51100000000E-03 0. -1.
        -11    1    3    3    0    0  0.32702963313E+02 -0.13709353651E+02 -0.46655942098E+01  0.35765876986E+02  0.51100000000E-03 0.  1.
         12    1    3    3    0    0 -0.42677627898E+02  0.12889689063E+02  0.22096862231E+01  0.44636383370E+02  0.00000000000E+00 0. -1.
</event>
<event>
 7    1  0.5158441E-015  0.9000780E+02  0.7816164E-02  0.1186339E+00
        -11   -1    0    0    0    0  0.00000000000E+00  0.00000000000E+00  0.45593999997E+02  0.45594000000E+02  0.51100000000E-03 0. -1.
         11   -1    0    0    0    0 -0.00000000000E+00 -0.00000000000E+00 -0.45593999997E+02  0.45594000000E+02  0.51100000000E-03 0.  1.
    9900012    2    1    2    0    0 -0.32311598748E+00  0.39123321224E+00  0.10655495202E+01  0.90007803767E+02  0.90000065977E+02 0.  0.
        -12    1    1    2    0    0  0.32311598748E+00 -0.39123321224E+00 -0.10655495202E+01  0.11801962327E+01  0.00000000000E+00 0.  1.
         11    1    3    3    0    0  0.29299724448E+02 -0.14204098825E+02  0.13046549001E+02  0.35077666930E+02  0.51100000000E-03 0. -1.
        -11    1    3    3    0    0  0.78025242508E+01 -0.68871634636E+01 -0.32505603545E+01  0.10903143957E+02  0.51100000000E-03 0.  1.
        -12    1    3    3    0    0 -0.37425364686E+02  0.21482495501E+02 -0.87304391264E+01  0.44026992881E+02  0.00000000000E+00 0.  1.
</event>
<event>
 7    1  0.5158441E-015  0.9000768E+02  0.7816164E-02  0.1186339E+00
        -11   -1    0    0    0    0  0.00000000000E+00  0.00000000000E+00  0.45593999997E+02  0.45594000000E+02  0.51100000000E-03 0. -1.
         11   -1    0    0    0    0 -0.00000000000E+00 -0.00000000000E+00 -0.45593999997E+02  0.45594000000E+02  0.51100000000E-03 0.  1.
    9900012    2    1    2    0    0  0.23224682723E+00  0.10812060177E+01 -0.41257531739E+00  0.90007676555E+02  0.89999937086E+02 0.  0.
        -12    1    1    2    0    0 -0.23224682723E+00 -0.10812060177E+01  0.41257531739E+00  0.11803234446E+01  0.00000000000E+00 0.  1.
         11    1    3    3    0    0  0.41328586367E+01  0.15148878990E+02  0.22774664478E+01  0.15866817855E+02  0.51100000000E-03 0. -1.
        -11    1    3    3    0    0 -0.65440317411E+01 -0.22147348824E+01 -0.37054838938E+02  0.37693374630E+02  0.51100000000E-03 0.  1.
         12    1    3    3    0    0  0.26434199317E+01 -0.11852938090E+02  0.34364797173E+02  0.36447484070E+02  0.00000000000E+00 0. -1.
</event>
<event>
 7    1  0.5158441E-015  0.9000739E+02  0.7816164E-02  0.1186340E+00
        -11   -1    0    0    0    0  0.00000000000E+00  0.00000000000E+00  0.45593999997E+02  0.45594000000E+02  0.51100000000E-03 0. -1.
         11   -1    0    0    0    0 -0.00000000000E+00 -0.00000000000E+00 -0.45593999997E+02  0.45594000000E+02  0.51100000000E-03 0.  1.
    9900012    2    1    2    0    0 -0.41504402342E-01 -0.11651937423E+01  0.18558886883E+00  0.90007389014E+02  0.89999645748E+02 0.  0.
        -12    1    1    2    0    0  0.41504402342E-01  0.11651937423E+01 -0.18558886883E+00  0.11806109862E+01  0.00000000000E+00 0.  1.
         11    1    3    3    0    0 -0.22118822185E+02  0.13990251584E+02  0.18025792657E+02  0.31778902363E+02  0.51100000000E-03 0.  1.
        -11    1    3    3    0    0 -0.69139373589E+01  0.12227182603E+02 -0.10833653484E+02  0.17739069093E+02  0.51100000000E-03 0. -1.
        -12    1    3    3    0    0  0.28991255141E+02 -0.27382627929E+02 -0.70065503044E+01  0.40489417558E+02  0.00000000000E+00 0.  1.
</event>
<event>
 7    1  0.5158441E-015  0.9000773E+02  0.7816164E-02  0.1186339E+00
        -11   -1    0    0    0    0  0.00000000000E+00  0.00000000000E+00  0.45593999997E+02  0.45594000000E+02  0.51100000000E-03 0. -1.
         11   -1    0    0    0    0 -0.00000000000E+00 -0.00000000000E+00 -0.45593999997E+02  0.45594000000E+02  0.51100000000E-03 0.  1.
    9900012    2    1    2    0    0  0.10481475427E+00 -0.94056296267E+00  0.70526338225E+00  0.90007728312E+02  0.89999989526E+02 0.  0.
        -12    1    1    2    0    0 -0.10481475427E+00  0.94056296267E+00 -0.70526338225E+00  0.11802716881E+01  0.00000000000E+00 0.  1.
         11    1    3    3    0    0  0.21522976200E+01  0.14669001458E+01 -0.83388268615E+01  0.87361441592E+01  0.51100000000E-03 0. -1.
        -11    1    3    3    0    0  0.11448512870E+02  0.25079511614E+02 -0.23761076817E+02  0.36395592061E+02  0.51100000000E-03 0.  1.
         12    1    3    3    0    0 -0.13495995735E+02 -0.27486974723E+02  0.32805167061E+02  0.44875992091E+02  0.00000000000E+00 0. -1.
</event>
<event>
 7    1  0.5158441E-015  0.9000778E+02  0.7816164E-02  0.1186339E+00
        -11   -1    0    0    0    0  0.00000000000E+00  0.00000000000E+00  0.45593999997E+02  0.45594000000E+02  0.51100000000E-03 0. -1.
         11   -1    0    0    0    0 -0.00000000000E+00 -0.00000000000E+00 -0.45593999997E+02  0.45594000000E+02  0.51100000000E-03 0.  1.
    9900012    2    1    2    0    0 -0.83377337375E+00  0.82863779828E+00  0.10536312442E+00  0.90007779670E+02  0.90000041562E+02 0.  0.
        -12    1    1    2    0    0  0.83377337375E+00 -0.82863779828E+00 -0.10536312442E+00  0.11802203301E+01  0.00000000000E+00 0.  1.
         11    1    3    3    0    0  0.83949107250E+01 -0.32976541736E+01 -0.13110750594E+01  0.91141630006E+01  0.51100000000E-03 0. -1.
        -11    1    3    3    0    0  0.10231323918E+02  0.33664846172E+02 -0.19065902355E+02  0.40018876668E+02  0.51100000000E-03 0.  1.
         12    1    3    3    0    0 -0.19460008017E+02 -0.29538554200E+02  0.20482340539E+02  0.40874740001E+02  0.00000000000E+00 0. -1.
</event>
<event>
 7    1  0.5158441E-015  0.9000778E+02  0.7816164E-02  0.1186339E+00
        -11   -1    0    0    0    0  0.00000000000E+00  0.00000000000E+00  0.45593999997E+02  0.45594000000E+02  0.51100000000E-03 0.  1.
         11   -1    0    0    0    0 -0.00000000000E+00 -0.00000000000E+00 -0.45593999997E+02  0.45594000000E+02  0.51100000000E-03 0. -1.
    9900012    2    1    2    0    0  0.47887928569E+00 -0.75914338353E+00  0.76635020690E+00  0.90007781085E+02  0.90000042996E+02 0.  0.
        -12    1    1    2    0    0 -0.47887928569E+00  0.75914338353E+00 -0.76635020690E+00  0.11802189147E+01  0.00000000000E+00 0.  1.
         11    1    3    3    0    0  0.64532066114E+01  0.16025332938E+01 -0.64391921985E+01  0.92560890747E+01  0.51100000000E-03 0. -1.
        -11    1    3    3    0    0  0.91451208992E+01 -0.26813063863E+02 -0.24856502035E+02  0.37688450799E+02  0.51100000000E-03 0.  1.
         12    1    3    3    0    0 -0.15119448225E+02  0.24451387186E+02  0.32062044440E+02  0.43063241211E+02  0.00000000000E+00 0. -1.
</event>
<event>
 7    1  0.5158441E-015  0.9000769E+02  0.7816164E-02  0.1186339E+00
        -11   -1    0    0    0    0  0.00000000000E+00  0.00000000000E+00  0.45593999997E+02  0.45594000000E+02  0.51100000000E-03 0. -1.
         11   -1    0    0    0    0 -0.00000000000E+00 -0.00000000000E+00 -0.45593999997E+02  0.45594000000E+02  0.51100000000E-03 0.  1.
    9900012    2    1    2    0    0  0.71548158219E-01  0.29902678031E+00  0.11395611768E+01  0.90007688249E+02  0.89999948934E+02 0.  0.
        -12    1    1    2    0    0 -0.71548158219E-01 -0.29902678031E+00 -0.11395611768E+01  0.11803117512E+01  0.00000000000E+00 0.  1.
         11    1    3    3    0    0  0.92412831878E+01  0.43286733345E+01  0.19944054113E+01  0.10397902721E+02  0.51100000000E-03 0. -1.
        -11    1    3    3    0    0 -0.18769965074E+02 -0.16406646186E+02  0.33555140787E+02  0.41802357607E+02  0.51100000000E-03 0.  1.
         12    1    3    3    0    0  0.96002300448E+01  0.12376999632E+02 -0.34409985022E+02  0.37807427921E+02  0.00000000000E+00 0. -1.
</event>
<event>
 7    1  0.5158441E-015  0.9000767E+02  0.7816164E-02  0.1186339E+00
        -11   -1    0    0    0    0  0.00000000000E+00  0.00000000000E+00  0.45593999997E+02  0.45594000000E+02  0.51100000000E-03 0.  1.
         11   -1    0    0    0    0 -0.00000000000E+00 -0.00000000000E+00 -0.45593999997E+02  0.45594000000E+02  0.51100000000E-03 0. -1.
    9900012    2    1    2    0    0  0.25600832808E+00 -0.24588842488E+00 -0.11256935009E+01  0.90007666471E+02  0.89999926868E+02 0.  0.
        -12    1    1    2    0    0 -0.25600832808E+00  0.24588842488E+00  0.11256935009E+01  0.11803335289E+01  0.00000000000E+00 0.  1.
         11    1    3    3    0    0  0.39826583704E+02  0.69103471393E+01  0.36872998667E+01  0.40589479520E+02  0.51100000000E-03 0. -1.
        -11    1    3    3    0    0  0.11764408632E+01 -0.81593894218E+01 -0.24065480725E+01  0.85878473861E+01  0.51100000000E-03 0.  1.
        -12    1    3    3    0    0 -0.40747016239E+02  0.10031538576E+01 -0.24064452950E+01  0.40830339565E+02  0.00000000000E+00 0.  1.
</event>
<event>
 7    1  0.5158441E-015  0.9000780E+02  0.7816164E-02  0.1186339E+00
        -11   -1    0    0    0    0  0.00000000000E+00  0.00000000000E+00  0.45593999997E+02  0.45594000000E+02  0.51100000000E-03 0.  1.
         11   -1    0    0    0    0 -0.00000000000E+00 -0.00000000000E+00 -0.45593999997E+02  0.45594000000E+02  0.51100000000E-03 0. -1.
    9900012    2    1    2    0    0 -0.56508494605E+00 -0.10289819862E+01  0.12142461772E+00  0.90007801346E+02  0.90000063524E+02 0.  0.
        -12    1    1    2    0    0  0.56508494605E+00  0.10289819862E+01 -0.12142461772E+00  0.11801986536E+01  0.00000000000E+00 0.  1.
         11    1    3    3    0    0 -0.99085372672E+00  0.52128423465E+01 -0.10812864785E+02  0.12044648669E+02  0.51100000000E-03 0. -1.
        -11    1    3    3    0    0 -0.30421728167E+02 -0.24125024405E+02  0.15912828738E+02  0.41960892101E+02  0.51100000000E-03 0.  1.
         12    1    3    3    0    0  0.30847496947E+02  0.17883200072E+02 -0.49785393356E+01  0.36002260577E+02  0.00000000000E+00 0. -1.
</event>
<event>
 7    1  0.5158441E-015  0.9000770E+02  0.7816164E-02  0.1186339E+00
        -11   -1    0    0    0    0  0.00000000000E+00  0.00000000000E+00  0.45593999997E+02  0.45594000000E+02  0.51100000000E-03 0. -1.
         11   -1    0    0    0    0 -0.00000000000E+00 -0.00000000000E+00 -0.45593999997E+02  0.45594000000E+02  0.51100000000E-03 0.  1.
    9900012    2    1    2    0    0 -0.12235704258E-01 -0.11710417638E+01  0.14706848270E+00  0.90007695944E+02  0.89999956731E+02 0.  0.
        -12    1    1    2    0    0  0.12235704258E-01  0.11710417638E+01 -0.14706848270E+00  0.11803040556E+01  0.00000000000E+00 0.  1.
         11    1    3    3    0    0  0.32019934665E+02 -0.86805775556E+01 -0.11652366336E+02  0.35162569362E+02  0.51100000000E-03 0. -1.
        -11    1    3    3    0    0  0.91512873379E+01  0.57009213884E+00 -0.42465818293E+01  0.10104678247E+02  0.51100000000E-03 0.  1.
        -12    1    3    3    0    0 -0.41183457707E+02  0.69394436529E+01  0.16046016648E+02  0.44740448335E+02  0.00000000000E+00 0.  1.
</event>
<event>
 7    1  0.5158441E-015  0.9000782E+02  0.7816164E-02  0.1186339E+00
        -11   -1    0    0    0    0  0.00000000000E+00  0.00000000000E+00  0.45593999997E+02  0.45594000000E+02  0.51100000000E-03 0.  1.
         11   -1    0    0    0    0 -0.00000000000E+00 -0.00000000000E+00 -0.45593999997E+02  0.45594000000E+02  0.51100000000E-03 0. -1.
    9900012    2    1    2    0    0  0.10821782024E+01 -0.34680952691E+00 -0.31847690067E+00  0.90007824570E+02  0.90000087054E+02 0.  0.
        -12    1    1    2    0    0 -0.10821782024E+01  0.34680952691E+00  0.31847690067E+00  0.11801754301E+01  0.00000000000E+00 0.  1.
         11    1    3    3    0    0  0.31352689049E+00  0.38122884711E+02  0.13223033051E+02  0.40352214823E+02  0.51100000000E-03 0. -1.
        -11    1    3    3    0    0 -0.84211603861E+01 -0.46088056285E+00 -0.43341602443E+01  0.94822623053E+01  0.51100000000E-03 0.  1.
        -12    1    3    3    0    0  0.91898116980E+01 -0.38008813675E+02 -0.92073497069E+01  0.40173347442E+02  0.00000000000E+00 0.  1.
</event>
<event>
 7    1  0.5158441E-015  0.9000775E+02  0.7816164E-02  0.1186339E+00
        -11   -1    0    0    0    0  0.00000000000E+00  0.00000000000E+00  0.45593999997E+02  0.45594000000E+02  0.51100000000E-03 0.  1.
         11   -1    0    0    0    0 -0.00000000000E+00 -0.00000000000E+00 -0.45593999997E+02  0.45594000000E+02  0.51100000000E-03 0. -1.
    9900012    2    1    2    0    0  0.88737065124E+00 -0.74506286277E+00  0.22458060064E+00  0.90007753505E+02  0.90000015052E+02 0.  0.
        -12    1    1    2    0    0 -0.88737065124E+00  0.74506286277E+00 -0.22458060064E+00  0.11802464947E+01  0.00000000000E+00 0.  1.
         11    1    3    3    0    0  0.20678949501E+02 -0.21036320912E+02 -0.24197030227E+02  0.38152876983E+02  0.51100000000E-03 0. -1.
        -11    1    3    3    0    0 -0.14626498543E+01 -0.89670990254E+01 -0.76665400565E+00  0.91178927474E+01  0.51100000000E-03 0.  1.
        -12    1    3    3    0    0 -0.18328928995E+02  0.29258357075E+02  0.25188264834E+02  0.42736983775E+02  0.00000000000E+00 0.  1.
</event>
<event>
 7    1  0.5158441E-015  0.9000777E+02  0.7816164E-02  0.1186339E+00
        -11   -1    0    0    0    0  0.00000000000E+00  0.00000000000E+00  0.45593999997E+02  0.45594000000E+02  0.51100000000E-03 0. -1.
         11   -1    0    0    0    0 -0.00000000000E+00 -0.00000000000E+00 -0.45593999997E+02  0.45594000000E+02  0.51100000000E-03 0.  1.
    9900012    2    1    2    0    0  0.11226151375E+01 -0.15828943366E-01 -0.36390028764E+00  0.90007771750E+02  0.90000033537E+02 0.  0.
        -12    1    1    2    0    0 -0.11226151375E+01  0.15828943366E-01  0.36390028764E+00  0.11802282498E+01  0.00000000000E+00 0.  1.
         11    1    3    3    0    0  0.22443836706E+02 -0.25288982219E+02 -0.87788325135E+00  0.33823499331E+02  0.51100000000E-03 0. -1.
        -11    1    3    3    0    0 -0.12479632080E+01 -0.11730531926E+02 -0.65576087563E+01  0.13496852385E+02  0.51100000000E-03 0.  1.
        -12    1    3    3    0    0 -0.20073258360E+02  0.37003685202E+02  0.70715917200E+01  0.42687420034E+02  0.00000000000E+00 0.  1.
</event>
<event>
 7    1  0.5158441E-015  0.9000759E+02  0.7816164E-02  0.1186339E+00
        -11   -1    0    0    0    0  0.00000000000E+00  0.00000000000E+00  0.45593999997E+02  0.45594000000E+02  0.51100000000E-03 0.  1.
         11   -1    0    0    0    0 -0.00000000000E+00 -0.00000000000E+00 -0.45593999997E+02  0.45594000000E+02  0.51100000000E-03 0. -1.
    9900012    2    1    2    0    0  0.95398348045E+00  0.49603604805E+00 -0.48706801851E+00  0.90007588421E+02  0.89999847788E+02 0.  0.
        -12    1    1    2    0    0 -0.95398348045E+00 -0.49603604805E+00  0.48706801851E+00  0.11804115793E+01  0.00000000000E+00 0.  1.
         11    1    3    3    0    0  0.98531541939E+01 -0.30533297573E+01  0.35856921129E+02  0.37311208280E+02  0.51100000000E-03 0. -1.
        -11    1    3    3    0    0  0.12681973328E+01 -0.11664872515E+02  0.30005498382E+00  0.11737444719E+02  0.51100000000E-03 0.  1.
        -12    1    3    3    0    0 -0.10167368046E+02  0.15214238320E+02 -0.36644044131E+02  0.40958935423E+02  0.00000000000E+00 0.  1.
</event>
<event>
 7    1  0.5158441E-015  0.9000788E+02  0.7816164E-02  0.1186339E+00
        -11   -1    0    0    0    0  0.00000000000E+00  0.00000000000E+00  0.45593999997E+02  0.45594000000E+02  0.51100000000E-03 0.  1.
         11   -1    0    0    0    0 -0.00000000000E+00 -0.00000000000E+00 -0.45593999997E+02  0.45594000000E+02  0.51100000000E-03 0. -1.
    9900012    2    1    2    0    0  0.10220231417E+01  0.48072333360E+00  0.34213572733E+00  0.90007880056E+02  0.90000143273E+02 0.  0.
        -12    1    1    2    0    0 -0.10220231417E+01 -0.48072333360E+00 -0.34213572733E+00  0.11801199437E+01  0.00000000000E+00 0.  1.
         11    1    3    3    0    0 -0.66081827612E+01 -0.85483365060E+01  0.11929344698E+02  0.16095073830E+02  0.51100000000E-03 0. -1.
        -11    1    3    3    0    0  0.69057821333E+01  0.11240000661E+02  0.29732490561E+02  0.32527656493E+02  0.51100000000E-03 0.  1.
         12    1    3    3    0    0  0.72442376962E+00 -0.22109408210E+01 -0.41319699531E+02  0.41385149733E+02  0.00000000000E+00 0. -1.
</event>
<event>
 7    1  0.5158441E-015  0.9000777E+02  0.7816164E-02  0.1186339E+00
        -11   -1    0    0    0    0  0.00000000000E+00  0.00000000000E+00  0.45593999997E+02  0.45594000000E+02  0.51100000000E-03 0. -1.
         11   -1    0    0    0    0 -0.00000000000E+00 -0.00000000000E+00 -0.45593999997E+02  0.45594000000E+02  0.51100000000E-03 0.  1.
    9900012    2    1    2    0    0 -0.52743079116E+00  0.50177351769E+00  0.92897502955E+00  0.90007765062E+02  0.90000026761E+02 0.  0.
        -12    1    1    2    0    0  0.52743079116E+00 -0.50177351769E+00 -0.92897502955E+00  0.11802349376E+01  0.00000000000E+00 0.  1.
         11    1    3    3    0    0 -0.25337137200E+01  0.43982918064E+01 -0.19855079094E+01  0.54504053013E+01  0.51100000000E-03 0. -1.
        -11    1    3    3    0    0  0.10237393950E+02 -0.23679400817E+02 -0.33514854604E+02  0.42293778943E+02  0.51100000000E-03 0.  1.
         12    1    3    3    0    0 -0.82311110212E+01  0.19782882528E+02  0.36429337543E+02  0.42263580818E+02  0.00000000000E+00 0. -1.
</event>
<event>
 7    1  0.5158441E-015  0.9000855E+02  0.7816164E-02  0.1186337E+00
        -11   -1    0    0    0    0  0.00000000000E+00  0.00000000000E+00  0.45593999997E+02  0.45594000000E+02  0.51100000000E-03 0.  1.
         11   -1    0    0    0    0 -0.00000000000E+00 -0.00000000000E+00 -0.45593999997E+02  0.45594000000E+02  0.51100000000E-03 0. -1.
    9900012    2    1    2    0    0 -0.16003269610E+00 -0.99584101178E+00  0.61137673943E+00  0.90008554663E+02  0.90000826781E+02 0.  0.
        -12    1    1    2    0    0  0.16003269610E+00  0.99584101178E+00 -0.61137673943E+00  0.11794453366E+01  0.00000000000E+00 0.  1.
         11    1    3    3    0    0 -0.15447668215E+01 -0.36626320302E+01  0.10704696371E+02  0.11418918626E+02  0.51100000000E-03 0. -1.
        -11    1    3    3    0    0 -0.20561347131E+02  0.32965856367E+02 -0.13237457389E+02  0.41045669202E+02  0.51100000000E-03 0.  1.
         12    1    3    3    0    0  0.21946081256E+02 -0.30299065349E+02  0.31441377571E+01  0.37543966836E+02  0.00000000000E+00 0. -1.
</event>
<event>
 7    1  0.5158441E-015  0.9000771E+02  0.7816164E-02  0.1186339E+00
        -11   -1    0    0    0    0  0.00000000000E+00  0.00000000000E+00  0.45593999997E+02  0.45594000000E+02  0.51100000000E-03 0.  1.
         11   -1    0    0    0    0 -0.00000000000E+00 -0.00000000000E+00 -0.45593999997E+02  0.45594000000E+02  0.51100000000E-03 0. -1.
    9900012    2    1    2    0    0 -0.69847503443E+00  0.92664705721E+00  0.21571698053E+00  0.90007713612E+02  0.89999974632E+02 0.  0.
        -12    1    1    2    0    0  0.69847503443E+00 -0.92664705721E+00 -0.21571698053E+00  0.11802863881E+01  0.00000000000E+00 0.  1.
         11    1    3    3    0    0 -0.70833351472E+01  0.44137401804E+00 -0.71783236736E+01  0.10094393437E+02  0.51100000000E-03 0. -1.
        -11    1    3    3    0    0  0.42163460791E+02  0.15319655825E+01 -0.39221851245E+01  0.42373197671E+02  0.51100000000E-03 0.  1.
         12    1    3    3    0    0 -0.35778600678E+02 -0.10466925433E+01  0.11316225779E+02  0.37540122504E+02  0.00000000000E+00 0. -1.
</event>
<event>
 7    1  0.5158441E-015  0.9000779E+02  0.7816164E-02  0.1186339E+00
        -11   -1    0    0    0    0  0.00000000000E+00  0.00000000000E+00  0.45593999997E+02  0.45594000000E+02  0.51100000000E-03 0.  1.
         11   -1    0    0    0    0 -0.00000000000E+00 -0.00000000000E+00 -0.45593999997E+02  0.45594000000E+02  0.51100000000E-03 0. -1.
    9900012    2    1    2    0    0  0.19806189085E+00  0.80765778515E+00 -0.83747248894E+00  0.90007788248E+02  0.90000050253E+02 0.  0.
        -12    1    1    2    0    0 -0.19806189085E+00 -0.80765778515E+00  0.83747248894E+00  0.11802117523E+01  0.00000000000E+00 0.  1.
         11    1    3    3    0    0  0.59242738842E+01 -0.28908589723E+02 -0.26935054732E+02  0.39953732674E+02  0.51100000000E-03 0. -1.
        -11    1    3    3    0    0  0.30025751133E+01  0.10088333941E+02 -0.54767282251E+01  0.11865264065E+02  0.51100000000E-03 0.  1.
        -12    1    3    3    0    0 -0.87287871067E+01  0.19627913568E+02  0.31574310469E+02  0.38188791509E+02  0.00000000000E+00 0.  1.
</event>
<event>
 7    1  0.5158441E-015  0.9000768E+02  0.7816164E-02  0.1186339E+00
        -11   -1    0    0    0    0  0.00000000000E+00  0.00000000000E+00  0.45593999997E+02  0.45594000000E+02  0.51100000000E-03 0.  1.
         11   -1    0    0    0    0 -0.00000000000E+00 -0.00000000000E+00 -0.45593999997E+02  0.45594000000E+02  0.51100000000E-03 0. -1.
    9900012    2    1    2    0    0 -0.63730748687E+00  0.99126168864E+00 -0.66230246031E-01  0.90007683511E+02  0.89999944134E+02 0.  0.
        -12    1    1    2    0    0  0.63730748687E+00 -0.99126168864E+00  0.66230246031E-01  0.11803164888E+01  0.00000000000E+00 0.  1.
         11    1    3    3    0    0 -0.24566442971E+00 -0.24972425611E+02 -0.32530445754E+02  0.41011124017E+02  0.51100000000E-03 0. -1.
        -11    1    3    3    0    0 -0.28037181926E+01  0.98532816794E+01 -0.23934825484E+01  0.10520302017E+02  0.51100000000E-03 0.  1.
        -12    1    3    3    0    0  0.24120751355E+01  0.16110405621E+02  0.34857698056E+02  0.38476257478E+02  0.00000000000E+00 0.  1.
</event>
<event>
 7    1  0.5158441E-015  0.9000771E+02  0.7816164E-02  0.1186339E+00
        -11   -1    0    0    0    0  0.00000000000E+00  0.00000000000E+00  0.45593999997E+02  0.45594000000E+02  0.51100000000E-03 0. -1.
         11   -1    0    0    0    0 -0.00000000000E+00 -0.00000000000E+00 -0.45593999997E+02  0.45594000000E+02  0.51100000000E-03 0.  1.
    9900012    2    1    2    0    0 -0.53726863764E+00 -0.62322739687E+00 -0.84617474710E+00  0.90007711188E+02  0.89999972176E+02 0.  0.
        -12    1    1    2    0    0  0.53726863764E+00  0.62322739687E+00  0.84617474710E+00  0.11802888120E+01  0.00000000000E+00 0.  1.
         11    1    3    3    0    0 -0.38280354563E+02  0.32121773640E+01 -0.31284261005E+01  0.38542063762E+02  0.51100000000E-03 0. -1.
        -11    1    3    3    0    0 -0.21405277037E+01  0.13964130568E+00  0.10358997621E+02  0.10578761294E+02  0.51100000000E-03 0.  1.
        -12    1    3    3    0    0  0.39883613629E+02 -0.39750460666E+01 -0.80767462672E+01  0.40886886133E+02  0.00000000000E+00 0.  1.
</event>
<event>
 7    1  0.5158441E-015  0.9000772E+02  0.7816164E-02  0.1186339E+00
        -11   -1    0    0    0    0  0.00000000000E+00  0.00000000000E+00  0.45593999997E+02  0.45594000000E+02  0.51100000000E-03 0.  1.
         11   -1    0    0    0    0 -0.00000000000E+00 -0.00000000000E+00 -0.45593999997E+02  0.45594000000E+02  0.51100000000E-03 0. -1.
    9900012    2    1    2    0    0  0.19098238065E+00  0.11502553477E+01 -0.18304108545E+00  0.90007717969E+02  0.89999979046E+02 0.  0.
        -12    1    1    2    0    0 -0.19098238065E+00 -0.11502553477E+01  0.18304108545E+00  0.11802820314E+01  0.00000000000E+00 0.  1.
         11    1    3    3    0    0 -0.70746370250E+01  0.36681808905E+02  0.13241070629E+02  0.39634978810E+02  0.51100000000E-03 0. -1.
        -11    1    3    3    0    0 -0.39758625047E+01  0.42597103714E+01 -0.59982523226E+01  0.83625143522E+01  0.51100000000E-03 0.  1.
        -12    1    3    3    0    0  0.11241481910E+02 -0.39791263929E+02 -0.74258593922E+01  0.42010224807E+02  0.00000000000E+00 0.  1.
</event>
<event>
 7    1  0.5158441E-015  0.9000759E+02  0.7816164E-02  0.1186339E+00
        -11   -1    0    0    0    0  0.00000000000E+00  0.00000000000E+00  0.45593999997E+02  0.45594000000E+02  0.51100000000E-03 0. -1.
         11   -1    0    0    0    0 -0.00000000000E+00 -0.00000000000E+00 -0.45593999997E+02  0.45594000000E+02  0.51100000000E-03 0.  1.
    9900012    2    1    2    0    0 -0.55414754958E+00  0.71508709082E-01  0.10397960863E+01  0.90007589519E+02  0.89999848901E+02 0.  0.
        -12    1    1    2    0    0  0.55414754958E+00 -0.71508709082E-01 -0.10397960863E+01  0.11804104808E+01  0.00000000000E+00 0.  1.
         11    1    3    3    0    0  0.57890863031E+01  0.23975984531E-01 -0.46513531019E+01  0.74262494580E+01  0.51100000000E-03 0. -1.
        -11    1    3    3    0    0 -0.28306476794E+02 -0.13466241159E+02 -0.26701570562E+02  0.41177301395E+02  0.51100000000E-03 0.  1.
         12    1    3    3    0    0  0.21963242941E+02  0.13513773883E+02  0.32392719750E+02  0.41404038666E+02  0.00000000000E+00 0. -1.
</event>
<event>
 7    1  0.5158441E-015  0.9000771E+02  0.7816164E-02  0.1186339E+00
        -11   -1    0    0    0    0  0.00000000000E+00  0.00000000000E+00  0.45593999997E+02  0.45594000000E+02  0.51100000000E-03 0. -1.
         11   -1    0    0    0    0 -0.00000000000E+00 -0.00000000000E+00 -0.45593999997E+02  0.45594000000E+02  0.51100000000E-03 0.  1.
    9900012    2    1    2    0    0  0.10250960157E+01 -0.17982696127E+00 -0.55671938605E+00  0.90007705099E+02  0.89999966007E+02 0.  0.
        -12    1    1    2    0    0 -0.10250960157E+01  0.17982696127E+00  0.55671938605E+00  0.11802949005E+01  0.00000000000E+00 0.  1.
         11    1    3    3    0    0  0.11194628352E+02 -0.13262216891E+02  0.30724297431E+02  0.35287229328E+02  0.51100000000E-03 0. -1.
        -11    1    3    3    0    0  0.53299428650E+01 -0.57339663932E+01  0.62155386800E+01  0.99959783356E+01  0.51100000000E-03 0.  1.
        -12    1    3    3    0    0 -0.15499475201E+02  0.18816356322E+02 -0.37496555497E+02  0.44724497436E+02  0.00000000000E+00 0.  1.
</event>
<event>
 7    1  0.5158441E-015  0.9000775E+02  0.7816164E-02  0.1186339E+00
        -11   -1    0    0    0    0  0.00000000000E+00  0.00000000000E+00  0.45593999997E+02  0.45594000000E+02  0.51100000000E-03 0.  1.
         11   -1    0    0    0    0 -0.00000000000E+00 -0.00000000000E+00 -0.45593999997E+02  0.45594000000E+02  0.51100000000E-03 0. -1.
    9900012    2    1    2    0    0  0.10011941699E+01  0.33312621853E+00  0.52880620200E+00  0.90007746280E+02  0.90000007731E+02 0.  0.
        -12    1    1    2    0    0 -0.10011941699E+01 -0.33312621853E+00 -0.52880620200E+00  0.11802537195E+01  0.00000000000E+00 0.  1.
         11    1    3    3    0    0  0.20377251463E+02 -0.14980338178E+02 -0.23057925676E+01  0.25396054590E+02  0.51100000000E-03 0. -1.
        -11    1    3    3    0    0  0.81146572218E+01 -0.17427193105E+02  0.93322047595E+01  0.21369248168E+02  0.51100000000E-03 0.  1.
         12    1    3    3    0    0 -0.27490714515E+02  0.32740657501E+02 -0.64976059899E+01  0.43242443522E+02  0.00000000000E+00 0. -1.
</event>
<event>
 7    1  0.5158441E-015  0.9000770E+02  0.7816164E-02  0.1186339E+00
        -11   -1    0    0    0    0  0.00000000000E+00  0.00000000000E+00  0.45593999997E+02  0.45594000000E+02  0.51100000000E-03 0. -1.
         11   -1    0    0    0    0 -0.00000000000E+00 -0.00000000000E+00 -0.45593999997E+02  0.45594000000E+02  0.51100000000E-03 0.  1.
    9900012    2    1    2    0    0  0.10668777275E+01  0.27753732718E+00  0.42173007585E+00  0.90007698636E+02  0.89999959458E+02 0.  0.
        -12    1    1    2    0    0 -0.10668777275E+01 -0.27753732718E+00 -0.42173007585E+00  0.11803013642E+01  0.00000000000E+00 0.  1.
         11    1    3    3    0    0  0.31273289237E+01 -0.50980015120E+01 -0.93280836132E+01  0.11080746806E+02  0.51100000000E-03 0. -1.
        -11    1    3    3    0    0 -0.26386363155E+02  0.22836888125E+02 -0.16961642587E+02  0.38800269836E+02  0.51100000000E-03 0.  1.
         12    1    3    3    0    0  0.24325911959E+02 -0.17461349286E+02  0.26711456276E+02  0.40126681995E+02  0.00000000000E+00 0. -1.
</event>
<event>
 7    1  0.5158441E-015  0.9000769E+02  0.7816164E-02  0.1186339E+00
        -11   -1    0    0    0    0  0.00000000000E+00  0.00000000000E+00  0.45593999997E+02  0.45594000000E+02  0.51100000000E-03 0.  1.
         11   -1    0    0    0    0 -0.00000000000E+00 -0.00000000000E+00 -0.45593999997E+02  0.45594000000E+02  0.51100000000E-03 0. -1.
    9900012    2    1    2    0    0  0.92000937704E-01  0.20497259435E+00 -0.11587292216E+01  0.90007690148E+02  0.89999950858E+02 0.  0.
        -12    1    1    2    0    0 -0.92000937704E-01 -0.20497259435E+00  0.11587292216E+01  0.11803098517E+01  0.00000000000E+00 0.  1.
         11    1    3    3    0    0  0.84718098672E+01 -0.45261139528E+01 -0.15922855882E+02  0.18595553491E+02  0.51100000000E-03 0. -1.
        -11    1    3    3    0    0 -0.12634725382E+02 -0.16271294994E+02 -0.21191854200E+02  0.29554796750E+02  0.51100000000E-03 0.  1.
        -12    1    3    3    0    0  0.42549164522E+01  0.21002381542E+02  0.35955980860E+02  0.41857339907E+02  0.00000000000E+00 0.  1.
</event>
<event>
 7    1  0.5158441E-015  0.9000760E+02  0.7816164E-02  0.1186339E+00
        -11   -1    0    0    0    0  0.00000000000E+00  0.00000000000E+00  0.45593999997E+02  0.45594000000E+02  0.51100000000E-03 0.  1.
         11   -1    0    0    0    0 -0.00000000000E+00 -0.00000000000E+00 -0.45593999997E+02  0.45594000000E+02  0.51100000000E-03 0. -1.
    9900012    2    1    2    0    0 -0.11734845095E+01 -0.76006670913E-01 -0.10251452617E+00  0.90007596621E+02  0.89999856097E+02 0.  0.
        -12    1    1    2    0    0  0.11734845095E+01  0.76006670913E-01  0.10251452617E+00  0.11804033785E+01  0.00000000000E+00 0.  1.
         11    1    3    3    0    0 -0.12620190645E+01  0.32314643854E+01  0.10208692496E+02  0.10782043264E+02  0.51100000000E-03 0. -1.
        -11    1    3    3    0    0 -0.78958167862E+01  0.32350065763E+02  0.13149427248E+02  0.35801928926E+02  0.51100000000E-03 0.  1.
         12    1    3    3    0    0  0.79843513413E+01 -0.35657536820E+02 -0.23460634271E+02  0.43423624432E+02  0.00000000000E+00 0. -1.
</event>
<event>
 7    1  0.5158441E-015  0.9000779E+02  0.7816164E-02  0.1186339E+00
        -11   -1    0    0    0    0  0.00000000000E+00  0.00000000000E+00  0.45593999997E+02  0.45594000000E+02  0.51100000000E-03 0.  1.
         11   -1    0    0    0    0 -0.00000000000E+00 -0.00000000000E+00 -0.45593999997E+02  0.45594000000E+02  0.51100000000E-03 0. -1.
    9900012    2    1    2    0    0  0.59729599457E+00  0.76791760043E-01 -0.10150102003E+01  0.90007785957E+02  0.90000047932E+02 0.  0.
        -12    1    1    2    0    0 -0.59729599457E+00 -0.76791760043E-01  0.10150102003E+01  0.11802140426E+01  0.00000000000E+00 0.  1.
         11    1    3    3    0    0  0.52464154217E+00  0.29024036805E+01  0.87783534868E+01  0.92605985807E+01  0.51100000000E-03 0. -1.
        -11    1    3    3    0    0  0.11706318677E+02  0.35521010610E+02  0.56051287953E+01  0.37817952891E+02  0.51100000000E-03 0.  1.
         12    1    3    3    0    0 -0.11633664225E+02 -0.38346622531E+02 -0.15398492482E+02  0.42929234486E+02  0.00000000000E+00 0. -1.
</event>
<event>
 7    1  0.5158441E-015  0.9000781E+02  0.7816164E-02  0.1186339E+00
        -11   -1    0    0    0    0  0.00000000000E+00  0.00000000000E+00  0.45593999997E+02  0.45594000000E+02  0.51100000000E-03 0.  1.
         11   -1    0    0    0    0 -0.00000000000E+00 -0.00000000000E+00 -0.45593999997E+02  0.45594000000E+02  0.51100000000E-03 0. -1.
    9900012    2    1    2    0    0  0.37691856141E+00  0.74812628444E+00 -0.83131108668E+00  0.90007814141E+02  0.90000076487E+02 0.  0.
        -12    1    1    2    0    0 -0.37691856141E+00 -0.74812628444E+00  0.83131108668E+00  0.11801858592E+01  0.00000000000E+00 0.  1.
         11    1    3    3    0    0 -0.16073708893E+02  0.36569930642E+02 -0.90633968934E+01  0.40961800598E+02  0.51100000000E-03 0. -1.
        -11    1    3    3    0    0  0.50193877126E+01 -0.48944223383E+00 -0.72341059740E+01  0.88185087296E+01  0.51100000000E-03 0.  1.
        -12    1    3    3    0    0  0.11431239742E+02 -0.35332362124E+02  0.15466191781E+02  0.40227504813E+02  0.00000000000E+00 0.  1.
</event>
<event>
 7    1  0.5158441E-015  0.9000772E+02  0.7816164E-02  0.1186339E+00
        -11   -1    0    0    0    0  0.00000000000E+00  0.00000000000E+00  0.45593999997E+02  0.45594000000E+02  0.51100000000E-03 0.  1.
         11   -1    0    0    0    0 -0.00000000000E+00 -0.00000000000E+00 -0.45593999997E+02  0.45594000000E+02  0.51100000000E-03 0. -1.
    9900012    2    1    2    0    0  0.40704345365E+00 -0.17326764581E+00 -0.10942415805E+01  0.90007715845E+02  0.89999976894E+02 0.  0.
        -12    1    1    2    0    0 -0.40704345365E+00  0.17326764581E+00  0.10942415805E+01  0.11802841551E+01  0.00000000000E+00 0.  1.
         11    1    3    3    0    0  0.23343292848E+02  0.20122316120E+02 -0.13800389428E+02  0.33767849734E+02  0.51100000000E-03 0. -1.
        -11    1    3    3    0    0  0.81864468720E+01 -0.19236084605E+01 -0.10376877033E+02  0.13356562399E+02  0.51100000000E-03 0.  1.
        -12    1    3    3    0    0 -0.31122696267E+02 -0.18371975306E+02  0.23083024881E+02  0.42883303711E+02  0.00000000000E+00 0.  1.
</event>
<event>
 7    1  0.5158441E-015  0.9000769E+02  0.7816164E-02  0.1186339E+00
        -11   -1    0    0    0    0  0.00000000000E+00  0.00000000000E+00  0.45593999997E+02  0.45594000000E+02  0.51100000000E-03 0. -1.
         11   -1    0    0    0    0 -0.00000000000E+00 -0.00000000000E+00 -0.45593999997E+02  0.45594000000E+02  0.51100000000E-03 0.  1.
    9900012    2    1    2    0    0  0.36082078281E+00  0.84758156482E+00 -0.73793669323E+00  0.90007687876E+02  0.89999948556E+02 0.  0.
        -12    1    1    2    0    0 -0.36082078281E+00 -0.84758156482E+00  0.73793669323E+00  0.11803121238E+01  0.00000000000E+00 0.  1.
         11    1    3    3    0    0 -0.16095090674E+00 -0.10335395441E+02  0.77004447549E+01  0.12889652974E+02  0.51100000000E-03 0. -1.
        -11    1    3    3    0    0  0.29050468200E+02 -0.18652028633E+02  0.18606046090E+01  0.34572962334E+02  0.51100000000E-03 0.  1.
         12    1    3    3    0    0 -0.28528696510E+02  0.29835005639E+02 -0.10298986057E+02  0.42545072568E+02  0.00000000000E+00 0. -1.
</event>
<event>
 7    1  0.5158441E-015  0.9000777E+02  0.7816164E-02  0.1186339E+00
        -11   -1    0    0    0    0  0.00000000000E+00  0.00000000000E+00  0.45593999997E+02  0.45594000000E+02  0.51100000000E-03 0.  1.
         11   -1    0    0    0    0 -0.00000000000E+00 -0.00000000000E+00 -0.45593999997E+02  0.45594000000E+02  0.51100000000E-03 0. -1.
    9900012    2    1    2    0    0  0.11640381590E+01  0.19328648424E+00 -0.24577111687E-01  0.90007767593E+02  0.90000029325E+02 0.  0.
        -12    1    1    2    0    0 -0.11640381590E+01 -0.19328648424E+00  0.24577111687E-01  0.11802324072E+01  0.00000000000E+00 0.  1.
         11    1    3    3    0    0  0.13146145299E+01 -0.51719106727E+01  0.68571551381E+01  0.86889267587E+01  0.51100000000E-03 0. -1.
        -11    1    3    3    0    0 -0.15691754885E+02 -0.27569615369E+02  0.18691055432E+02  0.36819429876E+02  0.51100000000E-03 0.  1.
         12    1    3    3    0    0  0.15541178514E+02  0.32934812526E+02 -0.25572787682E+02  0.44499410958E+02  0.00000000000E+00 0. -1.
</event>
<event>
 7    1  0.5158441E-015  0.9000777E+02  0.7816164E-02  0.1186339E+00
        -11   -1    0    0    0    0  0.00000000000E+00  0.00000000000E+00  0.45593999997E+02  0.45594000000E+02  0.51100000000E-03 0.  1.
         11   -1    0    0    0    0 -0.00000000000E+00 -0.00000000000E+00 -0.45593999997E+02  0.45594000000E+02  0.51100000000E-03 0. -1.
    9900012    2    1    2    0    0 -0.49387885364E+00  0.80411841250E+00 -0.70881916164E+00  0.90007768096E+02  0.90000029835E+02 0.  0.
        -12    1    1    2    0    0  0.49387885364E+00 -0.80411841250E+00  0.70881916164E+00  0.11802319040E+01  0.00000000000E+00 0.  1.
         11    1    3    3    0    0 -0.15459151329E+01  0.17922726029E+02 -0.30518250627E+02  0.35425662781E+02  0.51100000000E-03 0. -1.
        -11    1    3    3    0    0 -0.66011503903E+01  0.91659252929E+01  0.24101789509E+02  0.26617393388E+02  0.51100000000E-03 0.  1.
        -12    1    3    3    0    0  0.76531866697E+01 -0.26284532909E+02  0.57076419560E+01  0.27964711927E+02  0.00000000000E+00 0.  1.
</event>
<event>
 7    1  0.5158441E-015  0.9000774E+02  0.7816164E-02  0.1186339E+00
        -11   -1    0    0    0    0  0.00000000000E+00  0.00000000000E+00  0.45593999997E+02  0.45594000000E+02  0.51100000000E-03 0. -1.
         11   -1    0    0    0    0 -0.00000000000E+00 -0.00000000000E+00 -0.45593999997E+02  0.45594000000E+02  0.51100000000E-03 0.  1.
    9900012    2    1    2    0    0  0.10442146964E+01 -0.75958718597E-01  0.54484915877E+00  0.90007739578E+02  0.90000000940E+02 0.  0.
        -12    1    1    2    0    0 -0.10442146964E+01  0.75958718597E-01 -0.54484915877E+00  0.11802604225E+01  0.00000000000E+00 0.  1.
         11    1    3    3    0    0  0.74496780449E+01  0.14097928264E+01 -0.55827254494E+01  0.94155213605E+01  0.51100000000E-03 0. -1.
        -11    1    3    3    0    0  0.49958802901E+01 -0.24425315614E+02 -0.28277149996E+02  0.37698170710E+02  0.51100000000E-03 0.  1.
         12    1    3    3    0    0 -0.11401343639E+02  0.22939564069E+02  0.34404724604E+02  0.42894047507E+02  0.00000000000E+00 0. -1.
</event>
<event>
 7    1  0.5158441E-015  0.9000771E+02  0.7816164E-02  0.1186339E+00
        -11   -1    0    0    0    0  0.00000000000E+00  0.00000000000E+00  0.45593999997E+02  0.45594000000E+02  0.51100000000E-03 0. -1.
         11   -1    0    0    0    0 -0.00000000000E+00 -0.00000000000E+00 -0.45593999997E+02  0.45594000000E+02  0.51100000000E-03 0.  1.
    9900012    2    1    2    0    0  0.60696473719E+00  0.88216392807E+00  0.49644163753E+00  0.90007714574E+02  0.89999975606E+02 0.  0.
        -12    1    1    2    0    0 -0.60696473719E+00 -0.88216392807E+00 -0.49644163753E+00  0.11802854264E+01  0.00000000000E+00 0.  1.
         11    1    3    3    0    0  0.38800895588E+01  0.21990502552E+01 -0.84311395275E+01  0.95380831933E+01  0.51100000000E-03 0. -1.
        -11    1    3    3    0    0 -0.98683150576E+01  0.29214127332E+02 -0.20923115852E+02  0.37264267805E+02  0.51100000000E-03 0.  1.
         12    1    3    3    0    0  0.65951902360E+01 -0.30531013659E+02  0.29850697017E+02  0.43205363575E+02  0.00000000000E+00 0. -1.
</event>
<event>
 7    1  0.5158441E-015  0.9000774E+02  0.7816164E-02  0.1186339E+00
        -11   -1    0    0    0    0  0.00000000000E+00  0.00000000000E+00  0.45593999997E+02  0.45594000000E+02  0.51100000000E-03 0.  1.
         11   -1    0    0    0    0 -0.00000000000E+00 -0.00000000000E+00 -0.45593999997E+02  0.45594000000E+02  0.51100000000E-03 0. -1.
    9900012    2    1    2    0    0 -0.57572240316E+00  0.99095325880E+00  0.28209841951E+00  0.90007735553E+02  0.89999996862E+02 0.  0.
        -12    1    1    2    0    0  0.57572240316E+00 -0.99095325880E+00 -0.28209841951E+00  0.11802644470E+01  0.00000000000E+00 0.  1.
         11    1    3    3    0    0 -0.35161626675E+01 -0.56981650463E+01 -0.68308193830E+01  0.95651752991E+01  0.51100000000E-03 0. -1.
        -11    1    3    3    0    0  0.15375902412E+02 -0.24205143971E+02  0.28846912200E+02  0.40674951916E+02  0.51100000000E-03 0.  1.
         12    1    3    3    0    0 -0.12435462148E+02  0.30894262276E+02 -0.21733994398E+02  0.39767608338E+02  0.00000000000E+00 0. -1.
</event>
<event>
 7    1  0.5158441E-015  0.9000771E+02  0.7816164E-02  0.1186339E+00
        -11   -1    0    0    0    0  0.00000000000E+00  0.00000000000E+00  0.45593999997E+02  0.45594000000E+02  0.51100000000E-03 0.  1.
         11   -1    0    0    0    0 -0.00000000000E+00 -0.00000000000E+00 -0.45593999997E+02  0.45594000000E+02  0.51100000000E-03 0. -1.
    9900012    2    1    2    0    0  0.70238371706E-01  0.71590020921E+00 -0.93575781387E+00  0.90007707992E+02  0.89999968937E+02 0.  0.
        -12    1    1    2    0    0 -0.70238371706E-01 -0.71590020921E+00  0.93575781387E+00  0.11802920082E+01  0.00000000000E+00 0.  1.
         11    1    3    3    0    0 -0.31979353306E+01  0.10762192014E+01  0.35380799681E+01  0.48890743776E+01  0.51100000000E-03 0. -1.
        -11    1    3    3    0    0  0.30811584269E+02 -0.11224909711E+02  0.26579688830E+02  0.42211754071E+02  0.51100000000E-03 0.  1.
         12    1    3    3    0    0 -0.27543410567E+02  0.10864590718E+02 -0.31053526612E+02  0.42906879543E+02  0.00000000000E+00 0. -1.
</event>
<event>
 7    1  0.5158441E-015  0.9000788E+02  0.7816164E-02  0.1186339E+00
        -11   -1    0    0    0    0  0.00000000000E+00  0.00000000000E+00  0.45593999997E+02  0.45594000000E+02  0.51100000000E-03 0.  1.
         11   -1    0    0    0    0 -0.00000000000E+00 -0.00000000000E+00 -0.45593999997E+02  0.45594000000E+02  0.51100000000E-03 0. -1.
    9900012    2    1    2    0    0  0.30922291690E+00  0.27356529234E+00 -0.11055384175E+01  0.90007884762E+02  0.90000148041E+02 0.  0.
        -12    1    1    2    0    0 -0.30922291690E+00 -0.27356529234E+00  0.11055384175E+01  0.11801152376E+01  0.00000000000E+00 0.  1.
         11    1    3    3    0    0  0.91862351327E+00  0.11096923245E+02  0.11557810461E+02  0.16048942569E+02  0.51100000000E-03 0. -1.
        -11    1    3    3    0    0  0.18125566868E+02 -0.35903708747E+02 -0.80906242533E-01  0.40219634784E+02  0.51100000000E-03 0.  1.
         12    1    3    3    0    0 -0.18734967464E+02  0.25080350794E+02 -0.12582442636E+02  0.33739307410E+02  0.00000000000E+00 0. -1.
</event>
<event>
 7    1  0.5158441E-015  0.9000768E+02  0.7816164E-02  0.1186339E+00
        -11   -1    0    0    0    0  0.00000000000E+00  0.00000000000E+00  0.45593999997E+02  0.45594000000E+02  0.51100000000E-03 0.  1.
         11   -1    0    0    0    0 -0.00000000000E+00 -0.00000000000E+00 -0.45593999997E+02  0.45594000000E+02  0.51100000000E-03 0. -1.
    9900012    2    1    2    0    0  0.22198581748E+00 -0.98765075105E+00 -0.60697280390E+00  0.90007683223E+02  0.89999943842E+02 0.  0.
        -12    1    1    2    0    0 -0.22198581748E+00  0.98765075105E+00  0.60697280390E+00  0.11803167769E+01  0.00000000000E+00 0.  1.
         11    1    3    3    0    0 -0.49937641886E+01 -0.80235864112E+01  0.19517570894E+00  0.94527093199E+01  0.51100000000E-03 0. -1.
        -11    1    3    3    0    0 -0.10550503147E+02 -0.69978754963E+01  0.35982449248E+02  0.38144724829E+02  0.51100000000E-03 0.  1.
         12    1    3    3    0    0  0.15766253153E+02  0.14033811156E+02 -0.36784597761E+02  0.42410249074E+02  0.00000000000E+00 0. -1.
</event>
<event>
 7    1  0.5158441E-015  0.9000772E+02  0.7816164E-02  0.1186339E+00
        -11   -1    0    0    0    0  0.00000000000E+00  0.00000000000E+00  0.45593999997E+02  0.45594000000E+02  0.51100000000E-03 0.  1.
         11   -1    0    0    0    0 -0.00000000000E+00 -0.00000000000E+00 -0.45593999997E+02  0.45594000000E+02  0.51100000000E-03 0. -1.
    9900012    2    1    2    0    0 -0.37092950219E+00 -0.11183014303E+01  0.69757212923E-01  0.90007723400E+02  0.89999984549E+02 0.  0.
        -12    1    1    2    0    0  0.37092950219E+00  0.11183014303E+01 -0.69757212923E-01  0.11802766003E+01  0.00000000000E+00 0.  1.
         11    1    3    3    0    0 -0.64272779735E+01  0.33744770955E+01  0.19716598829E+02  0.21010503741E+02  0.51100000000E-03 0. -1.
        -11    1    3    3    0    0  0.10084289111E+02 -0.16954109092E+02  0.19487942618E+02  0.27729309579E+02  0.51100000000E-03 0.  1.
         12    1    3    3    0    0 -0.40279406392E+01  0.12461330566E+02 -0.39134784234E+02  0.41267910080E+02  0.00000000000E+00 0. -1.
</event>
<event>
 7    1  0.5158441E-015  0.9000774E+02  0.7816164E-02  0.1186339E+00
        -11   -1    0    0    0    0  0.00000000000E+00  0.00000000000E+00  0.45593999997E+02  0.45594000000E+02  0.51100000000E-03 0.  1.
         11   -1    0    0    0    0 -0.00000000000E+00 -0.00000000000E+00 -0.45593999997E+02  0.45594000000E+02  0.51100000000E-03 0. -1.
    9900012    2    1    2    0    0  0.11551961281E+01 -0.34863606526E-01  0.23941843425E+00  0.90007739541E+02  0.90000000903E+02 0.  0.
        -12    1    1    2    0    0 -0.11551961281E+01  0.34863606526E-01 -0.23941843425E+00  0.11802604594E+01  0.00000000000E+00 0.  1.
         11    1    3    3    0    0 -0.14390617942E+00 -0.10506741031E+02  0.13012704010E+01  0.10587994191E+02  0.51100000000E-03 0. -1.
        -11    1    3    3    0    0 -0.64643442210E+00  0.40301403233E+02 -0.18997218704E+02  0.44559121386E+02  0.51100000000E-03 0.  1.
         12    1    3    3    0    0  0.19455367296E+01 -0.29829525808E+02  0.17935366737E+02  0.34860623963E+02  0.00000000000E+00 0. -1.
</event>
<event>
 7    1  0.5158441E-015  0.9000808E+02  0.7816164E-02  0.1186338E+00
        -11   -1    0    0    0    0  0.00000000000E+00  0.00000000000E+00  0.45593999997E+02  0.45594000000E+02  0.51100000000E-03 0.  1.
         11   -1    0    0    0    0 -0.00000000000E+00 -0.00000000000E+00 -0.45593999997E+02  0.45594000000E+02  0.51100000000E-03 0. -1.
    9900012    2    1    2    0    0  0.23751507947E+00 -0.84878337817E+00 -0.78445097856E+00  0.90008080522E+02  0.90000346385E+02 0.  0.
        -12    1    1    2    0    0 -0.23751507947E+00  0.84878337817E+00  0.78445097856E+00  0.11799194777E+01  0.00000000000E+00 0.  1.
         11    1    3    3    0    0  0.67102688453E+01  0.27534228458E+01 -0.37471481103E+02  0.38167013790E+02  0.51100000000E-03 0. -1.
        -11    1    3    3    0    0  0.22706161460E+01  0.94634575076E+01 -0.21289733929E+01  0.99621912072E+01  0.51100000000E-03 0.  1.
        -12    1    3    3    0    0 -0.87433699119E+01 -0.13065663732E+02  0.38816003517E+02  0.41878875525E+02  0.00000000000E+00 0.  1.
</event>
<event>
 7    1  0.5158441E-015  0.9000775E+02  0.7816164E-02  0.1186339E+00
        -11   -1    0    0    0    0  0.00000000000E+00  0.00000000000E+00  0.45593999997E+02  0.45594000000E+02  0.51100000000E-03 0.  1.
         11   -1    0    0    0    0 -0.00000000000E+00 -0.00000000000E+00 -0.45593999997E+02  0.45594000000E+02  0.51100000000E-03 0. -1.
    9900012    2    1    2    0    0  0.39568337905E+00  0.10066775607E+01 -0.47224434878E+00  0.90007754359E+02  0.90000015917E+02 0.  0.
        -12    1    1    2    0    0 -0.39568337905E+00 -0.10066775607E+01  0.47224434878E+00  0.11802456408E+01  0.00000000000E+00 0.  1.
         11    1    3    3    0    0  0.11913690831E+02  0.27370872444E+02  0.22223935823E+02  0.37215642024E+02  0.51100000000E-03 0. -1.
        -11    1    3    3    0    0 -0.39380101012E+00  0.24875448672E+01  0.85013314624E+01  0.88665436105E+01  0.51100000000E-03 0.  1.
        -12    1    3    3    0    0 -0.11124206441E+02 -0.28851739750E+02 -0.31197511635E+02  0.43925568724E+02  0.00000000000E+00 0.  1.
</event>
<event>
 7    1  0.5158441E-015  0.9000775E+02  0.7816164E-02  0.1186339E+00
        -11   -1    0    0    0    0  0.00000000000E+00  0.00000000000E+00  0.45593999997E+02  0.45594000000E+02  0.51100000000E-03 0.  1.
         11   -1    0    0    0    0 -0.00000000000E+00 -0.00000000000E+00 -0.45593999997E+02  0.45594000000E+02  0.51100000000E-03 0. -1.
    9900012    2    1    2    0    0  0.69005648202E+00  0.95731275609E+00  0.19233674853E-01  0.90007747656E+02  0.90000009125E+02 0.  0.
        -12    1    1    2    0    0 -0.69005648202E+00 -0.95731275609E+00 -0.19233674853E-01  0.11802523440E+01  0.00000000000E+00 0.  1.
         11    1    3    3    0    0  0.23688336991E+02  0.63037078500E+01 -0.33133056287E+02  0.41214966471E+02  0.51100000000E-03 0. -1.
        -11    1    3    3    0    0  0.38492744758E+01 -0.30612346375E+01 -0.12694127547E+01  0.50793189011E+01  0.51100000000E-03 0.  1.
        -12    1    3    3    0    0 -0.26847554985E+02 -0.22851604564E+01  0.34421702716E+02  0.43713462284E+02  0.00000000000E+00 0.  1.
</event>
<event>
 7    1  0.5158441E-015  0.9000767E+02  0.7816164E-02  0.1186339E+00
        -11   -1    0    0    0    0  0.00000000000E+00  0.00000000000E+00  0.45593999997E+02  0.45594000000E+02  0.51100000000E-03 0.  1.
         11   -1    0    0    0    0 -0.00000000000E+00 -0.00000000000E+00 -0.45593999997E+02  0.45594000000E+02  0.51100000000E-03 0. -1.
    9900012    2    1    2    0    0  0.19225009501E+00 -0.11490201066E+01 -0.18967877507E+00  0.90007667275E+02  0.89999927683E+02 0.  0.
        -12    1    1    2    0    0 -0.19225009501E+00  0.11490201066E+01  0.18967877507E+00  0.11803327252E+01  0.00000000000E+00 0.  1.
         11    1    3    3    0    0  0.83586648093E+01  0.12883991788E+01  0.38478629175E+01  0.92915714027E+01  0.51100000000E-03 0. -1.
        -11    1    3    3    0    0 -0.47637975972E+01 -0.35258101981E+02  0.19132986222E+02  0.40396765772E+02  0.51100000000E-03 0.  1.
         12    1    3    3    0    0 -0.34026171171E+01  0.32820682695E+02 -0.23170527915E+02  0.40319330100E+02  0.00000000000E+00 0. -1.
</event>
<event>
 7    1  0.5158441E-015  0.9000734E+02  0.7816164E-02  0.1186340E+00
        -11   -1    0    0    0    0  0.00000000000E+00  0.00000000000E+00  0.45593999997E+02  0.45594000000E+02  0.51100000000E-03 0.  1.
         11   -1    0    0    0    0 -0.00000000000E+00 -0.00000000000E+00 -0.45593999997E+02  0.45594000000E+02  0.51100000000E-03 0. -1.
    9900012    2    1    2    0    0  0.10830135915E+01  0.32606182484E+00 -0.33870077552E+00  0.90007342146E+02  0.89999598261E+02 0.  0.
        -12    1    1    2    0    0 -0.10830135915E+01 -0.32606182484E+00  0.33870077552E+00  0.11806578540E+01  0.00000000000E+00 0.  1.
         11    1    3    3    0    0  0.57979602691E+01  0.23463148608E+01  0.61197995412E+01  0.87506276000E+01  0.51100000000E-03 0. -1.
        -11    1    3    3    0    0 -0.14437076773E+02 -0.30075491868E+02  0.22134029425E+02  0.40035979515E+02  0.51100000000E-03 0.  1.
         12    1    3    3    0    0  0.97221300957E+01  0.28055238832E+02 -0.28592529741E+02  0.41220735031E+02  0.00000000000E+00 0. -1.
</event>
<event>
 7    1  0.5158441E-015  0.9000786E+02  0.7816164E-02  0.1186339E+00
        -11   -1    0    0    0    0  0.00000000000E+00  0.00000000000E+00  0.45593999997E+02  0.45594000000E+02  0.51100000000E-03 0. -1.
         11   -1    0    0    0    0 -0.00000000000E+00 -0.00000000000E+00 -0.45593999997E+02  0.45594000000E+02  0.51100000000E-03 0.  1.
    9900012    2    1    2    0    0  0.43778012635E+00 -0.85223184105E+00 -0.68904155830E+00  0.90007860678E+02  0.90000123639E+02 0.  0.
        -12    1    1    2    0    0 -0.43778012635E+00  0.85223184105E+00  0.68904155830E+00  0.11801393219E+01  0.00000000000E+00 0.  1.
         11    1    3    3    0    0 -0.92434324093E+01  0.47978506716E+00 -0.49593461722E+01  0.10500778597E+02  0.51100000000E-03 0. -1.
        -11    1    3    3    0    0 -0.11792979696E+02  0.32240371910E+02 -0.12132990644E+02  0.36410512400E+02  0.51100000000E-03 0.  1.
         12    1    3    3    0    0  0.21474192232E+02 -0.33572388819E+02  0.16403295258E+02  0.43096569681E+02  0.00000000000E+00 0. -1.
</event>
<event>
 7    1  0.5158441E-015  0.9000777E+02  0.7816164E-02  0.1186339E+00
        -11   -1    0    0    0    0  0.00000000000E+00  0.00000000000E+00  0.45593999997E+02  0.45594000000E+02  0.51100000000E-03 0.  1.
         11   -1    0    0    0    0 -0.00000000000E+00 -0.00000000000E+00 -0.45593999997E+02  0.45594000000E+02  0.51100000000E-03 0. -1.
    9900012    2    1    2    0    0 -0.11682792394E+01 -0.47414352406E-02 -0.16745309606E+00  0.90007771462E+02  0.90000033245E+02 0.  0.
        -12    1    1    2    0    0  0.11682792394E+01  0.47414352406E-02  0.16745309606E+00  0.11802285379E+01  0.00000000000E+00 0.  1.
         11    1    3    3    0    0  0.30321765402E+01 -0.86187260518E+01  0.41008548300E+00  0.91457478475E+01  0.51100000000E-03 0. -1.
        -11    1    3    3    0    0  0.36607402865E+02 -0.55806344443E+01  0.47297365295E+01  0.37331164370E+02  0.51100000000E-03 0.  1.
         12    1    3    3    0    0 -0.40807858645E+02  0.14194619061E+02 -0.53072751086E+01  0.43530859244E+02  0.00000000000E+00 0. -1.
</event>
<event>
 7    1  0.5158441E-015  0.9000779E+02  0.7816164E-02  0.1186339E+00
        -11   -1    0    0    0    0  0.00000000000E+00  0.00000000000E+00  0.45593999997E+02  0.45594000000E+02  0.51100000000E-03 0.  1.
         11   -1    0    0    0    0 -0.00000000000E+00 -0.00000000000E+00 -0.45593999997E+02  0.45594000000E+02  0.51100000000E-03 0. -1.
    9900012    2    1    2    0    0  0.44400203040E+00  0.10914968245E+01 -0.66302770272E-01  0.90007788503E+02  0.90000050511E+02 0.  0.
        -12    1    1    2    0    0 -0.44400203040E+00 -0.10914968245E+01  0.66302770272E-01  0.11802114973E+01  0.00000000000E+00 0.  1.
         11    1    3    3    0    0  0.58712365962E+01 -0.38785946424E+01 -0.60435199701E+01  0.92757236623E+01  0.51100000000E-03 0. -1.
        -11    1    3    3    0    0  0.31520285549E+02 -0.43101623256E+01  0.22746906915E+02  0.39109176351E+02  0.51100000000E-03 0.  1.
         12    1    3    3    0    0 -0.36947520115E+02  0.92802537925E+01 -0.16769689715E+02  0.41622888490E+02  0.00000000000E+00 0. -1.
</event>
<event>
 7    1  0.5158441E-015  0.9000771E+02  0.7816164E-02  0.1186339E+00
        -11   -1    0    0    0    0  0.00000000000E+00  0.00000000000E+00  0.45593999997E+02  0.45594000000E+02  0.51100000000E-03 0. -1.
         11   -1    0    0    0    0 -0.00000000000E+00 -0.00000000000E+00 -0.45593999997E+02  0.45594000000E+02  0.51100000000E-03 0.  1.
    9900012    2    1    2    0    0 -0.10971978392E+01 -0.13456414026E+00  0.41369294887E+00  0.90007706620E+02  0.89999967548E+02 0.  0.
        -12    1    1    2    0    0  0.10971978392E+01  0.13456414026E+00 -0.41369294887E+00  0.11802933797E+01  0.00000000000E+00 0.  1.
         11    1    3    3    0    0 -0.41866542608E+01  0.15577389683E+01 -0.55212600019E+01  0.71020375149E+01  0.51100000000E-03 0. -1.
        -11    1    3    3    0    0  0.12958799981E+01 -0.21974729941E+02 -0.32591772432E+02  0.39329272704E+02  0.51100000000E-03 0.  1.
         12    1    3    3    0    0  0.17935764236E+01  0.20282426832E+02  0.38526725383E+02  0.43576396401E+02  0.00000000000E+00 0. -1.
</event>
<event>
 7    1  0.5158441E-015  0.9000804E+02  0.7816164E-02  0.1186338E+00
        -11   -1    0    0    0    0  0.00000000000E+00  0.00000000000E+00  0.45593999997E+02  0.45594000000E+02  0.51100000000E-03 0. -1.
         11   -1    0    0    0    0 -0.00000000000E+00 -0.00000000000E+00 -0.45593999997E+02  0.45594000000E+02  0.51100000000E-03 0.  1.
    9900012    2    1    2    0    0  0.96873762637E+00  0.40878903921E+00  0.53549158728E+00  0.90008037158E+02  0.90000302448E+02 0.  0.
        -12    1    1    2    0    0 -0.96873762637E+00 -0.40878903921E+00 -0.53549158728E+00  0.11799628415E+01  0.00000000000E+00 0.  1.
         11    1    3    3    0    0  0.18551293022E+02 -0.19592054585E+02  0.25888929228E+02  0.37392990419E+02  0.51100000000E-03 0. -1.
        -11    1    3    3    0    0 -0.67370237161E+01 -0.82816630572E+01  0.30370727375E+01  0.11099425328E+02  0.51100000000E-03 0.  1.
        -12    1    3    3    0    0 -0.10845531679E+02  0.28282506681E+02 -0.28390510379E+02  0.41515621411E+02  0.00000000000E+00 0.  1.
</event>
<event>
 7    1  0.5158441E-015  0.9000772E+02  0.7816164E-02  0.1186339E+00
        -11   -1    0    0    0    0  0.00000000000E+00  0.00000000000E+00  0.45593999997E+02  0.45594000000E+02  0.51100000000E-03 0.  1.
         11   -1    0    0    0    0 -0.00000000000E+00 -0.00000000000E+00 -0.45593999997E+02  0.45594000000E+02  0.51100000000E-03 0. -1.
    9900012    2    1    2    0    0 -0.75588345649E+00 -0.40816723292E+00 -0.80937978505E+00  0.90007722098E+02  0.89999983230E+02 0.  0.
        -12    1    1    2    0    0  0.75588345649E+00  0.40816723292E+00  0.80937978505E+00  0.11802779021E+01  0.00000000000E+00 0.  1.
         11    1    3    3    0    0 -0.13857328105E+02 -0.11379072046E+02 -0.38451869876E+02  0.42427056462E+02  0.51100000000E-03 0. -1.
        -11    1    3    3    0    0 -0.57766044582E+01  0.45499196701E+01  0.37421294670E+01  0.82507248942E+01  0.51100000000E-03 0.  1.
        -12    1    3    3    0    0  0.18878049107E+02  0.64209851431E+01  0.33900360624E+02  0.39329940741E+02  0.00000000000E+00 0.  1.
</event>
<event>
 7    1  0.5158441E-015  0.9000765E+02  0.7816164E-02  0.1186339E+00
        -11   -1    0    0    0    0  0.00000000000E+00  0.00000000000E+00  0.45593999997E+02  0.45594000000E+02  0.51100000000E-03 0. -1.
         11   -1    0    0    0    0 -0.00000000000E+00 -0.00000000000E+00 -0.45593999997E+02  0.45594000000E+02  0.51100000000E-03 0.  1.
    9900012    2    1    2    0    0  0.10926284486E+01  0.44650211827E+00  0.46396229004E-02  0.90007651495E+02  0.89999911694E+02 0.  0.
        -12    1    1    2    0    0 -0.10926284486E+01 -0.44650211827E+00 -0.46396229004E-02  0.11803485054E+01  0.00000000000E+00 0.  1.
         11    1    3    3    0    0 -0.72265248103E+01  0.13235073518E+02  0.38699470917E+02  0.41533587388E+02  0.51100000000E-03 0. -1.
        -11    1    3    3    0    0  0.45108423429E+01  0.71331833861E+01 -0.76499767447E+01  0.11390880050E+02  0.51100000000E-03 0.  1.
        -12    1    3    3    0    0  0.38083109160E+01 -0.19921754786E+02 -0.31044854549E+02  0.37083184056E+02  0.00000000000E+00 0.  1.
</event>
<event>
 7    1  0.5158441E-015  0.9000781E+02  0.7816164E-02  0.1186339E+00
        -11   -1    0    0    0    0  0.00000000000E+00  0.00000000000E+00  0.45593999997E+02  0.45594000000E+02  0.51100000000E-03 0. -1.
         11   -1    0    0    0    0 -0.00000000000E+00 -0.00000000000E+00 -0.45593999997E+02  0.45594000000E+02  0.51100000000E-03 0.  1.
    9900012    2    1    2    0    0  0.26303462323E+00  0.25819085226E+00  0.11211544544E+01  0.90007814828E+02  0.90000077184E+02 0.  0.
        -12    1    1    2    0    0 -0.26303462323E+00 -0.25819085226E+00 -0.11211544544E+01  0.11801851719E+01  0.00000000000E+00 0.  1.
         11    1    3    3    0    0 -0.33148711645E+02  0.27046761137E+02  0.60696417656E+01  0.43211166649E+02  0.51100000000E-03 0. -1.
        -11    1    3    3    0    0  0.11069224604E+02  0.69427204989E+00 -0.18278977252E+01  0.11240594173E+02  0.51100000000E-03 0.  1.
        -12    1    3    3    0    0  0.22342521664E+02 -0.27482842335E+02 -0.31205895859E+01  0.35556054006E+02  0.00000000000E+00 0.  1.
</event>
<event>
 7    1  0.5158441E-015  0.9000769E+02  0.7816164E-02  0.1186339E+00
        -11   -1    0    0    0    0  0.00000000000E+00  0.00000000000E+00  0.45593999997E+02  0.45594000000E+02  0.51100000000E-03 0.  1.
         11   -1    0    0    0    0 -0.00000000000E+00 -0.00000000000E+00 -0.45593999997E+02  0.45594000000E+02  0.51100000000E-03 0. -1.
    9900012    2    1    2    0    0 -0.25566414137E+00  0.11444570004E+01 -0.13408979325E+00  0.90007692391E+02  0.89999953131E+02 0.  0.
        -12    1    1    2    0    0  0.25566414137E+00 -0.11444570004E+01  0.13408979325E+00  0.11803076088E+01  0.00000000000E+00 0.  1.
         11    1    3    3    0    0  0.40002995362E+01 -0.15589065356E+01  0.83769916006E+01  0.94131065278E+01  0.51100000000E-03 0. -1.
        -11    1    3    3    0    0 -0.97708877549E+01 -0.12124601124E+02  0.32826794509E+02  0.36332831405E+02  0.51100000000E-03 0.  1.
         12    1    3    3    0    0  0.55149240774E+01  0.14827964660E+02 -0.41337875903E+02  0.44261754458E+02  0.00000000000E+00 0. -1.
</event>
<event>
 7    1  0.5158441E-015  0.9000777E+02  0.7816164E-02  0.1186339E+00
        -11   -1    0    0    0    0  0.00000000000E+00  0.00000000000E+00  0.45593999997E+02  0.45594000000E+02  0.51100000000E-03 0. -1.
         11   -1    0    0    0    0 -0.00000000000E+00 -0.00000000000E+00 -0.45593999997E+02  0.45594000000E+02  0.51100000000E-03 0.  1.
    9900012    2    1    2    0    0  0.54543589383E+00 -0.10367195637E+01  0.14371776470E+00  0.90007770122E+02  0.90000031888E+02 0.  0.
        -12    1    1    2    0    0 -0.54543589383E+00  0.10367195637E+01 -0.14371776470E+00  0.11802298775E+01  0.00000000000E+00 0.  1.
         11    1    3    3    0    0 -0.37439229867E+01  0.39198279656E+02 -0.50232363115E+01  0.39695780514E+02  0.51100000000E-03 0. -1.
        -11    1    3    3    0    0  0.40085241408E+01 -0.21205958137E+01 -0.86522998256E+01  0.97686992443E+01  0.51100000000E-03 0.  1.
        -12    1    3    3    0    0  0.28083473978E+00 -0.38114403406E+02  0.13819253902E+02  0.40543290364E+02  0.00000000000E+00 0.  1.
</event>
<event>
 7    1  0.5158441E-015  0.9000775E+02  0.7816164E-02  0.1186339E+00
        -11   -1    0    0    0    0  0.00000000000E+00  0.00000000000E+00  0.45593999997E+02  0.45594000000E+02  0.51100000000E-03 0.  1.
         11   -1    0    0    0    0 -0.00000000000E+00 -0.00000000000E+00 -0.45593999997E+02  0.45594000000E+02  0.51100000000E-03 0. -1.
    9900012    2    1    2    0    0 -0.11046006275E+00 -0.11507479541E+01 -0.23781886232E+00  0.90007754224E+02  0.90000015780E+02 0.  0.
        -12    1    1    2    0    0  0.11046006275E+00  0.11507479541E+01  0.23781886232E+00  0.11802457756E+01  0.00000000000E+00 0.  1.
         11    1    3    3    0    0  0.16531211272E+01 -0.77971425004E+01 -0.74810542031E+01  0.10931350003E+02  0.51100000000E-03 0. -1.
        -11    1    3    3    0    0  0.33167344790E+02  0.12067356961E+02  0.21086144903E+02  0.41113493790E+02  0.51100000000E-03 0.  1.
         12    1    3    3    0    0 -0.34930925980E+02 -0.54209624148E+01 -0.13842909563E+02  0.37962910432E+02  0.00000000000E+00 0. -1.
</event>
<event>
 7    1  0.5158441E-015  0.9000771E+02  0.7816164E-02  0.1186339E+00
        -11   -1    0    0    0    0  0.00000000000E+00  0.00000000000E+00  0.45593999997E+02  0.45594000000E+02  0.51100000000E-03 0.  1.
         11   -1    0    0    0    0 -0.00000000000E+00 -0.00000000000E+00 -0.45593999997E+02  0.45594000000E+02  0.51100000000E-03 0. -1.
    9900012    2    1    2    0    0 -0.11748601215E+01  0.63063133096E-01  0.93875768736E-01  0.90007709390E+02  0.89999970354E+02 0.  0.
        -12    1    1    2    0    0  0.11748601215E+01 -0.63063133096E-01 -0.93875768736E-01  0.11802906099E+01  0.00000000000E+00 0.  1.
         11    1    3    3    0    0 -0.15774789183E+01 -0.82385339804E+00 -0.73605913165E+01  0.75726797733E+01  0.51100000000E-03 0. -1.
        -11    1    3    3    0    0  0.16489526651E+02  0.32810741138E+02  0.23132664984E+02  0.43400108441E+02  0.51100000000E-03 0.  1.
         12    1    3    3    0    0 -0.16086907855E+02 -0.31923824606E+02 -0.15678197899E+02  0.39034921176E+02  0.00000000000E+00 0. -1.
</event>
<event>
 7    1  0.5158441E-015  0.9000772E+02  0.7816164E-02  0.1186339E+00
        -11   -1    0    0    0    0  0.00000000000E+00  0.00000000000E+00  0.45593999997E+02  0.45594000000E+02  0.51100000000E-03 0. -1.
         11   -1    0    0    0    0 -0.00000000000E+00 -0.00000000000E+00 -0.45593999997E+02  0.45594000000E+02  0.51100000000E-03 0.  1.
    9900012    2    1    2    0    0 -0.73978645761E+00 -0.77349438872E+00  0.49748400546E+00  0.90007717022E+02  0.89999978087E+02 0.  0.
        -12    1    1    2    0    0  0.73978645761E+00  0.77349438872E+00 -0.49748400546E+00  0.11802829779E+01  0.00000000000E+00 0.  1.
         11    1    3    3    0    0  0.81900062217E+01 -0.16768070534E+01 -0.41539438728E+01  0.93350486750E+01  0.51100000000E-03 0. -1.
        -11    1    3    3    0    0 -0.23590409784E+02 -0.17579489276E+02  0.32723360709E+02  0.44004138593E+02  0.51100000000E-03 0.  1.
         12    1    3    3    0    0  0.14660617105E+02  0.18482801941E+02 -0.28071932830E+02  0.36668529754E+02  0.00000000000E+00 0. -1.
</event>
<event>
 7    1  0.5158441E-015  0.9000782E+02  0.7816164E-02  0.1186339E+00
        -11   -1    0    0    0    0  0.00000000000E+00  0.00000000000E+00  0.45593999997E+02  0.45594000000E+02  0.51100000000E-03 0.  1.
         11   -1    0    0    0    0 -0.00000000000E+00 -0.00000000000E+00 -0.45593999997E+02  0.45594000000E+02  0.51100000000E-03 0. -1.
    9900012    2    1    2    0    0 -0.10187959233E+01  0.47045637383E+00 -0.36544858954E+00  0.90007819080E+02  0.90000081492E+02 0.  0.
        -12    1    1    2    0    0  0.10187959233E+01 -0.47045637383E+00  0.36544858954E+00  0.11801809203E+01  0.00000000000E+00 0.  1.
         11    1    3    3    0    0 -0.63540736563E+00 -0.47704646368E+01  0.69619017291E+01  0.84634006947E+01  0.51100000000E-03 0. -1.
        -11    1    3    3    0    0  0.26439672819E+02 -0.27678895832E+02 -0.78636599004E+01  0.39077035719E+02  0.51100000000E-03 0.  1.
         12    1    3    3    0    0 -0.26823061377E+02  0.32919816842E+02  0.53630958169E+00  0.42467382666E+02  0.00000000000E+00 0. -1.
</event>
<event>
 7    1  0.5158441E-015  0.9000775E+02  0.7816164E-02  0.1186339E+00
        -11   -1    0    0    0    0  0.00000000000E+00  0.00000000000E+00  0.45593999997E+02  0.45594000000E+02  0.51100000000E-03 0.  1.
         11   -1    0    0    0    0 -0.00000000000E+00 -0.00000000000E+00 -0.45593999997E+02  0.45594000000E+02  0.51100000000E-03 0. -1.
    9900012    2    1    2    0    0  0.91925286035E+00 -0.34679628147E+00 -0.65398439340E+00  0.90007750421E+02  0.90000011926E+02 0.  0.
        -12    1    1    2    0    0 -0.91925286035E+00  0.34679628147E+00  0.65398439340E+00  0.11802495791E+01  0.00000000000E+00 0.  1.
         11    1    3    3    0    0 -0.18412447691E+02  0.10002357890E+02 -0.22907879433E+02  0.31045713612E+02  0.51100000000E-03 0. -1.
        -11    1    3    3    0    0 -0.13464689133E+02 -0.34759575679E+01 -0.59866174492E+01  0.15140004069E+02  0.51100000000E-03 0.  1.
        -12    1    3    3    0    0  0.32796389684E+02 -0.68731966040E+01  0.28240512488E+02  0.43822032740E+02  0.00000000000E+00 0.  1.
</event>
<event>
 7    1  0.6183665E-015  0.9000782E+02  0.7816164E-02  0.1186339E+00
        -11   -1    0    0    0    0  0.00000000000E+00  0.00000000000E+00  0.45593999997E+02  0.45594000000E+02  0.51100000000E-03 0.  1.
         11   -1    0    0    0    0 -0.00000000000E+00 -0.00000000000E+00 -0.45593999997E+02  0.45594000000E+02  0.51100000000E-03 0. -1.
    9900012    2    1    2    0    0 -0.59682914808E+00 -0.23182163130E+00 -0.99139757284E+00  0.90007823976E+02  0.90000086452E+02 0.  0.
        -12    1    1    2    0    0  0.59682914808E+00  0.23182163130E+00  0.99139757284E+00  0.11801760242E+01  0.00000000000E+00 0.  1.
         11    1    3    3    0    0 -0.11457254867E+02 -0.28601398710E+02 -0.23775885974E+02  0.38917880869E+02  0.51100000000E-03 0. -1.
        -11    1    3    3    0    0 -0.84398304474E+01 -0.27333006213E+01  0.23913587728E+01  0.91880502452E+01  0.51100000000E-03 0.  1.
        -12    1    3    3    0    0  0.19300256166E+02  0.31102877700E+02  0.20393129628E+02  0.41901892861E+02  0.00000000000E+00 0.  1.
</event>
<event>
 7    1  0.5158441E-015  0.9000771E+02  0.7816164E-02  0.1186339E+00
        -11   -1    0    0    0    0  0.00000000000E+00  0.00000000000E+00  0.45593999997E+02  0.45594000000E+02  0.51100000000E-03 0. -1.
         11   -1    0    0    0    0 -0.00000000000E+00 -0.00000000000E+00 -0.45593999997E+02  0.45594000000E+02  0.51100000000E-03 0.  1.
    9900012    2    1    2    0    0  0.34175971772E+00  0.10133121196E+01 -0.49947656706E+00  0.90007712748E+02  0.89999973756E+02 0.  0.
        -12    1    1    2    0    0 -0.34175971772E+00 -0.10133121196E+01  0.49947656706E+00  0.11802872521E+01  0.00000000000E+00 0.  1.
         11    1    3    3    0    0  0.50252283041E+00  0.35277126927E+02  0.14342601966E+02  0.38084622157E+02  0.51100000000E-03 0. -1.
        -11    1    3    3    0    0  0.60039546280E+01  0.62937964586E+01 -0.18639385022E+01  0.88957075063E+01  0.51100000000E-03 0.  1.
        -12    1    3    3    0    0 -0.61647177407E+01 -0.40557611266E+02 -0.12978140031E+02  0.43027383084E+02  0.00000000000E+00 0.  1.
</event>
<event>
 7    1  0.5158441E-015  0.9000786E+02  0.7816164E-02  0.1186339E+00
        -11   -1    0    0    0    0  0.00000000000E+00  0.00000000000E+00  0.45593999997E+02  0.45594000000E+02  0.51100000000E-03 0. -1.
         11   -1    0    0    0    0 -0.00000000000E+00 -0.00000000000E+00 -0.45593999997E+02  0.45594000000E+02  0.51100000000E-03 0.  1.
    9900012    2    1    2    0    0 -0.80000909209E+00 -0.73528054790E+00 -0.46052313932E+00  0.90007858655E+02  0.90000121589E+02 0.  0.
        -12    1    1    2    0    0  0.80000909209E+00  0.73528054790E+00  0.46052313932E+00  0.11801413447E+01  0.00000000000E+00 0.  1.
         11    1    3    3    0    0  0.30723198997E+01 -0.20558605215E+00  0.82770007657E+01  0.88312036058E+01  0.51100000000E-03 0. -1.
        -11    1    3    3    0    0  0.31179380287E+02 -0.90376968554E+01 -0.25617052127E+02  0.41352957324E+02  0.51100000000E-03 0.  1.
         12    1    3    3    0    0 -0.35051709278E+02  0.85080023596E+01  0.16879528222E+02  0.39823697725E+02  0.00000000000E+00 0. -1.
</event>
<event>
 7    1  0.5158441E-015  0.9000775E+02  0.7816164E-02  0.1186339E+00
        -11   -1    0    0    0    0  0.00000000000E+00  0.00000000000E+00  0.45593999997E+02  0.45594000000E+02  0.51100000000E-03 0.  1.
         11   -1    0    0    0    0 -0.00000000000E+00 -0.00000000000E+00 -0.45593999997E+02  0.45594000000E+02  0.51100000000E-03 0. -1.
    9900012    2    1    2    0    0  0.38827769541E-01 -0.11119619786E+01 -0.39372500529E+00  0.90007751544E+02  0.90000013065E+02 0.  0.
        -12    1    1    2    0    0 -0.38827769541E-01  0.11119619786E+01  0.39372500529E+00  0.11802484557E+01  0.00000000000E+00 0.  1.
         11    1    3    3    0    0 -0.16313627711E+02  0.12089632011E+02 -0.30005169467E+02  0.36229875052E+02  0.51100000000E-03 0. -1.
        -11    1    3    3    0    0 -0.48499440690E+01  0.31366853179E+00 -0.75082872570E+01  0.89439769239E+01  0.51100000000E-03 0.  1.
        -12    1    3    3    0    0  0.21202399549E+02 -0.13515262521E+02  0.37119731719E+02  0.44833899569E+02  0.00000000000E+00 0.  1.
</event>
<event>
 7    1  0.5158441E-015  0.9000785E+02  0.7816164E-02  0.1186339E+00
        -11   -1    0    0    0    0  0.00000000000E+00  0.00000000000E+00  0.45593999997E+02  0.45594000000E+02  0.51100000000E-03 0.  1.
         11   -1    0    0    0    0 -0.00000000000E+00 -0.00000000000E+00 -0.45593999997E+02  0.45594000000E+02  0.51100000000E-03 0. -1.
    9900012    2    1    2    0    0  0.11089952901E+00  0.11749324987E+01  0.43080100769E-03  0.90007845236E+02  0.90000107993E+02 0.  0.
        -12    1    1    2    0    0 -0.11089952901E+00 -0.11749324987E+01 -0.43080100769E-03  0.11801547643E+01  0.00000000000E+00 0.  1.
         11    1    3    3    0    0 -0.10933212686E+01 -0.45181077343E+01 -0.66482522929E+01  0.81122073264E+01  0.51100000000E-03 0. -1.
        -11    1    3    3    0    0 -0.26032115750E+02 -0.27798273656E+02  0.70201284875E+01  0.38725925075E+02  0.51100000000E-03 0.  1.
         12    1    3    3    0    0  0.27236336547E+02  0.33491313889E+02 -0.37144539356E+00  0.43169712834E+02  0.00000000000E+00 0. -1.
</event>
<event>
 7    1  0.5158441E-015  0.9000773E+02  0.7816164E-02  0.1186339E+00
        -11   -1    0    0    0    0  0.00000000000E+00  0.00000000000E+00  0.45593999997E+02  0.45594000000E+02  0.51100000000E-03 0.  1.
         11   -1    0    0    0    0 -0.00000000000E+00 -0.00000000000E+00 -0.45593999997E+02  0.45594000000E+02  0.51100000000E-03 0. -1.
    9900012    2    1    2    0    0 -0.40660149104E+00  0.78349767384E+00 -0.78347955807E+00  0.90007731558E+02  0.89999992814E+02 0.  0.
        -12    1    1    2    0    0  0.40660149104E+00 -0.78349767384E+00  0.78347955807E+00  0.11802684421E+01  0.00000000000E+00 0.  1.
         11    1    3    3    0    0 -0.26386560172E+02 -0.70139901007E+01 -0.28879897218E+02  0.39742861981E+02  0.51100000000E-03 0. -1.
        -11    1    3    3    0    0 -0.65778935769E+01  0.49195752975E+01  0.20364601567E+01  0.84627463183E+01  0.51100000000E-03 0.  1.
        -12    1    3    3    0    0  0.32557852258E+02  0.28779124771E+01  0.26059957504E+02  0.41802123259E+02  0.00000000000E+00 0.  1.
</event>
<event>
 7    1  0.5158441E-015  0.9000777E+02  0.7816164E-02  0.1186339E+00
        -11   -1    0    0    0    0  0.00000000000E+00  0.00000000000E+00  0.45593999997E+02  0.45594000000E+02  0.51100000000E-03 0. -1.
         11   -1    0    0    0    0 -0.00000000000E+00 -0.00000000000E+00 -0.45593999997E+02  0.45594000000E+02  0.51100000000E-03 0.  1.
    9900012    2    1    2    0    0 -0.81146697254E+00  0.80132811639E+00  0.30388054468E+00  0.90007767488E+02  0.90000029219E+02 0.  0.
        -12    1    1    2    0    0  0.81146697254E+00 -0.80132811639E+00 -0.30388054468E+00  0.11802325123E+01  0.00000000000E+00 0.  1.
         11    1    3    3    0    0 -0.24267997665E+01 -0.13642569072E+02  0.16593496469E+02  0.21618352697E+02  0.51100000000E-03 0. -1.
        -11    1    3    3    0    0  0.67841525902E+01 -0.59151132210E+00  0.24068048798E+02  0.25012908372E+02  0.51100000000E-03 0.  1.
        -12    1    3    3    0    0 -0.51688197962E+01  0.15035408511E+02 -0.40357664723E+02  0.43376506418E+02  0.00000000000E+00 0.  1.
</event>
<event>
 7    1  0.5158441E-015  0.9000798E+02  0.7816164E-02  0.1186339E+00
        -11   -1    0    0    0    0  0.00000000000E+00  0.00000000000E+00  0.45593999997E+02  0.45594000000E+02  0.51100000000E-03 0. -1.
         11   -1    0    0    0    0 -0.00000000000E+00 -0.00000000000E+00 -0.45593999997E+02  0.45594000000E+02  0.51100000000E-03 0.  1.
    9900012    2    1    2    0    0  0.91659250307E-01  0.27535512023E+00  0.11437757759E+01  0.90007980981E+02  0.90000245529E+02 0.  0.
        -12    1    1    2    0    0 -0.91659250307E-01 -0.27535512023E+00 -0.11437757759E+01  0.11800190193E+01  0.00000000000E+00 0.  1.
         11    1    3    3    0    0 -0.56657527324E+01  0.10775308723E+02 -0.47762392859E+01  0.13077480418E+02  0.51100000000E-03 0. -1.
        -11    1    3    3    0    0  0.68282367196E+00 -0.17213644892E+01 -0.34859812503E+02  0.34908965494E+02  0.51100000000E-03 0.  1.
         12    1    3    3    0    0  0.50745883107E+01 -0.87785891137E+01  0.40779827564E+02  0.42021535069E+02  0.00000000000E+00 0. -1.
</event>
<event>
 7    1  0.5158441E-015  0.9000711E+02  0.7816164E-02  0.1186340E+00
        -11   -1    0    0    0    0  0.00000000000E+00  0.00000000000E+00  0.45593999997E+02  0.45594000000E+02  0.51100000000E-03 0.  1.
         11   -1    0    0    0    0 -0.00000000000E+00 -0.00000000000E+00 -0.45593999997E+02  0.45594000000E+02  0.51100000000E-03 0. -1.
    9900012    2    1    2    0    0  0.91221770244E+00 -0.55177677416E+00 -0.50784225760E+00  0.90007109445E+02  0.89999362487E+02 0.  0.
        -12    1    1    2    0    0 -0.91221770244E+00  0.55177677416E+00  0.50784225760E+00  0.11808905554E+01  0.00000000000E+00 0.  1.
         11    1    3    3    0    0  0.21930831866E+02 -0.73806216693E+01 -0.32139617589E+02  0.39602903701E+02  0.51100000000E-03 0. -1.
        -11    1    3    3    0    0 -0.65854982157E+01  0.75453522016E+01 -0.48770557952E+01  0.11139425483E+02  0.51100000000E-03 0.  1.
        -12    1    3    3    0    0 -0.14433115948E+02 -0.71650730650E+00  0.36508831127E+02  0.39264780260E+02  0.00000000000E+00 0.  1.
</event>
<event>
 7    1  0.5158441E-015  0.9000765E+02  0.7816164E-02  0.1186339E+00
        -11   -1    0    0    0    0  0.00000000000E+00  0.00000000000E+00  0.45593999997E+02  0.45594000000E+02  0.51100000000E-03 0. -1.
         11   -1    0    0    0    0 -0.00000000000E+00 -0.00000000000E+00 -0.45593999997E+02  0.45594000000E+02  0.51100000000E-03 0.  1.
    9900012    2    1    2    0    0 -0.11408659059E+01  0.28048705213E+00  0.11389594045E+00  0.90007652472E+02  0.89999912685E+02 0.  0.
        -12    1    1    2    0    0  0.11408659059E+01 -0.28048705213E+00 -0.11389594045E+00  0.11803475280E+01  0.00000000000E+00 0.  1.
         11    1    3    3    0    0  0.33504468862E+02  0.17890794689E+02 -0.13678815182E+02  0.40370037817E+02  0.51100000000E-03 0. -1.
        -11    1    3    3    0    0 -0.40964310299E+01  0.61588532665E+01  0.72957788891E+01  0.10389447079E+02  0.51100000000E-03 0.  1.
        -12    1    3    3    0    0 -0.30548903738E+02 -0.23769160904E+02  0.64969322332E+01  0.39248167576E+02  0.00000000000E+00 0.  1.
</event>
<event>
 7    1  0.5158441E-015  0.9000784E+02  0.7816164E-02  0.1186339E+00
        -11   -1    0    0    0    0  0.00000000000E+00  0.00000000000E+00  0.45593999997E+02  0.45594000000E+02  0.51100000000E-03 0.  1.
         11   -1    0    0    0    0 -0.00000000000E+00 -0.00000000000E+00 -0.45593999997E+02  0.45594000000E+02  0.51100000000E-03 0. -1.
    9900012    2    1    2    0    0 -0.99525529265E+00 -0.60497780285E+00 -0.19036591400E+00  0.90007843053E+02  0.90000105781E+02 0.  0.
        -12    1    1    2    0    0  0.99525529265E+00  0.60497780285E+00  0.19036591400E+00  0.11801569475E+01  0.00000000000E+00 0.  1.
         11    1    3    3    0    0 -0.20282620004E+02  0.18464359888E+02 -0.21885696565E+02  0.35089898471E+02  0.51100000000E-03 0. -1.
        -11    1    3    3    0    0 -0.54797670594E+01  0.93374976989E+01  0.11671972315E+02  0.15920164832E+02  0.51100000000E-03 0.  1.
        -12    1    3    3    0    0  0.24767131771E+02 -0.28406835390E+02  0.10023358337E+02  0.38997779749E+02  0.00000000000E+00 0.  1.
</event>
<event>
 7    1  0.5158441E-015  0.9000806E+02  0.7816164E-02  0.1186338E+00
        -11   -1    0    0    0    0  0.00000000000E+00  0.00000000000E+00  0.45593999997E+02  0.45594000000E+02  0.51100000000E-03 0.  1.
         11   -1    0    0    0    0 -0.00000000000E+00 -0.00000000000E+00 -0.45593999997E+02  0.45594000000E+02  0.51100000000E-03 0. -1.
    9900012    2    1    2    0    0  0.41038610407E+00 -0.36409362103E+00 -0.10446380917E+01  0.90008063704E+02  0.90000329345E+02 0.  0.
        -12    1    1    2    0    0 -0.41038610407E+00  0.36409362103E+00  0.10446380917E+01  0.11799362957E+01  0.00000000000E+00 0.  1.
         11    1    3    3    0    0  0.67796525460E+01 -0.15970373936E+02 -0.31422373703E+02  0.35894039918E+02  0.51100000000E-03 0. -1.
        -11    1    3    3    0    0 -0.36387973248E+01  0.98721272665E+00 -0.10211883773E+02  0.10885678913E+02  0.51100000000E-03 0.  1.
        -12    1    3    3    0    0 -0.27304691171E+01  0.14619067588E+02  0.40589619384E+02  0.43228344873E+02  0.00000000000E+00 0.  1.
</event>
<event>
 7    1  0.5158441E-015  0.9000773E+02  0.7816164E-02  0.1186339E+00
        -11   -1    0    0    0    0  0.00000000000E+00  0.00000000000E+00  0.45593999997E+02  0.45594000000E+02  0.51100000000E-03 0.  1.
         11   -1    0    0    0    0 -0.00000000000E+00 -0.00000000000E+00 -0.45593999997E+02  0.45594000000E+02  0.51100000000E-03 0. -1.
    9900012    2    1    2    0    0  0.28999971342E+00 -0.10587408735E+01 -0.43358600197E+00  0.90007733550E+02  0.89999994833E+02 0.  0.
        -12    1    1    2    0    0 -0.28999971342E+00  0.10587408735E+01  0.43358600197E+00  0.11802664496E+01  0.00000000000E+00 0.  1.
         11    1    3    3    0    0 -0.16533519919E+02  0.29711426124E+02  0.16046567301E+02  0.37598117581E+02  0.51100000000E-03 0. -1.
        -11    1    3    3    0    0 -0.22201057106E+01 -0.54613929729E+01  0.96772586277E+01  0.11331593770E+02  0.51100000000E-03 0.  1.
        -12    1    3    3    0    0  0.19043625343E+02 -0.25308774025E+02 -0.26157411931E+02  0.41078022199E+02  0.00000000000E+00 0.  1.
</event>
<event>
 7    1  0.5158441E-015  0.9000775E+02  0.7816164E-02  0.1186339E+00
        -11   -1    0    0    0    0  0.00000000000E+00  0.00000000000E+00  0.45593999997E+02  0.45594000000E+02  0.51100000000E-03 0.  1.
         11   -1    0    0    0    0 -0.00000000000E+00 -0.00000000000E+00 -0.45593999997E+02  0.45594000000E+02  0.51100000000E-03 0. -1.
    9900012    2    1    2    0    0  0.10183545109E+01 -0.58472199651E+00  0.11848748122E+00  0.90007752142E+02  0.90000013670E+02 0.  0.
        -12    1    1    2    0    0 -0.10183545109E+01  0.58472199651E+00 -0.11848748122E+00  0.11802478580E+01  0.00000000000E+00 0.  1.
         11    1    3    3    0    0 -0.56609048236E+01 -0.23033193605E+01 -0.99408708089E+01  0.11669277450E+02  0.51100000000E-03 0. -1.
        -11    1    3    3    0    0 -0.25419097696E+02 -0.21881959589E+02 -0.81764774056E+01  0.34522535628E+02  0.51100000000E-03 0.  1.
         12    1    3    3    0    0  0.32098357031E+02  0.23600556953E+02  0.18235835696E+02  0.43815939064E+02  0.00000000000E+00 0. -1.
</event>
<event>
 7    1  0.5158441E-015  0.9000777E+02  0.7816164E-02  0.1186339E+00
        -11   -1    0    0    0    0  0.00000000000E+00  0.00000000000E+00  0.45593999997E+02  0.45594000000E+02  0.51100000000E-03 0.  1.
         11   -1    0    0    0    0 -0.00000000000E+00 -0.00000000000E+00 -0.45593999997E+02  0.45594000000E+02  0.51100000000E-03 0. -1.
    9900012    2    1    2    0    0 -0.62000641163E+00 -0.59474192525E+00  0.80920193643E+00  0.90007773885E+02  0.90000035700E+02 0.  0.
        -12    1    1    2    0    0  0.62000641163E+00  0.59474192525E+00 -0.80920193643E+00  0.11802261148E+01  0.00000000000E+00 0.  1.
         11    1    3    3    0    0 -0.18503428333E+01 -0.73456905578E+01  0.54787264061E+01  0.93487636437E+01  0.51100000000E-03 0. -1.
        -11    1    3    3    0    0  0.29694759774E+01  0.20151865924E+02  0.34034157434E+02  0.39664081488E+02  0.51100000000E-03 0.  1.
         12    1    3    3    0    0 -0.17391395557E+01 -0.13400917291E+02 -0.38703681903E+02  0.40994928754E+02  0.00000000000E+00 0. -1.
</event>
<event>
 7    1  0.5158441E-015  0.9000773E+02  0.7816164E-02  0.1186339E+00
        -11   -1    0    0    0    0  0.00000000000E+00  0.00000000000E+00  0.45593999997E+02  0.45594000000E+02  0.51100000000E-03 0. -1.
         11   -1    0    0    0    0 -0.00000000000E+00 -0.00000000000E+00 -0.45593999997E+02  0.45594000000E+02  0.51100000000E-03 0.  1.
    9900012    2    1    2    0    0  0.11083271453E+01  0.33047766634E+00  0.23543854022E+00  0.90007730601E+02  0.89999991845E+02 0.  0.
        -12    1    1    2    0    0 -0.11083271453E+01 -0.33047766634E+00 -0.23543854022E+00  0.11802693994E+01  0.00000000000E+00 0.  1.
         11    1    3    3    0    0  0.44227907970E+01 -0.13582482010E+01 -0.77861846835E+01  0.90570739644E+01  0.51100000000E-03 0. -1.
        -11    1    3    3    0    0  0.17380500657E+02  0.30688725698E+02 -0.15220391531E+02  0.38412758384E+02  0.51100000000E-03 0.  1.
         12    1    3    3    0    0 -0.20694964308E+02 -0.28999999830E+02  0.23242014755E+02  0.42537898253E+02  0.00000000000E+00 0. -1.
</event>
<event>
 7    1  0.5158441E-015  0.9000767E+02  0.7816164E-02  0.1186339E+00
        -11   -1    0    0    0    0  0.00000000000E+00  0.00000000000E+00  0.45593999997E+02  0.45594000000E+02  0.51100000000E-03 0.  1.
         11   -1    0    0    0    0 -0.00000000000E+00 -0.00000000000E+00 -0.45593999997E+02  0.45594000000E+02  0.51100000000E-03 0. -1.
    9900012    2    1    2    0    0 -0.11816080889E+00  0.10091978585E+01 -0.60061531832E+00  0.90007669091E+02  0.89999929523E+02 0.  0.
        -12    1    1    2    0    0  0.11816080889E+00 -0.10091978585E+01  0.60061531832E+00  0.11803309091E+01  0.00000000000E+00 0.  1.
         11    1    3    3    0    0  0.87685070054E+01 -0.48172912875E+01  0.86848036993E+00  0.10042274088E+02  0.51100000000E-03 0. -1.
        -11    1    3    3    0    0  0.80074034636E+00  0.27420865543E+02  0.29959602371E+02  0.40621703888E+02  0.51100000000E-03 0.  1.
         12    1    3    3    0    0 -0.96874081607E+01 -0.21594376397E+02 -0.31428698059E+02  0.39343691115E+02  0.00000000000E+00 0. -1.
</event>
<event>
 7    1  0.5158441E-015  0.9000770E+02  0.7816164E-02  0.1186339E+00
        -11   -1    0    0    0    0  0.00000000000E+00  0.00000000000E+00  0.45593999997E+02  0.45594000000E+02  0.51100000000E-03 0.  1.
         11   -1    0    0    0    0 -0.00000000000E+00 -0.00000000000E+00 -0.45593999997E+02  0.45594000000E+02  0.51100000000E-03 0. -1.
    9900012    2    1    2    0    0  0.76083820117E+00  0.36488517501E+00 -0.82528042866E+00  0.90007701841E+02  0.89999962705E+02 0.  0.
        -12    1    1    2    0    0 -0.76083820117E+00 -0.36488517501E+00  0.82528042866E+00  0.11802981595E+01  0.00000000000E+00 0.  1.
         11    1    3    3    0    0  0.94345397577E+01 -0.22399873073E+01  0.78996339145E+00  0.97289324182E+01  0.51100000000E-03 0. -1.
        -11    1    3    3    0    0  0.25212794922E+02  0.48523535567E+00  0.26216880323E+02  0.36376438738E+02  0.51100000000E-03 0.  1.
         12    1    3    3    0    0 -0.33886496479E+02  0.21196371267E+01 -0.27832124143E+02  0.43902330684E+02  0.00000000000E+00 0. -1.
</event>
<event>
 7    1  0.5400447E-015  0.9000767E+02  0.7816164E-02  0.1186339E+00
        -11   -1    0    0    0    0  0.00000000000E+00  0.00000000000E+00  0.45593999997E+02  0.45594000000E+02  0.51100000000E-03 0.  1.
         11   -1    0    0    0    0 -0.00000000000E+00 -0.00000000000E+00 -0.45593999997E+02  0.45594000000E+02  0.51100000000E-03 0. -1.
    9900012    2    1    2    0    0 -0.16269700299E+00  0.86807385867E+00  0.78304596823E+00  0.90007668044E+02  0.89999928462E+02 0.  0.
        -12    1    1    2    0    0  0.16269700299E+00 -0.86807385867E+00 -0.78304596823E+00  0.11803319564E+01  0.00000000000E+00 0.  1.
         11    1    3    3    0    0  0.32169297801E+02 -0.16790518530E+02 -0.15580731565E+01  0.36320969505E+02  0.51100000000E-03 0. -1.
        -11    1    3    3    0    0  0.46421024143E+01 -0.70345699099E+01  0.36993815032E+01  0.92043311766E+01  0.51100000000E-03 0.  1.
        -12    1    3    3    0    0 -0.36974097219E+02  0.24693162299E+02 -0.13582623785E+01  0.44482367362E+02  0.00000000000E+00 0.  1.
</event>
<event>
 7    1  0.5158441E-015  0.9000787E+02  0.7816164E-02  0.1186339E+00
        -11   -1    0    0    0    0  0.00000000000E+00  0.00000000000E+00  0.45593999997E+02  0.45594000000E+02  0.51100000000E-03 0. -1.
         11   -1    0    0    0    0 -0.00000000000E+00 -0.00000000000E+00 -0.45593999997E+02  0.45594000000E+02  0.51100000000E-03 0.  1.
    9900012    2    1    2    0    0 -0.23377790124E+00 -0.11334424575E+01 -0.23098907045E+00  0.90007872947E+02  0.90000136069E+02 0.  0.
        -12    1    1    2    0    0  0.23377790124E+00  0.11334424575E+01  0.23098907045E+00  0.11801270535E+01  0.00000000000E+00 0.  1.
         11    1    3    3    0    0  0.35860452461E+01  0.26604998409E+02  0.27425588859E+02  0.38377709486E+02  0.51100000000E-03 0. -1.
        -11    1    3    3    0    0  0.81658993732E+01  0.44134538381E+01 -0.56647608865E+01  0.10874281747E+02  0.51100000000E-03 0.  1.
        -12    1    3    3    0    0 -0.11985722521E+02 -0.32151894704E+02 -0.21991817043E+02  0.40755881714E+02  0.00000000000E+00 0.  1.
</event>
<event>
 7    1  0.5158441E-015  0.9000774E+02  0.7816164E-02  0.1186339E+00
        -11   -1    0    0    0    0  0.00000000000E+00  0.00000000000E+00  0.45593999997E+02  0.45594000000E+02  0.51100000000E-03 0. -1.
         11   -1    0    0    0    0 -0.00000000000E+00 -0.00000000000E+00 -0.45593999997E+02  0.45594000000E+02  0.51100000000E-03 0.  1.
    9900012    2    1    2    0    0  0.26937845774E-01 -0.11316232745E+01 -0.33423087611E+00  0.90007742756E+02  0.90000004161E+02 0.  0.
        -12    1    1    2    0    0 -0.26937845774E-01  0.11316232745E+01  0.33423087611E+00  0.11802572438E+01  0.00000000000E+00 0.  1.
         11    1    3    3    0    0  0.32621317778E+02  0.23097671092E+02  0.97413950632E+01  0.41140582902E+02  0.51100000000E-03 0. -1.
        -11    1    3    3    0    0  0.16146544449E+01 -0.27515313596E+01 -0.77809076189E+01  0.84095515597E+01  0.51100000000E-03 0.  1.
        -12    1    3    3    0    0 -0.34209034377E+02 -0.21477763007E+02 -0.22947183204E+01  0.40457608295E+02  0.00000000000E+00 0.  1.
</event>
<event>
 7    1  0.5158441E-015  0.9000781E+02  0.7816164E-02  0.1186339E+00
        -11   -1    0    0    0    0  0.00000000000E+00  0.00000000000E+00  0.45593999997E+02  0.45594000000E+02  0.51100000000E-03 0. -1.
         11   -1    0    0    0    0 -0.00000000000E+00 -0.00000000000E+00 -0.45593999997E+02  0.45594000000E+02  0.51100000000E-03 0.  1.
    9900012    2    1    2    0    0 -0.97473010580E+00  0.57309275574E+00 -0.33812088972E+00  0.90007805176E+02  0.90000067405E+02 0.  0.
        -12    1    1    2    0    0  0.97473010580E+00 -0.57309275574E+00  0.33812088972E+00  0.11801948237E+01  0.00000000000E+00 0.  1.
         11    1    3    3    0    0  0.35080355336E+00  0.95366802544E+01 -0.36316681302E+01  0.10210795614E+02  0.51100000000E-03 0. -1.
        -11    1    3    3    0    0 -0.82471188486E+01 -0.22314243678E+02 -0.32902159907E+02  0.40601632566E+02  0.51100000000E-03 0.  1.
         12    1    3    3    0    0  0.69215851895E+01  0.13350656180E+02  0.36195707147E+02  0.39195376996E+02  0.00000000000E+00 0. -1.
</event>
<event>
 7    1  0.5158441E-015  0.9000776E+02  0.7816164E-02  0.1186339E+00
        -11   -1    0    0    0    0  0.00000000000E+00  0.00000000000E+00  0.45593999997E+02  0.45594000000E+02  0.51100000000E-03 0. -1.
         11   -1    0    0    0    0 -0.00000000000E+00 -0.00000000000E+00 -0.45593999997E+02  0.45594000000E+02  0.51100000000E-03 0.  1.
    9900012    2    1    2    0    0  0.77982409818E+00 -0.87097574735E+00  0.16199012039E+00  0.90007760543E+02  0.90000022182E+02 0.  0.
        -12    1    1    2    0    0 -0.77982409818E+00  0.87097574735E+00 -0.16199012039E+00  0.11802394569E+01  0.00000000000E+00 0.  1.
         11    1    3    3    0    0 -0.76151951671E+01  0.36651230852E+02  0.13472013549E+02  0.39784407370E+02  0.51100000000E-03 0. -1.
        -11    1    3    3    0    0  0.10368467051E+02 -0.31583174375E+00  0.74935603411E+00  0.10400307371E+02  0.51100000000E-03 0.  1.
        -12    1    3    3    0    0 -0.19734477862E+01 -0.37206374856E+02 -0.14059379463E+02  0.39823045802E+02  0.00000000000E+00 0.  1.
</event>
<event>
 7    1  0.5158441E-015  0.9000787E+02  0.7816164E-02  0.1186339E+00
        -11   -1    0    0    0    0  0.00000000000E+00  0.00000000000E+00  0.45593999997E+02  0.45594000000E+02  0.51100000000E-03 0. -1.
         11   -1    0    0    0    0 -0.00000000000E+00 -0.00000000000E+00 -0.45593999997E+02  0.45594000000E+02  0.51100000000E-03 0.  1.
    9900012    2    1    2    0    0  0.83158686103E+00 -0.83628007382E+00 -0.42385367024E-01  0.90007873910E+02  0.90000137045E+02 0.  0.
        -12    1    1    2    0    0 -0.83158686103E+00  0.83628007382E+00  0.42385367024E-01  0.11801260901E+01  0.00000000000E+00 0.  1.
         11    1    3    3    0    0  0.89521943077E+01 -0.39276873239E+01 -0.40039183591E+01  0.10564084112E+02  0.51100000000E-03 0. -1.
        -11    1    3    3    0    0 -0.22180871467E+02 -0.17988102891E+02 -0.27092134073E+02  0.39364281189E+02  0.51100000000E-03 0.  1.
         12    1    3    3    0    0  0.14060264020E+02  0.21079510141E+02  0.31053667065E+02  0.40079508609E+02  0.00000000000E+00 0. -1.
</event>
<event>
 7    1  0.5158441E-015  0.9000775E+02  0.7816164E-02  0.1186339E+00
        -11   -1    0    0    0    0  0.00000000000E+00  0.00000000000E+00  0.45593999997E+02  0.45594000000E+02  0.51100000000E-03 0. -1.
         11   -1    0    0    0    0 -0.00000000000E+00 -0.00000000000E+00 -0.45593999997E+02  0.45594000000E+02  0.51100000000E-03 0.  1.
    9900012    2    1    2    0    0 -0.41012750990E+00  0.37331044119E+00  0.10418390769E+01  0.90007748365E+02  0.90000009843E+02 0.  0.
        -12    1    1    2    0    0  0.41012750990E+00 -0.37331044119E+00 -0.10418390769E+01  0.11802516351E+01  0.00000000000E+00 0.  1.
         11    1    3    3    0    0 -0.69174513193E+01  0.14727756070E+01  0.41519601210E+01  0.82011568605E+01  0.51100000000E-03 0. -1.
        -11    1    3    3    0    0 -0.21674280412E+02 -0.27577494485E+02 -0.19127089009E+02  0.39951697932E+02  0.51100000000E-03 0.  1.
         12    1    3    3    0    0  0.28181604222E+02  0.26478029320E+02  0.16016967965E+02  0.41854893572E+02  0.00000000000E+00 0. -1.
</event>
<event>
 7    1  0.5158441E-015  0.9000783E+02  0.7816164E-02  0.1186339E+00
        -11   -1    0    0    0    0  0.00000000000E+00  0.00000000000E+00  0.45593999997E+02  0.45594000000E+02  0.51100000000E-03 0.  1.
         11   -1    0    0    0    0 -0.00000000000E+00 -0.00000000000E+00 -0.45593999997E+02  0.45594000000E+02  0.51100000000E-03 0. -1.
    9900012    2    1    2    0    0  0.10219316459E+01  0.48421884060E+00 -0.33763193848E+00  0.90007827343E+02  0.90000089864E+02 0.  0.
        -12    1    1    2    0    0 -0.10219316459E+01 -0.48421884060E+00  0.33763193848E+00  0.11801726570E+01  0.00000000000E+00 0.  1.
         11    1    3    3    0    0  0.11742397895E+01 -0.66802162714E+00  0.11914362619E+02  0.11990710106E+02  0.51100000000E-03 0. -1.
        -11    1    3    3    0    0  0.87820613323E+01 -0.22427599070E+02  0.23905672653E+02  0.33935276433E+02  0.51100000000E-03 0.  1.
         12    1    3    3    0    0 -0.89343694758E+01  0.23579839538E+02 -0.36157667211E+02  0.44081840804E+02  0.00000000000E+00 0. -1.
</event>
<event>
 7    1  0.5158441E-015  0.9000745E+02  0.7816164E-02  0.1186340E+00
        -11   -1    0    0    0    0  0.00000000000E+00  0.00000000000E+00  0.45593999997E+02  0.45594000000E+02  0.51100000000E-03 0. -1.
         11   -1    0    0    0    0 -0.00000000000E+00 -0.00000000000E+00 -0.45593999997E+02  0.45594000000E+02  0.51100000000E-03 0.  1.
    9900012    2    1    2    0    0  0.85855469037E+00 -0.81019316193E+00  0.13166011590E-01  0.90007448239E+02  0.89999705756E+02 0.  0.
        -12    1    1    2    0    0 -0.85855469037E+00  0.81019316193E+00 -0.13166011590E-01  0.11805517608E+01  0.00000000000E+00 0.  1.
         11    1    3    3    0    0  0.36262700799E+02  0.30583783860E+01  0.91882405926E+01  0.37533463909E+02  0.51100000000E-03 0. -1.
        -11    1    3    3    0    0  0.76204674421E+01 -0.28817430164E+01 -0.41572510958E+01  0.91465132035E+01  0.51100000000E-03 0.  1.
        -12    1    3    3    0    0 -0.43024613550E+02 -0.98682853157E+00 -0.50178234852E+01  0.43327471127E+02  0.00000000000E+00 0.  1.
</event>
<event>
 7    1  0.5158441E-015  0.9000778E+02  0.7816164E-02  0.1186339E+00
        -11   -1    0    0    0    0  0.00000000000E+00  0.00000000000E+00  0.45593999997E+02  0.45594000000E+02  0.51100000000E-03 0.  1.
         11   -1    0    0    0    0 -0.00000000000E+00 -0.00000000000E+00 -0.45593999997E+02  0.45594000000E+02  0.51100000000E-03 0. -1.
    9900012    2    1    2    0    0  0.38893188434E+00 -0.92625183606E+00 -0.61944494947E+00  0.90007778614E+02  0.90000040492E+02 0.  0.
        -12    1    1    2    0    0 -0.38893188434E+00  0.92625183606E+00  0.61944494947E+00  0.11802213860E+01  0.00000000000E+00 0.  1.
         11    1    3    3    0    0  0.90210318764E+00 -0.86668031891E+01 -0.27519459181E+02  0.28866033700E+02  0.51100000000E-03 0. -1.
        -11    1    3    3    0    0 -0.58809141946E+01 -0.18454257673E+02 -0.45149133989E+01  0.19887916464E+02  0.51100000000E-03 0.  1.
        -12    1    3    3    0    0  0.53677428913E+01  0.26194809026E+02  0.31414927631E+02  0.41253828449E+02  0.00000000000E+00 0.  1.
</event>
<event>
 7    1  0.5981379E-015  0.9000774E+02  0.7816164E-02  0.1186339E+00
        -11   -1    0    0    0    0  0.00000000000E+00  0.00000000000E+00  0.45593999997E+02  0.45594000000E+02  0.51100000000E-03 0.  1.
         11   -1    0    0    0    0 -0.00000000000E+00 -0.00000000000E+00 -0.45593999997E+02  0.45594000000E+02  0.51100000000E-03 0. -1.
    9900012    2    1    2    0    0  0.24594258324E-01 -0.10618123821E+01 -0.51473560535E+00  0.90007744453E+02  0.90000005880E+02 0.  0.
        -12    1    1    2    0    0 -0.24594258324E-01  0.10618123821E+01  0.51473560535E+00  0.11802555468E+01  0.00000000000E+00 0.  1.
         11    1    3    3    0    0  0.39771838092E+02  0.23922348224E+01 -0.20282014787E+01  0.39895306668E+02  0.51100000000E-03 0. -1.
        -11    1    3    3    0    0  0.47569871773E+00 -0.93779113097E+01  0.10936915535E+01  0.94534475869E+01  0.51100000000E-03 0.  1.
        -12    1    3    3    0    0 -0.40222942551E+02  0.59238641051E+01  0.41977431990E+00  0.40658990198E+02  0.00000000000E+00 0.  1.
</event>
<event>
 7    1  0.5158441E-015  0.9000780E+02  0.7816164E-02  0.1186339E+00
        -11   -1    0    0    0    0  0.00000000000E+00  0.00000000000E+00  0.45593999997E+02  0.45594000000E+02  0.51100000000E-03 0.  1.
         11   -1    0    0    0    0 -0.00000000000E+00 -0.00000000000E+00 -0.45593999997E+02  0.45594000000E+02  0.51100000000E-03 0. -1.
    9900012    2    1    2    0    0 -0.52847730794E+00  0.58084437746E+00 -0.88102804296E+00  0.90007797107E+02  0.90000059229E+02 0.  0.
        -12    1    1    2    0    0  0.52847730794E+00 -0.58084437746E+00  0.88102804296E+00  0.11802028929E+01  0.00000000000E+00 0.  1.
         11    1    3    3    0    0 -0.21825951577E+01  0.87053517290E+01 -0.12690858382E+01  0.90640746618E+01  0.51100000000E-03 0. -1.
        -11    1    3    3    0    0  0.10406334856E+02  0.32837800163E+02 -0.13227335434E+02  0.36899530181E+02  0.51100000000E-03 0.  1.
         12    1    3    3    0    0 -0.87522170062E+01 -0.40962307514E+02  0.13615393229E+02  0.44044192264E+02  0.00000000000E+00 0. -1.
</event>
<event>
 7    1  0.6636750E-015  0.9000677E+02  0.7816164E-02  0.1186341E+00
        -11   -1    0    0    0    0  0.00000000000E+00  0.00000000000E+00  0.45593999997E+02  0.45594000000E+02  0.51100000000E-03 0. -1.
         11   -1    0    0    0    0 -0.00000000000E+00 -0.00000000000E+00 -0.45593999997E+02  0.45594000000E+02  0.51100000000E-03 0.  1.
    9900012    2    1    2    0    0 -0.48293479542E+00 -0.10407022660E+01  0.28108985899E+00  0.90006772362E+02  0.89999020952E+02 0.  0.
        -12    1    1    2    0    0  0.48293479542E+00  0.10407022660E+01 -0.28108985899E+00  0.11812276376E+01  0.00000000000E+00 0.  1.
         11    1    3    3    0    0 -0.74155323708E+01  0.51993040650E+00  0.36638594061E+02  0.37385117668E+02  0.51100000000E-03 0. -1.
        -11    1    3    3    0    0 -0.78099580687E+01  0.46672329802E+01  0.34399224554E+01  0.97268481784E+01  0.51100000000E-03 0.  1.
        -12    1    3    3    0    0  0.14742555644E+02 -0.62278656527E+01 -0.39797426658E+02  0.42894806516E+02  0.00000000000E+00 0.  1.
</event>
<event>
 7    1  0.5158441E-015  0.9000765E+02  0.7816164E-02  0.1186339E+00
        -11   -1    0    0    0    0  0.00000000000E+00  0.00000000000E+00  0.45593999997E+02  0.45594000000E+02  0.51100000000E-03 0.  1.
         11   -1    0    0    0    0 -0.00000000000E+00 -0.00000000000E+00 -0.45593999997E+02  0.45594000000E+02  0.51100000000E-03 0. -1.
    9900012    2    1    2    0    0 -0.82650626664E+00 -0.21430282469E+00 -0.81497897788E+00  0.90007648763E+02  0.89999908926E+02 0.  0.
        -12    1    1    2    0    0  0.82650626664E+00  0.21430282469E+00  0.81497897788E+00  0.11803512375E+01  0.00000000000E+00 0.  1.
         11    1    3    3    0    0  0.67962946933E+01  0.25224395547E+01  0.78019987328E+01  0.10650047293E+02  0.51100000000E-03 0. -1.
        -11    1    3    3    0    0  0.69282238802E+01 -0.11434929785E+02  0.32359501178E+02  0.35012786551E+02  0.51100000000E-03 0.  1.
         12    1    3    3    0    0 -0.14551024840E+02  0.86981874052E+01 -0.40976478888E+02  0.44344814918E+02  0.00000000000E+00 0. -1.
</event>
<event>
 7    1  0.5158441E-015  0.9000789E+02  0.7816164E-02  0.1186339E+00
        -11   -1    0    0    0    0  0.00000000000E+00  0.00000000000E+00  0.45593999997E+02  0.45594000000E+02  0.51100000000E-03 0. -1.
         11   -1    0    0    0    0 -0.00000000000E+00 -0.00000000000E+00 -0.45593999997E+02  0.45594000000E+02  0.51100000000E-03 0.  1.
    9900012    2    1    2    0    0 -0.28562369828E+00  0.45163166325E+00  0.10521939228E+01  0.90007888095E+02  0.90000151418E+02 0.  0.
        -12    1    1    2    0    0  0.28562369828E+00 -0.45163166325E+00 -0.10521939228E+01  0.11801119046E+01  0.00000000000E+00 0.  1.
         11    1    3    3    0    0 -0.85095440685E+01 -0.43287072416E+01 -0.58377283031E+00  0.95650842973E+01  0.51100000000E-03 0. -1.
        -11    1    3    3    0    0  0.90276932557E+01  0.70123110140E+01 -0.38538628012E+02  0.40198228824E+02  0.51100000000E-03 0.  1.
         12    1    3    3    0    0 -0.80377288551E+00 -0.22319721092E+01  0.40174594765E+02  0.40244574974E+02  0.00000000000E+00 0. -1.
</event>
<event>
 7    1  0.5158441E-015  0.9000776E+02  0.7816164E-02  0.1186339E+00
        -11   -1    0    0    0    0  0.00000000000E+00  0.00000000000E+00  0.45593999997E+02  0.45594000000E+02  0.51100000000E-03 0.  1.
         11   -1    0    0    0    0 -0.00000000000E+00 -0.00000000000E+00 -0.45593999997E+02  0.45594000000E+02  0.51100000000E-03 0. -1.
    9900012    2    1    2    0    0 -0.24595799799E+00 -0.11440484235E+01  0.15370792312E+00  0.90007759237E+02  0.90000020859E+02 0.  0.
        -12    1    1    2    0    0  0.24595799799E+00  0.11440484235E+01 -0.15370792312E+00  0.11802407626E+01  0.00000000000E+00 0.  1.
         11    1    3    3    0    0 -0.81750003932E+01 -0.25260337031E+02 -0.29342459171E+02  0.39571393314E+02  0.51100000000E-03 0. -1.
        -11    1    3    3    0    0  0.26872298259E+00 -0.79207599779E+01  0.47880001421E+01  0.92593518289E+01  0.51100000000E-03 0.  1.
        -12    1    3    3    0    0  0.76603194127E+01  0.32037048586E+02  0.24708166952E+02  0.41177014094E+02  0.00000000000E+00 0.  1.
</event>
<event>
 7    1  0.5158441E-015  0.9000775E+02  0.7816164E-02  0.1186339E+00
        -11   -1    0    0    0    0  0.00000000000E+00  0.00000000000E+00  0.45593999997E+02  0.45594000000E+02  0.51100000000E-03 0.  1.
         11   -1    0    0    0    0 -0.00000000000E+00 -0.00000000000E+00 -0.45593999997E+02  0.45594000000E+02  0.51100000000E-03 0. -1.
    9900012    2    1    2    0    0 -0.90875089730E+00 -0.69180797868E+00  0.29760970615E+00  0.90007746633E+02  0.90000008089E+02 0.  0.
        -12    1    1    2    0    0  0.90875089730E+00  0.69180797868E+00 -0.29760970615E+00  0.11802533668E+01  0.00000000000E+00 0.  1.
         11    1    3    3    0    0  0.18226936608E+02  0.15923446797E+01 -0.35237651963E+02  0.39704519841E+02  0.51100000000E-03 0. -1.
        -11    1    3    3    0    0 -0.29205622546E+01 -0.61785618594E+01 -0.36279618473E+01  0.77373392042E+01  0.51100000000E-03 0.  1.
        -12    1    3    3    0    0 -0.16215125250E+02  0.38944092010E+01  0.39163223517E+02  0.42565887588E+02  0.00000000000E+00 0.  1.
</event>
<event>
 7    1  0.5158441E-015  0.9000770E+02  0.7816164E-02  0.1186339E+00
        -11   -1    0    0    0    0  0.00000000000E+00  0.00000000000E+00  0.45593999997E+02  0.45594000000E+02  0.51100000000E-03 0.  1.
         11   -1    0    0    0    0 -0.00000000000E+00 -0.00000000000E+00 -0.45593999997E+02  0.45594000000E+02  0.51100000000E-03 0. -1.
    9900012    2    1    2    0    0 -0.80489178286E+00  0.86045555082E+00  0.69737209127E-01  0.90007704353E+02  0.89999965250E+02 0.  0.
        -12    1    1    2    0    0  0.80489178286E+00 -0.86045555082E+00 -0.69737209127E-01  0.11802956474E+01  0.00000000000E+00 0.  1.
         11    1    3    3    0    0 -0.11331255219E+01 -0.52463828511E+01 -0.77524576331E+01  0.94291625335E+01  0.51100000000E-03 0. -1.
        -11    1    3    3    0    0 -0.11211751714E+02 -0.33224749601E+02  0.16384048742E+02  0.38704320378E+02  0.51100000000E-03 0.  1.
         12    1    3    3    0    0  0.11539985453E+02  0.39331588003E+02 -0.85618538997E+01  0.41874221441E+02  0.00000000000E+00 0. -1.
</event>
<event>
 7    1  0.5158441E-015  0.9000774E+02  0.7816164E-02  0.1186339E+00
        -11   -1    0    0    0    0  0.00000000000E+00  0.00000000000E+00  0.45593999997E+02  0.45594000000E+02  0.51100000000E-03 0.  1.
         11   -1    0    0    0    0 -0.00000000000E+00 -0.00000000000E+00 -0.45593999997E+02  0.45594000000E+02  0.51100000000E-03 0. -1.
    9900012    2    1    2    0    0  0.82508898896E+00 -0.22682469382E+00 -0.81288733781E+00  0.90007742780E+02  0.90000004185E+02 0.  0.
        -12    1    1    2    0    0 -0.82508898896E+00  0.22682469382E+00  0.81288733781E+00  0.11802572200E+01  0.00000000000E+00 0.  1.
         11    1    3    3    0    0 -0.98703451448E+01  0.63923463652E+00 -0.15904273577E+01  0.10018073350E+02  0.51100000000E-03 0. -1.
        -11    1    3    3    0    0 -0.25613359586E+02  0.19600964631E+02 -0.14809618711E+02  0.35490376307E+02  0.51100000000E-03 0.  1.
         12    1    3    3    0    0  0.36308793719E+02 -0.20467023962E+02  0.15587158731E+02  0.44499293124E+02  0.00000000000E+00 0. -1.
</event>
<event>
 7    1  0.5158441E-015  0.9000776E+02  0.7816164E-02  0.1186339E+00
        -11   -1    0    0    0    0  0.00000000000E+00  0.00000000000E+00  0.45593999997E+02  0.45594000000E+02  0.51100000000E-03 0. -1.
         11   -1    0    0    0    0 -0.00000000000E+00 -0.00000000000E+00 -0.45593999997E+02  0.45594000000E+02  0.51100000000E-03 0.  1.
    9900012    2    1    2    0    0  0.85592022695E+00 -0.35797467425E+00  0.72953667386E+00  0.90007758897E+02  0.90000020515E+02 0.  0.
        -12    1    1    2    0    0 -0.85592022695E+00  0.35797467425E+00 -0.72953667386E+00  0.11802411028E+01  0.00000000000E+00 0.  1.
         11    1    3    3    0    0 -0.80902866585E+01 -0.46127252709E+01  0.14447512511E+00  0.93140134187E+01  0.51100000000E-03 0. -1.
        -11    1    3    3    0    0  0.14089649614E+02 -0.35982009425E+02 -0.74175485144E+01  0.39347722357E+02  0.51100000000E-03 0.  1.
         12    1    3    3    0    0 -0.51434427287E+01  0.40236760021E+02  0.80026100632E+01  0.41346023121E+02  0.00000000000E+00 0. -1.
</event>
<event>
 7    1  0.5158441E-015  0.9000776E+02  0.7816164E-02  0.1186339E+00
        -11   -1    0    0    0    0  0.00000000000E+00  0.00000000000E+00  0.45593999997E+02  0.45594000000E+02  0.51100000000E-03 0.  1.
         11   -1    0    0    0    0 -0.00000000000E+00 -0.00000000000E+00 -0.45593999997E+02  0.45594000000E+02  0.51100000000E-03 0. -1.
    9900012    2    1    2    0    0  0.68348452181E+00  0.41987957708E+00  0.86575107654E+00  0.90007756433E+02  0.90000018018E+02 0.  0.
        -12    1    1    2    0    0 -0.68348452181E+00 -0.41987957708E+00 -0.86575107654E+00  0.11802435670E+01  0.00000000000E+00 0.  1.
         11    1    3    3    0    0 -0.24637054813E+02  0.13930482422E+02 -0.18239000016E+02  0.33670520225E+02  0.51100000000E-03 0. -1.
        -11    1    3    3    0    0  0.49150421064E+00  0.98747362923E+01 -0.80421243227E+01  0.12744714870E+02  0.51100000000E-03 0.  1.
        -12    1    3    3    0    0  0.24829035124E+02 -0.23385339137E+02  0.27146875416E+02  0.43592521338E+02  0.00000000000E+00 0.  1.
</event>
<event>
 7    1  0.5158441E-015  0.9000771E+02  0.7816164E-02  0.1186339E+00
        -11   -1    0    0    0    0  0.00000000000E+00  0.00000000000E+00  0.45593999997E+02  0.45594000000E+02  0.51100000000E-03 0. -1.
         11   -1    0    0    0    0 -0.00000000000E+00 -0.00000000000E+00 -0.45593999997E+02  0.45594000000E+02  0.51100000000E-03 0.  1.
    9900012    2    1    2    0    0  0.10262214228E+01 -0.91268730710E-01  0.57585891718E+00  0.90007714491E+02  0.89999975522E+02 0.  0.
        -12    1    1    2    0    0 -0.10262214228E+01  0.91268730710E-01 -0.57585891718E+00  0.11802855088E+01  0.00000000000E+00 0.  1.
         11    1    3    3    0    0 -0.23336083658E+02 -0.33009902181E+02 -0.13186438773E+02  0.42521860381E+02  0.51100000000E-03 0. -1.
        -11    1    3    3    0    0  0.60022654912E+01  0.74328467234E+01 -0.51174835798E+01  0.10838036718E+02  0.51100000000E-03 0.  1.
        -12    1    3    3    0    0  0.18360039590E+02  0.25485786727E+02  0.18879781270E+02  0.36647817392E+02  0.00000000000E+00 0.  1.
</event>
<event>
 7    1  0.5158441E-015  0.9000776E+02  0.7816164E-02  0.1186339E+00
        -11   -1    0    0    0    0  0.00000000000E+00  0.00000000000E+00  0.45593999997E+02  0.45594000000E+02  0.51100000000E-03 0.  1.
         11   -1    0    0    0    0 -0.00000000000E+00 -0.00000000000E+00 -0.45593999997E+02  0.45594000000E+02  0.51100000000E-03 0. -1.
    9900012    2    1    2    0    0  0.10971312336E+01  0.39775131902E+00  0.17625026998E+00  0.90007759680E+02  0.90000021308E+02 0.  0.
        -12    1    1    2    0    0 -0.10971312336E+01 -0.39775131902E+00 -0.17625026998E+00  0.11802403201E+01  0.00000000000E+00 0.  1.
         11    1    3    3    0    0 -0.90726430137E+01  0.21261973544E+02 -0.29640837606E+02  0.37589408408E+02  0.51100000000E-03 0. -1.
        -11    1    3    3    0    0 -0.56711277152E+01  0.80973324518E+01  0.47437051226E+01  0.10964999815E+02  0.51100000000E-03 0.  1.
        -12    1    3    3    0    0  0.15840901962E+02 -0.28961554677E+02  0.25073382753E+02  0.41453351456E+02  0.00000000000E+00 0.  1.
</event>
<event>
 7    1  0.5158441E-015  0.9000774E+02  0.7816164E-02  0.1186339E+00
        -11   -1    0    0    0    0  0.00000000000E+00  0.00000000000E+00  0.45593999997E+02  0.45594000000E+02  0.51100000000E-03 0.  1.
         11   -1    0    0    0    0 -0.00000000000E+00 -0.00000000000E+00 -0.45593999997E+02  0.45594000000E+02  0.51100000000E-03 0. -1.
    9900012    2    1    2    0    0 -0.39185940904E+00 -0.10881417613E+01  0.23536956767E+00  0.90007743620E+02  0.90000005036E+02 0.  0.
        -12    1    1    2    0    0  0.39185940904E+00  0.10881417613E+01 -0.23536956767E+00  0.11802563800E+01  0.00000000000E+00 0.  1.
         11    1    3    3    0    0 -0.73288862557E+01 -0.15082399184E+01  0.42050310635E+00  0.74942767846E+01  0.51100000000E-03 0. -1.
        -11    1    3    3    0    0  0.43714590164E+01  0.25230905695E+02  0.32514075771E+02  0.41386874484E+02  0.51100000000E-03 0.  1.
         12    1    3    3    0    0  0.25655678302E+01 -0.24810807537E+02 -0.32699209309E+02  0.41126592351E+02  0.00000000000E+00 0. -1.
</event>
<event>
 7    1  0.5158441E-015  0.9000766E+02  0.7816164E-02  0.1186339E+00
        -11   -1    0    0    0    0  0.00000000000E+00  0.00000000000E+00  0.45593999997E+02  0.45594000000E+02  0.51100000000E-03 0.  1.
         11   -1    0    0    0    0 -0.00000000000E+00 -0.00000000000E+00 -0.45593999997E+02  0.45594000000E+02  0.51100000000E-03 0. -1.
    9900012    2    1    2    0    0 -0.92678108121E-01  0.11694804856E+01  0.13007374155E+00  0.90007664024E+02  0.89999924389E+02 0.  0.
        -12    1    1    2    0    0  0.92678108121E-01 -0.11694804856E+01 -0.13007374155E+00  0.11803359760E+01  0.00000000000E+00 0.  1.
         11    1    3    3    0    0  0.46249927636E+01 -0.61378596350E+01  0.34595050877E+01  0.84280516535E+01  0.51100000000E-03 0. -1.
        -11    1    3    3    0    0  0.26813653667E+02 -0.24579257811E+02 -0.49296124156E+01  0.36707124872E+02  0.51100000000E-03 0.  1.
         12    1    3    3    0    0 -0.31531324539E+02  0.31886597932E+02  0.16001810695E+01  0.44872487498E+02  0.00000000000E+00 0. -1.
</event>
<event>
 7    1  0.5158441E-015  0.9000759E+02  0.7816164E-02  0.1186339E+00
        -11   -1    0    0    0    0  0.00000000000E+00  0.00000000000E+00  0.45593999997E+02  0.45594000000E+02  0.51100000000E-03 0.  1.
         11   -1    0    0    0    0 -0.00000000000E+00 -0.00000000000E+00 -0.45593999997E+02  0.45594000000E+02  0.51100000000E-03 0. -1.
    9900012    2    1    2    0    0 -0.47157945946E+00 -0.65653411354E+00 -0.86019473088E+00  0.90007593628E+02  0.89999853063E+02 0.  0.
        -12    1    1    2    0    0  0.47157945946E+00  0.65653411354E+00  0.86019473088E+00  0.11804063723E+01  0.00000000000E+00 0.  1.
         11    1    3    3    0    0 -0.33224202369E+02 -0.16559850727E+02 -0.51309886832E+00  0.37125995608E+02  0.51100000000E-03 0. -1.
        -11    1    3    3    0    0  0.12571084041E+02 -0.12447598258E+02 -0.31466506807E+01  0.17968758085E+02  0.51100000000E-03 0.  1.
        -12    1    3    3    0    0  0.20181538868E+02  0.28350914871E+02  0.27995548181E+01  0.34912839935E+02  0.00000000000E+00 0.  1.
</event>
<event>
 7    1  0.5158441E-015  0.9000767E+02  0.7816164E-02  0.1186339E+00
        -11   -1    0    0    0    0  0.00000000000E+00  0.00000000000E+00  0.45593999997E+02  0.45594000000E+02  0.51100000000E-03 0. -1.
         11   -1    0    0    0    0 -0.00000000000E+00 -0.00000000000E+00 -0.45593999997E+02  0.45594000000E+02  0.51100000000E-03 0.  1.
    9900012    2    1    2    0    0  0.53195508965E+00 -0.97429889231E+00 -0.40116724154E+00  0.90007673899E+02  0.89999934394E+02 0.  0.
        -12    1    1    2    0    0 -0.53195508965E+00  0.97429889231E+00  0.40116724154E+00  0.11803261010E+01  0.00000000000E+00 0.  1.
         11    1    3    3    0    0  0.25116322853E+02  0.78365262365E+01  0.19043575851E+02  0.32479202554E+02  0.51100000000E-03 0. -1.
        -11    1    3    3    0    0  0.12243382403E+02  0.56987754800E+01 -0.10082746647E+02  0.16853433919E+02  0.51100000000E-03 0.  1.
        -12    1    3    3    0    0 -0.36827750167E+02 -0.14509600609E+02 -0.93619964450E+01  0.40675037426E+02  0.00000000000E+00 0.  1.
</event>
<event>
 7    1  0.5158441E-015  0.9000795E+02  0.7816164E-02  0.1186339E+00
        -11   -1    0    0    0    0  0.00000000000E+00  0.00000000000E+00  0.45593999997E+02  0.45594000000E+02  0.51100000000E-03 0. -1.
         11   -1    0    0    0    0 -0.00000000000E+00 -0.00000000000E+00 -0.45593999997E+02  0.45594000000E+02  0.51100000000E-03 0.  1.
    9900012    2    1    2    0    0 -0.96106408869E+00 -0.44576037782E+00  0.51978929091E+00  0.90007946017E+02  0.90000210104E+02 0.  0.
        -12    1    1    2    0    0  0.96106408869E+00  0.44576037782E+00 -0.51978929091E+00  0.11800539835E+01  0.00000000000E+00 0.  1.
         11    1    3    3    0    0 -0.31778480361E+02 -0.12884133331E+02 -0.21823423063E+02  0.40646457413E+02  0.51100000000E-03 0. -1.
        -11    1    3    3    0    0  0.42466202653E+01  0.30995006870E+01 -0.69569712779E+01  0.87200996444E+01  0.51100000000E-03 0.  1.
        -12    1    3    3    0    0  0.26570796007E+02  0.93388722662E+01  0.29300183632E+02  0.40641388959E+02  0.00000000000E+00 0.  1.
</event>
<event>
 7    1  0.5158441E-015  0.9000770E+02  0.7816164E-02  0.1186339E+00
        -11   -1    0    0    0    0  0.00000000000E+00  0.00000000000E+00  0.45593999997E+02  0.45594000000E+02  0.51100000000E-03 0. -1.
         11   -1    0    0    0    0 -0.00000000000E+00 -0.00000000000E+00 -0.45593999997E+02  0.45594000000E+02  0.51100000000E-03 0.  1.
    9900012    2    1    2    0    0  0.94915211818E+00  0.50915116484E+00  0.48269329296E+00  0.90007696028E+02  0.89999956815E+02 0.  0.
        -12    1    1    2    0    0 -0.94915211818E+00 -0.50915116484E+00 -0.48269329296E+00  0.11803039724E+01  0.00000000000E+00 0.  1.
         11    1    3    3    0    0 -0.62129289255E+01 -0.31070826061E+01 -0.11145077090E+02  0.13132676489E+02  0.51100000000E-03 0. -1.
        -11    1    3    3    0    0 -0.27577273443E+02 -0.11947758107E+01 -0.16287819492E+02  0.32050375409E+02  0.51100000000E-03 0.  1.
         12    1    3    3    0    0  0.34739354486E+02  0.48110095817E+01  0.27915589875E+02  0.44824644130E+02  0.00000000000E+00 0. -1.
</event>
<event>
 7    1  0.5158441E-015  0.9000745E+02  0.7816164E-02  0.1186340E+00
        -11   -1    0    0    0    0  0.00000000000E+00  0.00000000000E+00  0.45593999997E+02  0.45594000000E+02  0.51100000000E-03 0.  1.
         11   -1    0    0    0    0 -0.00000000000E+00 -0.00000000000E+00 -0.45593999997E+02  0.45594000000E+02  0.51100000000E-03 0. -1.
    9900012    2    1    2    0    0 -0.62699716695E+00  0.99852449469E+00  0.59375935280E-01  0.90007448385E+02  0.89999705903E+02 0.  0.
        -12    1    1    2    0    0  0.62699716695E+00 -0.99852449469E+00 -0.59375935280E-01  0.11805516149E+01  0.00000000000E+00 0.  1.
         11    1    3    3    0    0  0.39623038102E+01 -0.20072737490E+01 -0.85113748188E+01  0.96006510693E+01  0.51100000000E-03 0. -1.
        -11    1    3    3    0    0  0.21451739854E+02 -0.30414325029E+02  0.78262710215E+01  0.38032339240E+02  0.51100000000E-03 0.  1.
         12    1    3    3    0    0 -0.26041040831E+02  0.33420123273E+02  0.74447973260E+00  0.42374458075E+02  0.00000000000E+00 0. -1.
</event>
<event>
 7    1  0.5158441E-015  0.9000784E+02  0.7816164E-02  0.1186339E+00
        -11   -1    0    0    0    0  0.00000000000E+00  0.00000000000E+00  0.45593999997E+02  0.45594000000E+02  0.51100000000E-03 0. -1.
         11   -1    0    0    0    0 -0.00000000000E+00 -0.00000000000E+00 -0.45593999997E+02  0.45594000000E+02  0.51100000000E-03 0.  1.
    9900012    2    1    2    0    0 -0.72603294230E+00  0.88949015101E+00 -0.27286884374E+00  0.90007841550E+02  0.90000104258E+02 0.  0.
        -12    1    1    2    0    0  0.72603294230E+00 -0.88949015101E+00  0.27286884374E+00  0.11801584504E+01  0.00000000000E+00 0.  1.
         11    1    3    3    0    0 -0.82045495288E+01  0.11402864133E+00 -0.12162325584E+01  0.82949898975E+01  0.51100000000E-03 0. -1.
        -11    1    3    3    0    0  0.30618323947E+01 -0.38048855704E+02 -0.12847462037E+02  0.40275892530E+02  0.51100000000E-03 0.  1.
         12    1    3    3    0    0  0.44166841918E+01  0.38824317214E+02  0.13790825751E+02  0.41436959122E+02  0.00000000000E+00 0. -1.
</event>
<event>
 7    1  0.5158441E-015  0.9000771E+02  0.7816164E-02  0.1186339E+00
        -11   -1    0    0    0    0  0.00000000000E+00  0.00000000000E+00  0.45593999997E+02  0.45594000000E+02  0.51100000000E-03 0. -1.
         11   -1    0    0    0    0 -0.00000000000E+00 -0.00000000000E+00 -0.45593999997E+02  0.45594000000E+02  0.51100000000E-03 0.  1.
    9900012    2    1    2    0    0 -0.78254250507E+00  0.44551475801E+00 -0.76304171164E+00  0.90007708161E+02  0.89999969109E+02 0.  0.
        -12    1    1    2    0    0  0.78254250507E+00 -0.44551475801E+00  0.76304171164E+00  0.11802918391E+01  0.00000000000E+00 0.  1.
         11    1    3    3    0    0  0.19933941459E+02 -0.32205595244E+02 -0.13687914131E+02  0.40273085064E+02  0.51100000000E-03 0. -1.
        -11    1    3    3    0    0 -0.76232848273E+01 -0.27574943919E+01 -0.31575910853E+01  0.86999211837E+01  0.51100000000E-03 0.  1.
        -12    1    3    3    0    0 -0.13093199137E+02  0.35408604393E+02  0.16082463504E+02  0.41034701913E+02  0.00000000000E+00 0.  1.
</event>
<event>
 7    1  0.6277938E-015  0.9000765E+02  0.7816164E-02  0.1186339E+00
        -11   -1    0    0    0    0  0.00000000000E+00  0.00000000000E+00  0.45593999997E+02  0.45594000000E+02  0.51100000000E-03 0. -1.
         11   -1    0    0    0    0 -0.00000000000E+00 -0.00000000000E+00 -0.45593999997E+02  0.45594000000E+02  0.51100000000E-03 0.  1.
    9900012    2    1    2    0    0 -0.34122998462E+00 -0.93527110221E+00 -0.63408665205E+00  0.90007645892E+02  0.89999906018E+02 0.  0.
        -12    1    1    2    0    0  0.34122998462E+00  0.93527110221E+00  0.63408665205E+00  0.11803541076E+01  0.00000000000E+00 0.  1.
         11    1    3    3    0    0  0.51508284756E+00  0.36574005547E+02 -0.24369130356E+01  0.36658719801E+02  0.51100000000E-03 0. -1.
        -11    1    3    3    0    0 -0.18398841201E+01  0.52340387374E+01 -0.77586580333E+01  0.95381921672E+01  0.51100000000E-03 0.  1.
        -12    1    3    3    0    0  0.98357128791E+00 -0.42743315386E+02  0.95614844168E+01  0.43810733924E+02  0.00000000000E+00 0.  1.
</event>
<event>
 7    1  0.5158441E-015  0.9000775E+02  0.7816164E-02  0.1186339E+00
        -11   -1    0    0    0    0  0.00000000000E+00  0.00000000000E+00  0.45593999997E+02  0.45594000000E+02  0.51100000000E-03 0.  1.
         11   -1    0    0    0    0 -0.00000000000E+00 -0.00000000000E+00 -0.45593999997E+02  0.45594000000E+02  0.51100000000E-03 0. -1.
    9900012    2    1    2    0    0 -0.83627801612E+00 -0.36052137776E+00 -0.75077439418E+00  0.90007746309E+02  0.90000007760E+02 0.  0.
        -12    1    1    2    0    0  0.83627801612E+00  0.36052137776E+00  0.75077439418E+00  0.11802536910E+01  0.00000000000E+00 0.  1.
         11    1    3    3    0    0  0.32015843542E+01 -0.78931223603E+01  0.21120068319E+01  0.87756535991E+01  0.51100000000E-03 0. -1.
        -11    1    3    3    0    0  0.25272618845E+02 -0.13262156726E+02  0.23247284036E+02  0.36810681597E+02  0.51100000000E-03 0.  1.
         12    1    3    3    0    0 -0.29310481216E+02  0.20794757709E+02 -0.26110065262E+02  0.44421411113E+02  0.00000000000E+00 0. -1.
</event>
<event>
 7    1  0.5158441E-015  0.9000784E+02  0.7816164E-02  0.1186339E+00
        -11   -1    0    0    0    0  0.00000000000E+00  0.00000000000E+00  0.45593999997E+02  0.45594000000E+02  0.51100000000E-03 0.  1.
         11   -1    0    0    0    0 -0.00000000000E+00 -0.00000000000E+00 -0.45593999997E+02  0.45594000000E+02  0.51100000000E-03 0. -1.
    9900012    2    1    2    0    0 -0.34288350398E+00 -0.35174874671E-01 -0.11287010792E+01  0.90007842174E+02  0.90000104890E+02 0.  0.
        -12    1    1    2    0    0  0.34288350398E+00  0.35174874671E-01  0.11287010792E+01  0.11801578264E+01  0.00000000000E+00 0.  1.
         11    1    3    3    0    0  0.85932854314E+01 -0.32888777789E+02 -0.15467883391E+02  0.37346642096E+02  0.51100000000E-03 0. -1.
        -11    1    3    3    0    0 -0.95243957203E+01 -0.63320989450E+01  0.23275714683E+01  0.11671639991E+02  0.51100000000E-03 0.  1.
        -12    1    3    3    0    0  0.58822678484E+00  0.39185701860E+02  0.12011610844E+02  0.40989560086E+02  0.00000000000E+00 0.  1.
</event>
<event>
 7    1  0.5158441E-015  0.9000777E+02  0.7816164E-02  0.1186339E+00
        -11   -1    0    0    0    0  0.00000000000E+00  0.00000000000E+00  0.45593999997E+02  0.45594000000E+02  0.51100000000E-03 0. -1.
         11   -1    0    0    0    0 -0.00000000000E+00 -0.00000000000E+00 -0.45593999997E+02  0.45594000000E+02  0.51100000000E-03 0.  1.
    9900012    2    1    2    0    0 -0.13191578236E+00  0.10752258822E+01  0.46843568673E+00  0.90007769317E+02  0.90000031072E+02 0.  0.
        -12    1    1    2    0    0  0.13191578236E+00 -0.10752258822E+01 -0.46843568673E+00  0.11802306825E+01  0.00000000000E+00 0.  1.
         11    1    3    3    0    0 -0.96416979423E+01 -0.29232596939E+01  0.34848845467E+01  0.10660778912E+02  0.51100000000E-03 0. -1.
        -11    1    3    3    0    0  0.68797717719E+00 -0.36738590229E+02  0.44117369469E+01  0.37008927947E+02  0.51100000000E-03 0.  1.
         12    1    3    3    0    0  0.88218049828E+01  0.40737075806E+02 -0.74281858069E+01  0.42338062458E+02  0.00000000000E+00 0. -1.
</event>
<event>
 7    1  0.5158441E-015  0.9000778E+02  0.7816164E-02  0.1186339E+00
        -11   -1    0    0    0    0  0.00000000000E+00  0.00000000000E+00  0.45593999997E+02  0.45594000000E+02  0.51100000000E-03 0. -1.
         11   -1    0    0    0    0 -0.00000000000E+00 -0.00000000000E+00 -0.45593999997E+02  0.45594000000E+02  0.51100000000E-03 0.  1.
    9900012    2    1    2    0    0  0.90935233689E+00 -0.74963259905E+00 -0.63717296755E-01  0.90007775191E+02  0.90000037023E+02 0.  0.
        -12    1    1    2    0    0 -0.90935233689E+00  0.74963259905E+00  0.63717296755E-01  0.11802248091E+01  0.00000000000E+00 0.  1.
         11    1    3    3    0    0 -0.31305757263E+02 -0.45466493610E+01  0.17182174944E+02  0.35999299914E+02  0.51100000000E-03 0. -1.
        -11    1    3    3    0    0 -0.35063901522E+01 -0.47633027639E+01  0.76233266324E+01  0.96487789033E+01  0.51100000000E-03 0.  1.
        -12    1    3    3    0    0  0.35721499753E+02  0.85603195258E+01 -0.24869218873E+02  0.44359696373E+02  0.00000000000E+00 0.  1.
</event>
<event>
 7    1  0.5158441E-015  0.9000765E+02  0.7816164E-02  0.1186339E+00
        -11   -1    0    0    0    0  0.00000000000E+00  0.00000000000E+00  0.45593999997E+02  0.45594000000E+02  0.51100000000E-03 0.  1.
         11   -1    0    0    0    0 -0.00000000000E+00 -0.00000000000E+00 -0.45593999997E+02  0.45594000000E+02  0.51100000000E-03 0. -1.
    9900012    2    1    2    0    0  0.96813629638E-01  0.10638511442E+01  0.50206490991E+00  0.90007652039E+02  0.89999912246E+02 0.  0.
        -12    1    1    2    0    0 -0.96813629638E-01 -0.10638511442E+01 -0.50206490991E+00  0.11803479612E+01  0.00000000000E+00 0.  1.
         11    1    3    3    0    0  0.86834012685E+01 -0.23424037463E+01 -0.30705362466E+01  0.95034996713E+01  0.51100000000E-03 0. -1.
        -11    1    3    3    0    0  0.41637017306E+01  0.31643727463E+02  0.26884742274E+02  0.41730699338E+02  0.51100000000E-03 0.  1.
         12    1    3    3    0    0 -0.12750289369E+02 -0.28237472573E+02 -0.23312141118E+02  0.38773453029E+02  0.00000000000E+00 0. -1.
</event>
<event>
 7    1  0.5158441E-015  0.9000776E+02  0.7816164E-02  0.1186339E+00
        -11   -1    0    0    0    0  0.00000000000E+00  0.00000000000E+00  0.45593999997E+02  0.45594000000E+02  0.51100000000E-03 0. -1.
         11   -1    0    0    0    0 -0.00000000000E+00 -0.00000000000E+00 -0.45593999997E+02  0.45594000000E+02  0.51100000000E-03 0.  1.
    9900012    2    1    2    0    0 -0.11086911531E+01 -0.20314748379E+00  0.35001389034E+00  0.90007756510E+02  0.90000018096E+02 0.  0.
        -12    1    1    2    0    0  0.11086911531E+01  0.20314748379E+00 -0.35001389034E+00  0.11802434903E+01  0.00000000000E+00 0.  1.
         11    1    3    3    0    0 -0.77955105205E+01  0.35971601783E+02  0.87584304330E+01  0.37834325989E+02  0.51100000000E-03 0. -1.
        -11    1    3    3    0    0  0.13328398727E+01  0.33183088788E+01  0.82392918328E+01  0.89818464755E+01  0.51100000000E-03 0.  1.
        -12    1    3    3    0    0  0.53539794947E+01 -0.39493058146E+02 -0.16647708375E+02  0.43191584045E+02  0.00000000000E+00 0.  1.
</event>
<event>
 7    1  0.5158441E-015  0.9000778E+02  0.7816164E-02  0.1186339E+00
        -11   -1    0    0    0    0  0.00000000000E+00  0.00000000000E+00  0.45593999997E+02  0.45594000000E+02  0.51100000000E-03 0.  1.
         11   -1    0    0    0    0 -0.00000000000E+00 -0.00000000000E+00 -0.45593999997E+02  0.45594000000E+02  0.51100000000E-03 0. -1.
    9900012    2    1    2    0    0  0.74269250889E-01 -0.11401744965E+01 -0.29562599327E+00  0.90007784540E+02  0.90000046496E+02 0.  0.
        -12    1    1    2    0    0 -0.74269250889E-01  0.11401744965E+01  0.29562599327E+00  0.11802154600E+01  0.00000000000E+00 0.  1.
         11    1    3    3    0    0 -0.32115215016E+02  0.17244279176E+02 -0.19541723778E+02  0.41359777179E+02  0.51100000000E-03 0. -1.
        -11    1    3    3    0    0  0.21006583801E+01  0.37864712943E+01  0.88524893060E+01  0.98547804474E+01  0.51100000000E-03 0.  1.
        -12    1    3    3    0    0  0.30088825887E+02 -0.22170924967E+02  0.10393608478E+02  0.38793226913E+02  0.00000000000E+00 0.  1.
</event>
<event>
 7    1  0.5158441E-015  0.9000777E+02  0.7816164E-02  0.1186339E+00
        -11   -1    0    0    0    0  0.00000000000E+00  0.00000000000E+00  0.45593999997E+02  0.45594000000E+02  0.51100000000E-03 0.  1.
         11   -1    0    0    0    0 -0.00000000000E+00 -0.00000000000E+00 -0.45593999997E+02  0.45594000000E+02  0.51100000000E-03 0. -1.
    9900012    2    1    2    0    0  0.37668633634E+00  0.82578230433E+00  0.75440785901E+00  0.90007771112E+02  0.90000032891E+02 0.  0.
        -12    1    1    2    0    0 -0.37668633634E+00 -0.82578230433E+00 -0.75440785901E+00  0.11802288879E+01  0.00000000000E+00 0.  1.
         11    1    3    3    0    0  0.23087038374E+02 -0.58638981931E+01 -0.22430809468E+02  0.32719074812E+02  0.51100000000E-03 0. -1.
        -11    1    3    3    0    0  0.85705465548E+01  0.14624892732E+02 -0.96893915452E+00  0.16978827963E+02  0.51100000000E-03 0.  1.
        -12    1    3    3    0    0 -0.31280898593E+02 -0.79352122344E+01  0.24154156481E+02  0.40309868337E+02  0.00000000000E+00 0.  1.
</event>
<event>
 7    1  0.5158441E-015  0.9000776E+02  0.7816164E-02  0.1186339E+00
        -11   -1    0    0    0    0  0.00000000000E+00  0.00000000000E+00  0.45593999997E+02  0.45594000000E+02  0.51100000000E-03 0.  1.
         11   -1    0    0    0    0 -0.00000000000E+00 -0.00000000000E+00 -0.45593999997E+02  0.45594000000E+02  0.51100000000E-03 0. -1.
    9900012    2    1    2    0    0 -0.73155086178E+00  0.89530079283E+00 -0.23715857339E+00  0.90007756651E+02  0.90000018239E+02 0.  0.
        -12    1    1    2    0    0  0.73155086178E+00 -0.89530079283E+00  0.23715857339E+00  0.11802433486E+01  0.00000000000E+00 0.  1.
         11    1    3    3    0    0 -0.86203774156E+01  0.49242237156E+01  0.99889808925E+01  0.14083274673E+02  0.51100000000E-03 0. -1.
        -11    1    3    3    0    0 -0.14545576310E+01  0.34866006727E+01  0.31901069219E+02  0.32123983870E+02  0.51100000000E-03 0.  1.
         12    1    3    3    0    0  0.93433841848E+01 -0.75155235954E+01 -0.42127208685E+02  0.43800498108E+02  0.00000000000E+00 0. -1.
</event>
<event>
 7    1  0.5158441E-015  0.9000776E+02  0.7816164E-02  0.1186339E+00
        -11   -1    0    0    0    0  0.00000000000E+00  0.00000000000E+00  0.45593999997E+02  0.45594000000E+02  0.51100000000E-03 0.  1.
         11   -1    0    0    0    0 -0.00000000000E+00 -0.00000000000E+00 -0.45593999997E+02  0.45594000000E+02  0.51100000000E-03 0. -1.
    9900012    2    1    2    0    0  0.68791619133E+00  0.39983980207E+00 -0.87170019050E+00  0.90007761983E+02  0.90000023642E+02 0.  0.
        -12    1    1    2    0    0 -0.68791619133E+00 -0.39983980207E+00  0.87170019050E+00  0.11802380166E+01  0.00000000000E+00 0.  1.
         11    1    3    3    0    0  0.37375563400E+00  0.64426815317E+01  0.71126464364E+01  0.96040396804E+01  0.51100000000E-03 0. -1.
        -11    1    3    3    0    0 -0.38501388880E+02  0.55669635334E+01  0.95964893243E+00  0.38913608867E+02  0.51100000000E-03 0.  1.
         12    1    3    3    0    0  0.38815549438E+02 -0.11609805263E+02 -0.89439955594E+01  0.41490113436E+02  0.00000000000E+00 0. -1.
</event>
<event>
 7    1  0.5158441E-015  0.9000773E+02  0.7816164E-02  0.1186339E+00
        -11   -1    0    0    0    0  0.00000000000E+00  0.00000000000E+00  0.45593999997E+02  0.45594000000E+02  0.51100000000E-03 0.  1.
         11   -1    0    0    0    0 -0.00000000000E+00 -0.00000000000E+00 -0.45593999997E+02  0.45594000000E+02  0.51100000000E-03 0. -1.
    9900012    2    1    2    0    0 -0.95137216682E+00  0.17740583207E+00 -0.67561015044E+00  0.90007732698E+02  0.89999993970E+02 0.  0.
        -12    1    1    2    0    0  0.95137216682E+00 -0.17740583207E+00  0.67561015044E+00  0.11802673021E+01  0.00000000000E+00 0.  1.
         11    1    3    3    0    0  0.25608827722E+02  0.25350632838E+02 -0.12502535227E+02  0.38141578755E+02  0.51100000000E-03 0. -1.
        -11    1    3    3    0    0 -0.54517857433E+01  0.30160497666E+01 -0.90044445082E+01  0.10949819412E+02  0.51100000000E-03 0.  1.
        -12    1    3    3    0    0 -0.21108414145E+02 -0.28189276773E+02  0.20831369584E+02  0.40916334531E+02  0.00000000000E+00 0.  1.
</event>
<event>
 7    1  0.6021948E-015  0.9000776E+02  0.7816164E-02  0.1186339E+00
        -11   -1    0    0    0    0  0.00000000000E+00  0.00000000000E+00  0.45593999997E+02  0.45594000000E+02  0.51100000000E-03 0.  1.
         11   -1    0    0    0    0 -0.00000000000E+00 -0.00000000000E+00 -0.45593999997E+02  0.45594000000E+02  0.51100000000E-03 0. -1.
    9900012    2    1    2    0    0 -0.10237106299E+01  0.58712793022E+00  0.15992660062E-01  0.90007763403E+02  0.90000025080E+02 0.  0.
        -12    1    1    2    0    0  0.10237106299E+01 -0.58712793022E+00 -0.15992660062E-01  0.11802365972E+01  0.00000000000E+00 0.  1.
         11    1    3    3    0    0 -0.23263790498E+02  0.26906883418E+02 -0.12914896547E+02  0.37841496755E+02  0.51100000000E-03 0. -1.
        -11    1    3    3    0    0 -0.50857804171E+01 -0.84952491180E+00 -0.78708546071E+01  0.94094212115E+01  0.51100000000E-03 0.  1.
        -12    1    3    3    0    0  0.27325860285E+02 -0.25470230576E+02  0.20801743814E+02  0.42756845436E+02  0.00000000000E+00 0.  1.
</event>
<event>
 7    1  0.5158441E-015  0.9000777E+02  0.7816164E-02  0.1186339E+00
        -11   -1    0    0    0    0  0.00000000000E+00  0.00000000000E+00  0.45593999997E+02  0.45594000000E+02  0.51100000000E-03 0.  1.
         11   -1    0    0    0    0 -0.00000000000E+00 -0.00000000000E+00 -0.45593999997E+02  0.45594000000E+02  0.51100000000E-03 0. -1.
    9900012    2    1    2    0    0  0.14939163962E+00 -0.10232087044E+00 -0.11662577065E+01  0.90007769319E+02  0.90000031074E+02 0.  0.
        -12    1    1    2    0    0 -0.14939163962E+00  0.10232087044E+00  0.11662577065E+01  0.11802306811E+01  0.00000000000E+00 0.  1.
         11    1    3    3    0    0 -0.19657111180E+01  0.92226695288E+01  0.53384561940E+01  0.10836086389E+02  0.51100000000E-03 0. -1.
        -11    1    3    3    0    0 -0.31586546886E+02  0.13719857576E+02  0.88432830177E+01  0.35554860300E+02  0.51100000000E-03 0.  1.
         12    1    3    3    0    0  0.33701649644E+02 -0.23044847976E+02 -0.15347996918E+02  0.43616822630E+02  0.00000000000E+00 0. -1.
</event>
<event>
 7    1  0.5158441E-015  0.9000767E+02  0.7816164E-02  0.1186339E+00
        -11   -1    0    0    0    0  0.00000000000E+00  0.00000000000E+00  0.45593999997E+02  0.45594000000E+02  0.51100000000E-03 0. -1.
         11   -1    0    0    0    0 -0.00000000000E+00 -0.00000000000E+00 -0.45593999997E+02  0.45594000000E+02  0.51100000000E-03 0.  1.
    9900012    2    1    2    0    0 -0.18814944122E+00 -0.87794476079E+00 -0.76615507024E+00  0.90007669196E+02  0.89999929629E+02 0.  0.
        -12    1    1    2    0    0  0.18814944122E+00  0.87794476079E+00  0.76615507024E+00  0.11803308040E+01  0.00000000000E+00 0.  1.
         11    1    3    3    0    0 -0.41096462675E+01  0.11884938668E+02  0.46632693786E+01  0.13412197476E+02  0.51100000000E-03 0. -1.
        -11    1    3    3    0    0  0.90463118942E+01 -0.13729187391E+02 -0.39156114071E+02  0.42467959860E+02  0.51100000000E-03 0.  1.
         12    1    3    3    0    0 -0.51248150679E+01  0.96630396166E+00  0.33726689622E+02  0.34127511859E+02  0.00000000000E+00 0. -1.
</event>
<event>
 7    1  0.5158441E-015  0.9000802E+02  0.7816164E-02  0.1186338E+00
        -11   -1    0    0    0    0  0.00000000000E+00  0.00000000000E+00  0.45593999997E+02  0.45594000000E+02  0.51100000000E-03 0.  1.
         11   -1    0    0    0    0 -0.00000000000E+00 -0.00000000000E+00 -0.45593999997E+02  0.45594000000E+02  0.51100000000E-03 0. -1.
    9900012    2    1    2    0    0 -0.44988503369E+00 -0.10047487503E+01  0.42476539908E+00  0.90008024475E+02  0.90000289598E+02 0.  0.
        -12    1    1    2    0    0  0.44988503369E+00  0.10047487503E+01 -0.42476539908E+00  0.11799755248E+01  0.00000000000E+00 0.  1.
         11    1    3    3    0    0 -0.47478075850E+01 -0.39431529842E+00  0.72410292998E+01  0.86677371326E+01  0.51100000000E-03 0. -1.
        -11    1    3    3    0    0 -0.22093148834E+02  0.23923537049E+02  0.18359390900E+02  0.37383286170E+02  0.51100000000E-03 0.  1.
         12    1    3    3    0    0  0.26391071386E+02 -0.24533970501E+02 -0.25175654801E+02  0.43957001173E+02  0.00000000000E+00 0. -1.
</event>
<event>
 7    1  0.5158441E-015  0.9000742E+02  0.7816164E-02  0.1186340E+00
        -11   -1    0    0    0    0  0.00000000000E+00  0.00000000000E+00  0.45593999997E+02  0.45594000000E+02  0.51100000000E-03 0. -1.
         11   -1    0    0    0    0 -0.00000000000E+00 -0.00000000000E+00 -0.45593999997E+02  0.45594000000E+02  0.51100000000E-03 0.  1.
    9900012    2    1    2    0    0  0.45382759635E+00 -0.10602822214E+01  0.25221102842E+00  0.90007420363E+02  0.89999677511E+02 0.  0.
        -12    1    1    2    0    0 -0.45382759635E+00  0.10602822214E+01 -0.25221102842E+00  0.11805796369E+01  0.00000000000E+00 0.  1.
         11    1    3    3    0    0 -0.88824761041E+01  0.11921603908E+01  0.40649421855E+01  0.98409035850E+01  0.51100000000E-03 0. -1.
        -11    1    3    3    0    0 -0.19974589868E+02  0.28599451950E+02  0.84233429270E+01  0.35886844366E+02  0.51100000000E-03 0.  1.
         12    1    3    3    0    0  0.29310893569E+02 -0.30851894563E+02 -0.12236074084E+02  0.44279672412E+02  0.00000000000E+00 0. -1.
</event>
<event>
 7    1  0.5158441E-015  0.9000754E+02  0.7816164E-02  0.1186339E+00
        -11   -1    0    0    0    0  0.00000000000E+00  0.00000000000E+00  0.45593999997E+02  0.45594000000E+02  0.51100000000E-03 0.  1.
         11   -1    0    0    0    0 -0.00000000000E+00 -0.00000000000E+00 -0.45593999997E+02  0.45594000000E+02  0.51100000000E-03 0. -1.
    9900012    2    1    2    0    0 -0.10361862707E+01  0.20186837474E+00 -0.52825285294E+00  0.90007540808E+02  0.89999799546E+02 0.  0.
        -12    1    1    2    0    0  0.10361862707E+01 -0.20186837474E+00  0.52825285294E+00  0.11804591924E+01  0.00000000000E+00 0.  1.
         11    1    3    3    0    0 -0.99904965439E+01 -0.34757347501E+01  0.49528942279E+01  0.11679979227E+02  0.51100000000E-03 0. -1.
        -11    1    3    3    0    0 -0.23238772033E+02  0.21885111432E+02  0.15841172385E+02  0.35636236765E+02  0.51100000000E-03 0.  1.
         12    1    3    3    0    0  0.32193082306E+02 -0.18207508307E+02 -0.21322319466E+02  0.42691324816E+02  0.00000000000E+00 0. -1.
</event>
<event>
 7    1  0.5158441E-015  0.9000787E+02  0.7816164E-02  0.1186339E+00
        -11   -1    0    0    0    0  0.00000000000E+00  0.00000000000E+00  0.45593999997E+02  0.45594000000E+02  0.51100000000E-03 0.  1.
         11   -1    0    0    0    0 -0.00000000000E+00 -0.00000000000E+00 -0.45593999997E+02  0.45594000000E+02  0.51100000000E-03 0. -1.
    9900012    2    1    2    0    0  0.89870318850E+00 -0.55123097334E+00 -0.53026520996E+00  0.90007871109E+02  0.90000134207E+02 0.  0.
        -12    1    1    2    0    0 -0.89870318850E+00  0.55123097334E+00  0.53026520996E+00  0.11801288912E+01  0.00000000000E+00 0.  1.
         11    1    3    3    0    0 -0.33255841445E+02 -0.17562568514E+02 -0.21642839469E+01  0.37670664028E+02  0.51100000000E-03 0. -1.
        -11    1    3    3    0    0 -0.71521115403E+01  0.55721834744E+01  0.27083675168E+01  0.94624089441E+01  0.51100000000E-03 0.  1.
        -12    1    3    3    0    0  0.41306656174E+02  0.11439154066E+02 -0.10743487798E+01  0.42874798137E+02  0.00000000000E+00 0.  1.
</event>
<event>
 7    1  0.5158441E-015  0.9000770E+02  0.7816164E-02  0.1186339E+00
        -11   -1    0    0    0    0  0.00000000000E+00  0.00000000000E+00  0.45593999997E+02  0.45594000000E+02  0.51100000000E-03 0.  1.
         11   -1    0    0    0    0 -0.00000000000E+00 -0.00000000000E+00 -0.45593999997E+02  0.45594000000E+02  0.51100000000E-03 0. -1.
    9900012    2    1    2    0    0 -0.18342479943E+00 -0.10479421854E+01  0.51115164798E+00  0.90007701949E+02  0.89999962815E+02 0.  0.
        -12    1    1    2    0    0  0.18342479943E+00  0.10479421854E+01 -0.51115164798E+00  0.11802980506E+01  0.00000000000E+00 0.  1.
         11    1    3    3    0    0  0.62314540145E+00 -0.59165604079E+01  0.11408491076E+02  0.12866532794E+02  0.51100000000E-03 0. -1.
        -11    1    3    3    0    0  0.36281531623E+02 -0.77232713918E+01 -0.32725139417E+01  0.37238525826E+02  0.51100000000E-03 0.  1.
         12    1    3    3    0    0 -0.37088101824E+02  0.12591889614E+02 -0.76248254867E+01  0.39902643329E+02  0.00000000000E+00 0. -1.
</event>
<event>
 7    1  0.5158441E-015  0.9000776E+02  0.7816164E-02  0.1186339E+00
        -11   -1    0    0    0    0  0.00000000000E+00  0.00000000000E+00  0.45593999997E+02  0.45594000000E+02  0.51100000000E-03 0.  1.
         11   -1    0    0    0    0 -0.00000000000E+00 -0.00000000000E+00 -0.45593999997E+02  0.45594000000E+02  0.51100000000E-03 0. -1.
    9900012    2    1    2    0    0  0.59160939618E+00 -0.95518604375E+00  0.36137478381E+00  0.90007756894E+02  0.90000018485E+02 0.  0.
        -12    1    1    2    0    0 -0.59160939618E+00  0.95518604375E+00 -0.36137478381E+00  0.11802431064E+01  0.00000000000E+00 0.  1.
         11    1    3    3    0    0  0.11544693477E+02  0.67645507861E+01 -0.57989804210E+01  0.14583115888E+02  0.51100000000E-03 0. -1.
        -11    1    3    3    0    0  0.28668096648E+02  0.64758700459E+01  0.14095467679E+02  0.32595687868E+02  0.51100000000E-03 0.  1.
         12    1    3    3    0    0 -0.39621180728E+02 -0.14195606876E+02 -0.79351124739E+01  0.42828953138E+02  0.00000000000E+00 0. -1.
</event>
<event>
 7    1  0.5158441E-015  0.9000774E+02  0.7816164E-02  0.1186339E+00
        -11   -1    0    0    0    0  0.00000000000E+00  0.00000000000E+00  0.45593999997E+02  0.45594000000E+02  0.51100000000E-03 0. -1.
         11   -1    0    0    0    0 -0.00000000000E+00 -0.00000000000E+00 -0.45593999997E+02  0.45594000000E+02  0.51100000000E-03 0.  1.
    9900012    2    1    2    0    0 -0.55698330273E+00  0.84840828076E+00  0.60248726318E+00  0.90007738202E+02  0.89999999546E+02 0.  0.
        -12    1    1    2    0    0  0.55698330273E+00 -0.84840828076E+00 -0.60248726318E+00  0.11802617984E+01  0.00000000000E+00 0.  1.
         11    1    3    3    0    0  0.67515316666E+01 -0.12935611454E+02  0.34290301306E+02  0.37265775015E+02  0.51100000000E-03 0. -1.
        -11    1    3    3    0    0  0.10113360410E+02 -0.76258352507E+00  0.21064767784E+01  0.10358515197E+02  0.51100000000E-03 0.  1.
        -12    1    3    3    0    0 -0.17421875379E+02  0.14546603260E+02 -0.35794290821E+02  0.42383447990E+02  0.00000000000E+00 0.  1.
</event>
<event>
 7    1  0.5158441E-015  0.9000773E+02  0.7816164E-02  0.1186339E+00
        -11   -1    0    0    0    0  0.00000000000E+00  0.00000000000E+00  0.45593999997E+02  0.45594000000E+02  0.51100000000E-03 0. -1.
         11   -1    0    0    0    0 -0.00000000000E+00 -0.00000000000E+00 -0.45593999997E+02  0.45594000000E+02  0.51100000000E-03 0.  1.
    9900012    2    1    2    0    0 -0.11118094170E+01 -0.39005866258E+00  0.69115384321E-01  0.90007727626E+02  0.89999988831E+02 0.  0.
        -12    1    1    2    0    0  0.11118094170E+01  0.39005866258E+00 -0.69115384321E-01  0.11802723738E+01  0.00000000000E+00 0.  1.
         11    1    3    3    0    0 -0.18557205219E+02  0.13115192255E+02  0.16866724119E+02  0.28299549753E+02  0.51100000000E-03 0. -1.
        -11    1    3    3    0    0  0.26047799820E+02  0.14384075287E+02 -0.12213144725E+02  0.32164427582E+02  0.51100000000E-03 0.  1.
         12    1    3    3    0    0 -0.86024040180E+01 -0.27889326205E+02 -0.45844640097E+01  0.29543750292E+02  0.00000000000E+00 0. -1.
</event>
<event>
 7    1  0.5158441E-015  0.9000778E+02  0.7816164E-02  0.1186339E+00
        -11   -1    0    0    0    0  0.00000000000E+00  0.00000000000E+00  0.45593999997E+02  0.45594000000E+02  0.51100000000E-03 0.  1.
         11   -1    0    0    0    0 -0.00000000000E+00 -0.00000000000E+00 -0.45593999997E+02  0.45594000000E+02  0.51100000000E-03 0. -1.
    9900012    2    1    2    0    0 -0.66015544628E+00  0.44866797473E+00 -0.86937868262E+00  0.90007776522E+02  0.90000038372E+02 0.  0.
        -12    1    1    2    0    0  0.66015544628E+00 -0.44866797473E+00  0.86937868262E+00  0.11802234782E+01  0.00000000000E+00 0.  1.
         11    1    3    3    0    0 -0.34412200798E+02 -0.11753233053E+02  0.87421864073E+01  0.37400051796E+02  0.51100000000E-03 0. -1.
        -11    1    3    3    0    0 -0.50526482922E+00  0.85956648196E+00  0.11003254849E+02  0.11048337640E+02  0.51100000000E-03 0.  1.
        -12    1    3    3    0    0  0.34257310181E+02  0.11342334546E+02 -0.20614819939E+02  0.41559387085E+02  0.00000000000E+00 0.  1.
</event>
<event>
 7    1  0.5158441E-015  0.9000762E+02  0.7816164E-02  0.1186339E+00
        -11   -1    0    0    0    0  0.00000000000E+00  0.00000000000E+00  0.45593999997E+02  0.45594000000E+02  0.51100000000E-03 0. -1.
         11   -1    0    0    0    0 -0.00000000000E+00 -0.00000000000E+00 -0.45593999997E+02  0.45594000000E+02  0.51100000000E-03 0.  1.
    9900012    2    1    2    0    0  0.50730664026E-01 -0.36242541969E+00  0.11222146418E+01  0.90007622312E+02  0.89999882126E+02 0.  0.
        -12    1    1    2    0    0 -0.50730664026E-01  0.36242541969E+00 -0.11222146418E+01  0.11803776884E+01  0.00000000000E+00 0.  1.
         11    1    3    3    0    0 -0.43303921271E+00 -0.34486473646E+02  0.17723379801E+02  0.38776572558E+02  0.51100000000E-03 0. -1.
        -11    1    3    3    0    0  0.18344483016E+01 -0.54531631538E+01 -0.93410924207E+01  0.10970788341E+02  0.51100000000E-03 0.  1.
        -12    1    3    3    0    0 -0.13506784249E+01  0.39577211380E+02 -0.72600727382E+01  0.40260261413E+02  0.00000000000E+00 0.  1.
</event>
<event>
 7    1  0.5158441E-015  0.9000773E+02  0.7816164E-02  0.1186339E+00
        -11   -1    0    0    0    0  0.00000000000E+00  0.00000000000E+00  0.45593999997E+02  0.45594000000E+02  0.51100000000E-03 0. -1.
         11   -1    0    0    0    0 -0.00000000000E+00 -0.00000000000E+00 -0.45593999997E+02  0.45594000000E+02  0.51100000000E-03 0.  1.
    9900012    2    1    2    0    0 -0.10722972054E+00  0.10836794179E+01  0.45516742382E+00  0.90007730252E+02  0.89999991492E+02 0.  0.
        -12    1    1    2    0    0  0.10722972054E+00 -0.10836794179E+01 -0.45516742382E+00  0.11802697477E+01  0.00000000000E+00 0.  1.
         11    1    3    3    0    0 -0.13809413608E+02  0.21604653000E+01  0.36996944207E+02  0.39549227495E+02  0.51100000000E-03 0. -1.
        -11    1    3    3    0    0 -0.63147731051E+01 -0.92614030917E+01 -0.51426142655E+01  0.12332738072E+02  0.51100000000E-03 0.  1.
        -12    1    3    3    0    0  0.20016956992E+02  0.81846172096E+01 -0.31399162517E+02  0.38125764686E+02  0.00000000000E+00 0.  1.
</event>
<event>
 7    1  0.5158441E-015  0.9000769E+02  0.7816164E-02  0.1186339E+00
        -11   -1    0    0    0    0  0.00000000000E+00  0.00000000000E+00  0.45593999997E+02  0.45594000000E+02  0.51100000000E-03 0. -1.
         11   -1    0    0    0    0 -0.00000000000E+00 -0.00000000000E+00 -0.45593999997E+02  0.45594000000E+02  0.51100000000E-03 0.  1.
    9900012    2    1    2    0    0  0.24425270993E+00  0.71539184681E+00  0.90646810293E+00  0.90007691014E+02  0.89999951735E+02 0.  0.
        -12    1    1    2    0    0 -0.24425270993E+00 -0.71539184681E+00 -0.90646810293E+00  0.11803089860E+01  0.00000000000E+00 0.  1.
         11    1    3    3    0    0  0.70580482002E+01 -0.59293608114E+01  0.32845476069E+01  0.97857864922E+01  0.51100000000E-03 0. -1.
        -11    1    3    3    0    0  0.35387279407E+02 -0.51559566169E+01 -0.59666483245E+01  0.36255266169E+02  0.51100000000E-03 0.  1.
         12    1    3    3    0    0 -0.42201074897E+02  0.11800709275E+02  0.35885688205E+01  0.43966638353E+02  0.00000000000E+00 0. -1.
</event>
<event>
 7    1  0.5158441E-015  0.9000766E+02  0.7816164E-02  0.1186339E+00
        -11   -1    0    0    0    0  0.00000000000E+00  0.00000000000E+00  0.45593999997E+02  0.45594000000E+02  0.51100000000E-03 0.  1.
         11   -1    0    0    0    0 -0.00000000000E+00 -0.00000000000E+00 -0.45593999997E+02  0.45594000000E+02  0.51100000000E-03 0. -1.
    9900012    2    1    2    0    0 -0.25137436871E+00 -0.69982440275E+00 -0.91665798542E+00  0.90007658892E+02  0.89999919190E+02 0.  0.
        -12    1    1    2    0    0  0.25137436871E+00  0.69982440275E+00  0.91665798542E+00  0.11803411075E+01  0.00000000000E+00 0.  1.
         11    1    3    3    0    0 -0.62477605284E+00  0.69959665321E+01  0.67549042250E+01  0.97448768173E+01  0.51100000000E-03 0. -1.
        -11    1    3    3    0    0 -0.73923365101E+01  0.15743717079E+02  0.30318504451E+02  0.34953154063E+02  0.51100000000E-03 0.  1.
         12    1    3    3    0    0  0.77657381942E+01 -0.23439508014E+02 -0.37990066661E+02  0.45309628012E+02  0.00000000000E+00 0. -1.
</event>
<event>
 7    1  0.5158441E-015  0.9000768E+02  0.7816164E-02  0.1186339E+00
        -11   -1    0    0    0    0  0.00000000000E+00  0.00000000000E+00  0.45593999997E+02  0.45594000000E+02  0.51100000000E-03 0.  1.
         11   -1    0    0    0    0 -0.00000000000E+00 -0.00000000000E+00 -0.45593999997E+02  0.45594000000E+02  0.51100000000E-03 0. -1.
    9900012    2    1    2    0    0  0.31429204815E+00 -0.81707482239E+00 -0.79168397137E+00  0.90007680438E+02  0.89999941020E+02 0.  0.
        -12    1    1    2    0    0 -0.31429204815E+00  0.81707482239E+00  0.79168397137E+00  0.11803195616E+01  0.00000000000E+00 0.  1.
         11    1    3    3    0    0  0.31443190903E+02 -0.27715915024E+02 -0.90209256586E+00  0.41924455525E+02  0.51100000000E-03 0. -1.
        -11    1    3    3    0    0  0.32594681581E+01  0.62317848567E+01 -0.33953208532E+01  0.78094480683E+01  0.51100000000E-03 0.  1.
        -12    1    3    3    0    0 -0.34388367013E+02  0.20667055345E+02  0.35057294477E+01  0.40273776846E+02  0.00000000000E+00 0.  1.
</event>
<event>
 7    1  0.5158441E-015  0.9000780E+02  0.7816164E-02  0.1186339E+00
        -11   -1    0    0    0    0  0.00000000000E+00  0.00000000000E+00  0.45593999997E+02  0.45594000000E+02  0.51100000000E-03 0. -1.
         11   -1    0    0    0    0 -0.00000000000E+00 -0.00000000000E+00 -0.45593999997E+02  0.45594000000E+02  0.51100000000E-03 0.  1.
    9900012    2    1    2    0    0  0.17928576268E+00  0.84049195650E+00 -0.80889465107E+00  0.90007796344E+02  0.90000058455E+02 0.  0.
        -12    1    1    2    0    0 -0.17928576268E+00 -0.84049195650E+00  0.80889465107E+00  0.11802036562E+01  0.00000000000E+00 0.  1.
         11    1    3    3    0    0 -0.33197669268E+01 -0.91057824973E+01 -0.19172208519E+01  0.98798716283E+01  0.51100000000E-03 0. -1.
        -11    1    3    3    0    0 -0.31519671724E+02  0.26661695044E+02 -0.57960263788E+00  0.41287669196E+02  0.51100000000E-03 0.  1.
         12    1    3    3    0    0  0.35018724413E+02 -0.16715420590E+02  0.16879288387E+01  0.38840255519E+02  0.00000000000E+00 0. -1.
</event>
<event>
 7    1  0.5158441E-015  0.9000773E+02  0.7816164E-02  0.1186339E+00
        -11   -1    0    0    0    0  0.00000000000E+00  0.00000000000E+00  0.45593999997E+02  0.45594000000E+02  0.51100000000E-03 0.  1.
         11   -1    0    0    0    0 -0.00000000000E+00 -0.00000000000E+00 -0.45593999997E+02  0.45594000000E+02  0.51100000000E-03 0. -1.
    9900012    2    1    2    0    0 -0.11842773084E+00  0.11243210093E+01  0.33899501139E+00  0.90007728643E+02  0.89999989861E+02 0.  0.
        -12    1    1    2    0    0  0.11842773084E+00 -0.11243210093E+01 -0.33899501139E+00  0.11802713574E+01  0.00000000000E+00 0.  1.
         11    1    3    3    0    0  0.99356924871E+01 -0.15798517217E+01 -0.93858108688E+00  0.10104199690E+02  0.51100000000E-03 0. -1.
        -11    1    3    3    0    0 -0.21813077073E+02 -0.31263373374E+02 -0.14317450687E+02  0.40720980348E+02  0.51100000000E-03 0.  1.
         12    1    3    3    0    0  0.11758956855E+02  0.33967546105E+02  0.15595026785E+02  0.39182548604E+02  0.00000000000E+00 0. -1.
</event>
<event>
 7    1  0.5158441E-015  0.9000771E+02  0.7816164E-02  0.1186339E+00
        -11   -1    0    0    0    0  0.00000000000E+00  0.00000000000E+00  0.45593999997E+02  0.45594000000E+02  0.51100000000E-03 0.  1.
         11   -1    0    0    0    0 -0.00000000000E+00 -0.00000000000E+00 -0.45593999997E+02  0.45594000000E+02  0.51100000000E-03 0. -1.
    9900012    2    1    2    0    0  0.66075805293E+00  0.97663230628E+00 -0.51780555719E-01  0.90007706353E+02  0.89999967277E+02 0.  0.
        -12    1    1    2    0    0 -0.66075805293E+00 -0.97663230628E+00  0.51780555719E-01  0.11802936466E+01  0.00000000000E+00 0.  1.
         11    1    3    3    0    0  0.19856873764E+02  0.46257361390E+01 -0.73783315094E+01  0.21682542440E+02  0.51100000000E-03 0. -1.
        -11    1    3    3    0    0  0.17278630504E+02 -0.17935273785E+01  0.22797380487E+02  0.28661618410E+02  0.51100000000E-03 0.  1.
        -12    1    3    3    0    0 -0.36474746216E+02 -0.18555764543E+01 -0.15470829533E+02  0.39663545504E+02  0.00000000000E+00 0.  1.
</event>
<event>
 7    1  0.5158441E-015  0.9000772E+02  0.7816164E-02  0.1186339E+00
        -11   -1    0    0    0    0  0.00000000000E+00  0.00000000000E+00  0.45593999997E+02  0.45594000000E+02  0.51100000000E-03 0. -1.
         11   -1    0    0    0    0 -0.00000000000E+00 -0.00000000000E+00 -0.45593999997E+02  0.45594000000E+02  0.51100000000E-03 0.  1.
    9900012    2    1    2    0    0 -0.10328032265E+01  0.38373583143E+00 -0.42323165837E+00  0.90007720063E+02  0.89999981168E+02 0.  0.
        -12    1    1    2    0    0  0.10328032265E+01 -0.38373583143E+00  0.42323165837E+00  0.11802799370E+01  0.00000000000E+00 0.  1.
         11    1    3    3    0    0 -0.30064497707E+02 -0.14849323776E+02  0.15625386441E+02  0.36993636489E+02  0.51100000000E-03 0. -1.
        -11    1    3    3    0    0 -0.75018272547E+01  0.48872367062E+01  0.43029644371E+01  0.99336799823E+01  0.51100000000E-03 0.  1.
        -12    1    3    3    0    0  0.36533521735E+02  0.10345822902E+02 -0.20351582537E+02  0.43080403592E+02  0.00000000000E+00 0.  1.
</event>
<event>
 7    1  0.5158441E-015  0.9000776E+02  0.7816164E-02  0.1186339E+00
        -11   -1    0    0    0    0  0.00000000000E+00  0.00000000000E+00  0.45593999997E+02  0.45594000000E+02  0.51100000000E-03 0. -1.
         11   -1    0    0    0    0 -0.00000000000E+00 -0.00000000000E+00 -0.45593999997E+02  0.45594000000E+02  0.51100000000E-03 0.  1.
    9900012    2    1    2    0    0  0.44833976103E+00 -0.11629059825E+00  0.10855575752E+01  0.90007759646E+02  0.90000021273E+02 0.  0.
        -12    1    1    2    0    0 -0.44833976103E+00  0.11629059825E+00 -0.10855575752E+01  0.11802403541E+01  0.00000000000E+00 0.  1.
         11    1    3    3    0    0 -0.29258141175E+01  0.81253006444E+01  0.18625614570E+01  0.88345930440E+01  0.51100000000E-03 0. -1.
        -11    1    3    3    0    0 -0.32770798612E+01  0.69240325480E+00 -0.40132455716E+02  0.40271983770E+02  0.51100000000E-03 0.  1.
         12    1    3    3    0    0  0.66512337396E+01 -0.89339944974E+01  0.39355451835E+02  0.40901182832E+02  0.00000000000E+00 0. -1.
</event>
<event>
 7    1  0.5158441E-015  0.9000778E+02  0.7816164E-02  0.1186339E+00
        -11   -1    0    0    0    0  0.00000000000E+00  0.00000000000E+00  0.45593999997E+02  0.45594000000E+02  0.51100000000E-03 0.  1.
         11   -1    0    0    0    0 -0.00000000000E+00 -0.00000000000E+00 -0.45593999997E+02  0.45594000000E+02  0.51100000000E-03 0. -1.
    9900012    2    1    2    0    0  0.68981547823E+00 -0.17495829375E+00 -0.94152002315E+00  0.90007781481E+02  0.90000043397E+02 0.  0.
        -12    1    1    2    0    0 -0.68981547823E+00  0.17495829375E+00  0.94152002315E+00  0.11802185190E+01  0.00000000000E+00 0.  1.
         11    1    3    3    0    0 -0.13862628601E+02 -0.16419391679E+02 -0.26204189291E+02  0.33888470480E+02  0.51100000000E-03 0. -1.
        -11    1    3    3    0    0 -0.43257829027E+01  0.34837774651E+01 -0.11555118838E+02  0.12820681525E+02  0.51100000000E-03 0.  1.
        -12    1    3    3    0    0  0.18878226981E+02  0.12760655920E+02  0.36817788106E+02  0.43298629476E+02  0.00000000000E+00 0.  1.
</event>
<event>
 7    1  0.5158441E-015  0.9000774E+02  0.7816164E-02  0.1186339E+00
        -11   -1    0    0    0    0  0.00000000000E+00  0.00000000000E+00  0.45593999997E+02  0.45594000000E+02  0.51100000000E-03 0. -1.
         11   -1    0    0    0    0 -0.00000000000E+00 -0.00000000000E+00 -0.45593999997E+02  0.45594000000E+02  0.51100000000E-03 0.  1.
    9900012    2    1    2    0    0 -0.39639067276E+00 -0.37987663619E+00  0.10447879189E+01  0.90007740020E+02  0.90000001389E+02 0.  0.
        -12    1    1    2    0    0  0.39639067276E+00  0.37987663619E+00 -0.10447879189E+01  0.11802599797E+01  0.00000000000E+00 0.  1.
         11    1    3    3    0    0 -0.49937515513E+01 -0.76819768772E+01  0.37440953722E+01  0.98979075423E+01  0.51100000000E-03 0. -1.
        -11    1    3    3    0    0  0.22900176207E+02 -0.22942330926E+02  0.20008675138E+02  0.38093512566E+02  0.51100000000E-03 0.  1.
         12    1    3    3    0    0 -0.18302815328E+02  0.30244431167E+02 -0.22707982591E+02  0.42016319912E+02  0.00000000000E+00 0. -1.
</event>
<event>
 7    1  0.5158441E-015  0.9000790E+02  0.7816164E-02  0.1186339E+00
        -11   -1    0    0    0    0  0.00000000000E+00  0.00000000000E+00  0.45593999997E+02  0.45594000000E+02  0.51100000000E-03 0. -1.
         11   -1    0    0    0    0 -0.00000000000E+00 -0.00000000000E+00 -0.45593999997E+02  0.45594000000E+02  0.51100000000E-03 0.  1.
    9900012    2    1    2    0    0 -0.70360427765E-01 -0.83730526840E+00  0.82862316195E+00  0.90007895324E+02  0.90000158742E+02 0.  0.
        -12    1    1    2    0    0  0.70360427765E-01  0.83730526840E+00 -0.82862316195E+00  0.11801046762E+01  0.00000000000E+00 0.  1.
         11    1    3    3    0    0 -0.52133223801E+01 -0.12196470059E+01 -0.73913197316E+00  0.54048668247E+01  0.51100000000E-03 0. -1.
        -11    1    3    3    0    0 -0.59902587464E+01 -0.12836608377E+02 -0.38469602739E+02  0.40994780761E+02  0.51100000000E-03 0.  1.
         12    1    3    3    0    0  0.11133220699E+02  0.13218950114E+02  0.40037357874E+02  0.43608247738E+02  0.00000000000E+00 0. -1.
</event>
<event>
 7    1  0.5158441E-015  0.9000789E+02  0.7816164E-02  0.1186339E+00
        -11   -1    0    0    0    0  0.00000000000E+00  0.00000000000E+00  0.45593999997E+02  0.45594000000E+02  0.51100000000E-03 0.  1.
         11   -1    0    0    0    0 -0.00000000000E+00 -0.00000000000E+00 -0.45593999997E+02  0.45594000000E+02  0.51100000000E-03 0. -1.
    9900012    2    1    2    0    0 -0.26680618909E+00 -0.11223111899E+01 -0.24876573743E+00  0.90007893080E+02  0.90000156469E+02 0.  0.
        -12    1    1    2    0    0  0.26680618909E+00  0.11223111899E+01  0.24876573743E+00  0.11801069195E+01  0.00000000000E+00 0.  1.
         11    1    3    3    0    0 -0.34781699272E+01 -0.14097414214E+02 -0.33139178307E+02  0.36180656333E+02  0.51100000000E-03 0. -1.
        -11    1    3    3    0    0  0.41738336230E+01 -0.76137442253E+01 -0.54827592854E+01  0.10268916101E+02  0.51100000000E-03 0.  1.
        -12    1    3    3    0    0 -0.96246988486E+00  0.20588847249E+02  0.38373171855E+02  0.43558320647E+02  0.00000000000E+00 0.  1.
</event>
<event>
 7    1  0.5158441E-015  0.9000771E+02  0.7816164E-02  0.1186339E+00
        -11   -1    0    0    0    0  0.00000000000E+00  0.00000000000E+00  0.45593999997E+02  0.45594000000E+02  0.51100000000E-03 0.  1.
         11   -1    0    0    0    0 -0.00000000000E+00 -0.00000000000E+00 -0.45593999997E+02  0.45594000000E+02  0.51100000000E-03 0. -1.
    9900012    2    1    2    0    0  0.56514174223E+00  0.94716728050E+00 -0.42021104500E+00  0.90007708355E+02  0.89999969305E+02 0.  0.
        -12    1    1    2    0    0 -0.56514174223E+00 -0.94716728050E+00  0.42021104500E+00  0.11802916455E+01  0.00000000000E+00 0.  1.
         11    1    3    3    0    0  0.64035086878E+01  0.15728348172E+02  0.50987399406E+01  0.17730849077E+02  0.51100000000E-03 0. -1.
        -11    1    3    3    0    0  0.16458107239E+02 -0.18923305773E+02  0.24228531857E+02  0.34870941362E+02  0.51100000000E-03 0.  1.
         12    1    3    3    0    0 -0.22296474184E+02  0.41421248815E+01 -0.29747482843E+02  0.37405917915E+02  0.00000000000E+00 0. -1.
</event>
<event>
 7    1  0.5158441E-015  0.9000762E+02  0.7816164E-02  0.1186339E+00
        -11   -1    0    0    0    0  0.00000000000E+00  0.00000000000E+00  0.45593999997E+02  0.45594000000E+02  0.51100000000E-03 0. -1.
         11   -1    0    0    0    0 -0.00000000000E+00 -0.00000000000E+00 -0.45593999997E+02  0.45594000000E+02  0.51100000000E-03 0.  1.
    9900012    2    1    2    0    0  0.30180618225E+00 -0.44443186297E+00  0.10510433455E+01  0.90007619228E+02  0.89999879002E+02 0.  0.
        -12    1    1    2    0    0 -0.30180618225E+00  0.44443186297E+00 -0.10510433455E+01  0.11803807718E+01  0.00000000000E+00 0.  1.
         11    1    3    3    0    0 -0.52311401132E+01  0.71379418799E+01  0.24692307903E+01  0.91876080740E+01  0.51100000000E-03 0. -1.
        -11    1    3    3    0    0 -0.27739847542E+02  0.20060600118E+02 -0.12019883817E+02  0.36282288047E+02  0.51100000000E-03 0.  1.
         12    1    3    3    0    0  0.33272793837E+02 -0.27642973860E+02  0.10601696372E+02  0.44537723107E+02  0.00000000000E+00 0. -1.
</event>
<event>
 7    1  0.5158441E-015  0.9000771E+02  0.7816164E-02  0.1186339E+00
        -11   -1    0    0    0    0  0.00000000000E+00  0.00000000000E+00  0.45593999997E+02  0.45594000000E+02  0.51100000000E-03 0.  1.
         11   -1    0    0    0    0 -0.00000000000E+00 -0.00000000000E+00 -0.45593999997E+02  0.45594000000E+02  0.51100000000E-03 0. -1.
    9900012    2    1    2    0    0  0.94733132878E+00  0.14778521772E+00 -0.68833555072E+00  0.90007710651E+02  0.89999971632E+02 0.  0.
        -12    1    1    2    0    0 -0.94733132878E+00 -0.14778521772E+00  0.68833555072E+00  0.11802893490E+01  0.00000000000E+00 0.  1.
         11    1    3    3    0    0 -0.12163306618E+02 -0.12592694498E+02 -0.32105822686E+02  0.36569192405E+02  0.51100000000E-03 0. -1.
        -11    1    3    3    0    0  0.46025897443E+01 -0.10167500138E+02 -0.26900728634E+01  0.11480347716E+02  0.51100000000E-03 0.  1.
        -12    1    3    3    0    0  0.85080482020E+01  0.22907979854E+02  0.34107559998E+02  0.41958170530E+02  0.00000000000E+00 0.  1.
</event>
<event>
 7    1  0.5158441E-015  0.9000769E+02  0.7816164E-02  0.1186339E+00
        -11   -1    0    0    0    0  0.00000000000E+00  0.00000000000E+00  0.45593999997E+02  0.45594000000E+02  0.51100000000E-03 0.  1.
         11   -1    0    0    0    0 -0.00000000000E+00 -0.00000000000E+00 -0.45593999997E+02  0.45594000000E+02  0.51100000000E-03 0. -1.
    9900012    2    1    2    0    0  0.32029592042E+00  0.10293141872E+01 -0.48068088929E+00  0.90007690172E+02  0.89999950882E+02 0.  0.
        -12    1    1    2    0    0 -0.32029592042E+00 -0.10293141872E+01  0.48068088929E+00  0.11803098280E+01  0.00000000000E+00 0.  1.
         11    1    3    3    0    0  0.24425254898E+02  0.19771724242E+02  0.10892777869E+02  0.33259085470E+02  0.51100000000E-03 0. -1.
        -11    1    3    3    0    0  0.11609510854E+02  0.50693327732E+01 -0.28970780312E+01  0.12995073621E+02  0.51100000000E-03 0.  1.
        -12    1    3    3    0    0 -0.35714469831E+02 -0.23811742828E+02 -0.84763807273E+01  0.43753531081E+02  0.00000000000E+00 0.  1.
</event>
<event>
 7    1  0.5158441E-015  0.9000762E+02  0.7816164E-02  0.1186339E+00
        -11   -1    0    0    0    0  0.00000000000E+00  0.00000000000E+00  0.45593999997E+02  0.45594000000E+02  0.51100000000E-03 0. -1.
         11   -1    0    0    0    0 -0.00000000000E+00 -0.00000000000E+00 -0.45593999997E+02  0.45594000000E+02  0.51100000000E-03 0.  1.
    9900012    2    1    2    0    0 -0.88148131781E+00 -0.52804718099E+00  0.58089767025E+00  0.90007624957E+02  0.89999884806E+02 0.  0.
        -12    1    1    2    0    0  0.88148131781E+00  0.52804718099E+00 -0.58089767025E+00  0.11803750431E+01  0.00000000000E+00 0.  1.
         11    1    3    3    0    0  0.89372555731E+00 -0.26549597138E+01 -0.78188037269E+01  0.83054950746E+01  0.51100000000E-03 0. -1.
        -11    1    3    3    0    0  0.19365284424E+02 -0.25319884107E+02 -0.19371227333E+02  0.37300874262E+02  0.51100000000E-03 0.  1.
         12    1    3    3    0    0 -0.21140491299E+02  0.27446796640E+02  0.27770928730E+02  0.44401255621E+02  0.00000000000E+00 0. -1.
</event>
<event>
 7    1  0.5158441E-015  0.9000765E+02  0.7816164E-02  0.1186339E+00
        -11   -1    0    0    0    0  0.00000000000E+00  0.00000000000E+00  0.45593999997E+02  0.45594000000E+02  0.51100000000E-03 0. -1.
         11   -1    0    0    0    0 -0.00000000000E+00 -0.00000000000E+00 -0.45593999997E+02  0.45594000000E+02  0.51100000000E-03 0.  1.
    9900012    2    1    2    0    0 -0.10091026559E+01  0.46477312156E+00  0.39864301118E+00  0.90007653240E+02  0.89999913462E+02 0.  0.
        -12    1    1    2    0    0  0.10091026559E+01 -0.46477312156E+00 -0.39864301118E+00  0.11803467605E+01  0.00000000000E+00 0.  1.
         11    1    3    3    0    0 -0.10686029002E+02  0.39547401602E+00 -0.29387983410E+01  0.11089821977E+02  0.51100000000E-03 0. -1.
        -11    1    3    3    0    0 -0.20133156607E+02 -0.25334786754E+02  0.18080081030E+02  0.37068649087E+02  0.51100000000E-03 0.  1.
         12    1    3    3    0    0  0.29810082953E+02  0.25404085860E+02 -0.14742639678E+02  0.41849182175E+02  0.00000000000E+00 0. -1.
</event>
<event>
 7    1  0.5158441E-015  0.9000772E+02  0.7816164E-02  0.1186339E+00
        -11   -1    0    0    0    0  0.00000000000E+00  0.00000000000E+00  0.45593999997E+02  0.45594000000E+02  0.51100000000E-03 0.  1.
         11   -1    0    0    0    0 -0.00000000000E+00 -0.00000000000E+00 -0.45593999997E+02  0.45594000000E+02  0.51100000000E-03 0. -1.
    9900012    2    1    2    0    0 -0.11612332431E+01 -0.13904758598E+00 -0.15891290646E+00  0.90007724529E+02  0.89999985693E+02 0.  0.
        -12    1    1    2    0    0  0.11612332431E+01  0.13904758598E+00  0.15891290646E+00  0.11802754712E+01  0.00000000000E+00 0.  1.
         11    1    3    3    0    0  0.29954843878E+02 -0.11330250165E+02 -0.12706640441E+02  0.34454694195E+02  0.51100000000E-03 0. -1.
        -11    1    3    3    0    0  0.88267214810E+01 -0.50573383077E+01 -0.13166507778E+01  0.10257741096E+02  0.51100000000E-03 0.  1.
        -12    1    3    3    0    0 -0.39942798602E+02  0.16248540887E+02  0.13864378312E+02  0.45295289237E+02  0.00000000000E+00 0.  1.
</event>
<event>
 7    1  0.5158441E-015  0.9000766E+02  0.7816164E-02  0.1186339E+00
        -11   -1    0    0    0    0  0.00000000000E+00  0.00000000000E+00  0.45593999997E+02  0.45594000000E+02  0.51100000000E-03 0.  1.
         11   -1    0    0    0    0 -0.00000000000E+00 -0.00000000000E+00 -0.45593999997E+02  0.45594000000E+02  0.51100000000E-03 0. -1.
    9900012    2    1    2    0    0 -0.25849555319E+00 -0.43298666108E+00 -0.10671988729E+01  0.90007656476E+02  0.89999916742E+02 0.  0.
        -12    1    1    2    0    0  0.25849555319E+00  0.43298666108E+00  0.10671988729E+01  0.11803435237E+01  0.00000000000E+00 0.  1.
         11    1    3    3    0    0 -0.31786563240E+00 -0.72863307801E+01 -0.40192286101E+01  0.83274157863E+01  0.51100000000E-03 0. -1.
        -11    1    3    3    0    0 -0.37561847065E+02 -0.85064817794E+01 -0.85441888686E+01  0.39449407484E+02  0.51100000000E-03 0.  1.
         12    1    3    3    0    0  0.37621217144E+02  0.15359825898E+02  0.11496218606E+02  0.42230833206E+02  0.00000000000E+00 0. -1.
</event>
<event>
 7    1  0.5158441E-015  0.9000780E+02  0.7816164E-02  0.1186339E+00
        -11   -1    0    0    0    0  0.00000000000E+00  0.00000000000E+00  0.45593999997E+02  0.45594000000E+02  0.51100000000E-03 0. -1.
         11   -1    0    0    0    0 -0.00000000000E+00 -0.00000000000E+00 -0.45593999997E+02  0.45594000000E+02  0.51100000000E-03 0.  1.
    9900012    2    1    2    0    0  0.10665765666E+01  0.97689918459E-01  0.49571917175E+00  0.90007802394E+02  0.90000064585E+02 0.  0.
        -12    1    1    2    0    0 -0.10665765666E+01 -0.97689918459E-01 -0.49571917175E+00  0.11801976062E+01  0.00000000000E+00 0.  1.
         11    1    3    3    0    0  0.40355629735E+02 -0.76704094223E+01  0.78436435037E+01  0.41820267523E+02  0.51100000000E-03 0. -1.
        -11    1    3    3    0    0 -0.30101100769E+01  0.83878119620E+01  0.45453596331E+01  0.10003821602E+02  0.51100000000E-03 0.  1.
        -12    1    3    3    0    0 -0.36278943091E+02 -0.61971262120E+00 -0.11893283965E+02  0.38183713269E+02  0.00000000000E+00 0.  1.
</event>
<event>
 7    1  0.5158441E-015  0.9000771E+02  0.7816164E-02  0.1186339E+00
        -11   -1    0    0    0    0  0.00000000000E+00  0.00000000000E+00  0.45593999997E+02  0.45594000000E+02  0.51100000000E-03 0. -1.
         11   -1    0    0    0    0 -0.00000000000E+00 -0.00000000000E+00 -0.45593999997E+02  0.45594000000E+02  0.51100000000E-03 0.  1.
    9900012    2    1    2    0    0  0.94035760491E+00 -0.48144114980E+00  0.52632390328E+00  0.90007714078E+02  0.89999975104E+02 0.  0.
        -12    1    1    2    0    0 -0.94035760491E+00  0.48144114980E+00 -0.52632390328E+00  0.11802859217E+01  0.00000000000E+00 0.  1.
         11    1    3    3    0    0 -0.35093809285E+01  0.28390453832E+02  0.22395020004E+02  0.36330022633E+02  0.51100000000E-03 0. -1.
        -11    1    3    3    0    0 -0.33915634170E+01  0.48916183976E-01  0.96257375020E+01  0.10205876637E+02  0.51100000000E-03 0.  1.
        -12    1    3    3    0    0  0.78413019505E+01 -0.28920811166E+02 -0.31494433603E+02  0.43471814808E+02  0.00000000000E+00 0.  1.
</event>
<event>
 7    1  0.5158441E-015  0.9000774E+02  0.7816164E-02  0.1186339E+00
        -11   -1    0    0    0    0  0.00000000000E+00  0.00000000000E+00  0.45593999997E+02  0.45594000000E+02  0.51100000000E-03 0.  1.
         11   -1    0    0    0    0 -0.00000000000E+00 -0.00000000000E+00 -0.45593999997E+02  0.45594000000E+02  0.51100000000E-03 0. -1.
    9900012    2    1    2    0    0 -0.10167906132E+01  0.27643551855E+00  0.53173072191E+00  0.90007738458E+02  0.89999999806E+02 0.  0.
        -12    1    1    2    0    0  0.10167906132E+01 -0.27643551855E+00 -0.53173072191E+00  0.11802615420E+01  0.00000000000E+00 0.  1.
         11    1    3    3    0    0  0.94050351770E+01  0.35243955056E+01 -0.34642096976E+01  0.10624349366E+02  0.51100000000E-03 0. -1.
        -11    1    3    3    0    0 -0.29982705296E+01 -0.25263685498E+02 -0.29286576059E+02  0.38793645983E+02  0.51100000000E-03 0.  1.
         12    1    3    3    0    0 -0.74235552605E+01  0.22015725511E+02  0.33282516479E+02  0.40589743109E+02  0.00000000000E+00 0. -1.
</event>
<event>
 7    1  0.5158441E-015  0.9000768E+02  0.7816164E-02  0.1186339E+00
        -11   -1    0    0    0    0  0.00000000000E+00  0.00000000000E+00  0.45593999997E+02  0.45594000000E+02  0.51100000000E-03 0. -1.
         11   -1    0    0    0    0 -0.00000000000E+00 -0.00000000000E+00 -0.45593999997E+02  0.45594000000E+02  0.51100000000E-03 0.  1.
    9900012    2    1    2    0    0  0.18357134739E-01 -0.25762100184E+00  0.11517125889E+01  0.90007683325E+02  0.89999943945E+02 0.  0.
        -12    1    1    2    0    0 -0.18357134739E-01  0.25762100184E+00 -0.11517125889E+01  0.11803166746E+01  0.00000000000E+00 0.  1.
         11    1    3    3    0    0  0.18212478124E+02  0.39051217808E+01  0.33805247990E+02  0.38597138851E+02  0.51100000000E-03 0. -1.
        -11    1    3    3    0    0 -0.38882746218E+00 -0.56037968054E+01  0.63698338313E+01  0.84928504479E+01  0.51100000000E-03 0.  1.
        -12    1    3    3    0    0 -0.17805293527E+02  0.14410540228E+01 -0.39023369233E+02  0.42917694026E+02  0.00000000000E+00 0.  1.
</event>
<event>
 7    1  0.5158441E-015  0.9000784E+02  0.7816164E-02  0.1186339E+00
        -11   -1    0    0    0    0  0.00000000000E+00  0.00000000000E+00  0.45593999997E+02  0.45594000000E+02  0.51100000000E-03 0.  1.
         11   -1    0    0    0    0 -0.00000000000E+00 -0.00000000000E+00 -0.45593999997E+02  0.45594000000E+02  0.51100000000E-03 0. -1.
    9900012    2    1    2    0    0  0.65289219472E+00  0.66492712774E+00  0.72414464010E+00  0.90007838247E+02  0.90000100912E+02 0.  0.
        -12    1    1    2    0    0 -0.65289219472E+00 -0.66492712774E+00 -0.72414464010E+00  0.11801617529E+01  0.00000000000E+00 0.  1.
         11    1    3    3    0    0  0.30442015586E+01  0.15391012858E+00 -0.11997828552E+02  0.12378963676E+02  0.51100000000E-03 0. -1.
        -11    1    3    3    0    0 -0.20347682838E+02 -0.31107569684E+02  0.17263773962E+02  0.40984716422E+02  0.51100000000E-03 0.  1.
         12    1    3    3    0    0  0.17956373474E+02  0.31618586684E+02 -0.45418007700E+01  0.36644158149E+02  0.00000000000E+00 0. -1.
</event>
<event>
 7    1  0.5158441E-015  0.9000776E+02  0.7816164E-02  0.1186339E+00
        -11   -1    0    0    0    0  0.00000000000E+00  0.00000000000E+00  0.45593999997E+02  0.45594000000E+02  0.51100000000E-03 0. -1.
         11   -1    0    0    0    0 -0.00000000000E+00 -0.00000000000E+00 -0.45593999997E+02  0.45594000000E+02  0.51100000000E-03 0.  1.
    9900012    2    1    2    0    0  0.27866249761E-01  0.11799148138E+01  0.24335507579E-04  0.90007756171E+02  0.90000017752E+02 0.  0.
        -12    1    1    2    0    0 -0.27866249761E-01 -0.11799148138E+01 -0.24335507576E-04  0.11802438292E+01  0.00000000000E+00 0.  1.
         11    1    3    3    0    0  0.51889534525E+01  0.30108429116E+01 -0.72467704698E+01  0.94077678264E+01  0.51100000000E-03 0. -1.
        -11    1    3    3    0    0  0.29880185451E+02 -0.39523730711E+01 -0.19990601900E+02  0.36167262823E+02  0.51100000000E-03 0.  1.
         12    1    3    3    0    0 -0.35041272654E+02  0.21214449732E+01  0.27237396706E+02  0.44432725522E+02  0.00000000000E+00 0. -1.
</event>
<event>
 7    1  0.5158441E-015  0.9000778E+02  0.7816164E-02  0.1186339E+00
        -11   -1    0    0    0    0  0.00000000000E+00  0.00000000000E+00  0.45593999997E+02  0.45594000000E+02  0.51100000000E-03 0.  1.
         11   -1    0    0    0    0 -0.00000000000E+00 -0.00000000000E+00 -0.45593999997E+02  0.45594000000E+02  0.51100000000E-03 0. -1.
    9900012    2    1    2    0    0 -0.80870586109E+00 -0.84859100023E+00 -0.13711821614E+00  0.90007782537E+02  0.90000044466E+02 0.  0.
        -12    1    1    2    0    0  0.80870586109E+00  0.84859100023E+00  0.13711821614E+00  0.11802174633E+01  0.00000000000E+00 0.  1.
         11    1    3    3    0    0 -0.22773572045E+01 -0.45605744840E+00 -0.10924278318E+02  0.11168446681E+02  0.51100000000E-03 0. -1.
        -11    1    3    3    0    0  0.23883489963E+02  0.14334718089E+02 -0.22701891503E+02  0.35934400142E+02  0.51100000000E-03 0.  1.
         12    1    3    3    0    0 -0.22414838619E+02 -0.14727251641E+02  0.33489051605E+02  0.42904935714E+02  0.00000000000E+00 0. -1.
</event>
<event>
 7    1  0.5158441E-015  0.9000767E+02  0.7816164E-02  0.1186339E+00
        -11   -1    0    0    0    0  0.00000000000E+00  0.00000000000E+00  0.45593999997E+02  0.45594000000E+02  0.51100000000E-03 0. -1.
         11   -1    0    0    0    0 -0.00000000000E+00 -0.00000000000E+00 -0.45593999997E+02  0.45594000000E+02  0.51100000000E-03 0.  1.
    9900012    2    1    2    0    0 -0.16627079453E+00  0.11685031341E+01 -0.11917177722E-01  0.90007666331E+02  0.89999926726E+02 0.  0.
        -12    1    1    2    0    0  0.16627079453E+00 -0.11685031341E+01  0.11917177722E-01  0.11803336692E+01  0.00000000000E+00 0.  1.
         11    1    3    3    0    0  0.27035802230E+02 -0.22925068073E+02 -0.11581459463E+02  0.37291065310E+02  0.51100000000E-03 0. -1.
        -11    1    3    3    0    0  0.62548454202E+01  0.13845240233E+01 -0.58618914521E+01  0.86834192378E+01  0.51100000000E-03 0.  1.
        -12    1    3    3    0    0 -0.33456918445E+02  0.22709047184E+02  0.17431433738E+02  0.44033181783E+02  0.00000000000E+00 0.  1.
</event>
<event>
 7    1  0.5158441E-015  0.9000773E+02  0.7816164E-02  0.1186339E+00
        -11   -1    0    0    0    0  0.00000000000E+00  0.00000000000E+00  0.45593999997E+02  0.45594000000E+02  0.51100000000E-03 0. -1.
         11   -1    0    0    0    0 -0.00000000000E+00 -0.00000000000E+00 -0.45593999997E+02  0.45594000000E+02  0.51100000000E-03 0.  1.
    9900012    2    1    2    0    0 -0.91127161107E+00  0.27790457345E+00  0.69669696696E+00  0.90007731571E+02  0.89999992828E+02 0.  0.
        -12    1    1    2    0    0  0.91127161107E+00 -0.27790457345E+00 -0.69669696696E+00  0.11802684292E+01  0.00000000000E+00 0.  1.
         11    1    3    3    0    0  0.26347343491E+01  0.75189760043E+01  0.58161299767E+01  0.98642887939E+01  0.51100000000E-03 0. -1.
        -11    1    3    3    0    0 -0.95632666503E+01 -0.65906584227E+00 -0.41547830072E+02  0.42639331852E+02  0.51100000000E-03 0.  1.
         12    1    3    3    0    0  0.60172606901E+01 -0.65820055885E+01  0.36428397062E+02  0.37504110925E+02  0.00000000000E+00 0. -1.
</event>
<event>
 7    1  0.5158441E-015  0.9000777E+02  0.7816164E-02  0.1186339E+00
        -11   -1    0    0    0    0  0.00000000000E+00  0.00000000000E+00  0.45593999997E+02  0.45594000000E+02  0.51100000000E-03 0.  1.
         11   -1    0    0    0    0 -0.00000000000E+00 -0.00000000000E+00 -0.45593999997E+02  0.45594000000E+02  0.51100000000E-03 0. -1.
    9900012    2    1    2    0    0 -0.10433597236E+01 -0.54683748947E+00 -0.72841455552E-01  0.90007772636E+02  0.90000034435E+02 0.  0.
        -12    1    1    2    0    0  0.10433597236E+01  0.54683748947E+00  0.72841455552E-01  0.11802273638E+01  0.00000000000E+00 0.  1.
         11    1    3    3    0    0 -0.84133242814E+01 -0.27223700185E+02 -0.25236252517E+02  0.38062873231E+02  0.51100000000E-03 0. -1.
        -11    1    3    3    0    0  0.42702699018E+01 -0.61632367481E+01 -0.34725349672E+01  0.82631223885E+01  0.51100000000E-03 0.  1.
        -12    1    3    3    0    0  0.30996946560E+01  0.32840099443E+02  0.28635946029E+02  0.43681777017E+02  0.00000000000E+00 0.  1.
</event>
<event>
 7    1  0.6715993E-015  0.9000773E+02  0.7816164E-02  0.1186339E+00
        -11   -1    0    0    0    0  0.00000000000E+00  0.00000000000E+00  0.45593999997E+02  0.45594000000E+02  0.51100000000E-03 0.  1.
         11   -1    0    0    0    0 -0.00000000000E+00 -0.00000000000E+00 -0.45593999997E+02  0.45594000000E+02  0.51100000000E-03 0. -1.
    9900012    2    1    2    0    0 -0.60689868252E+00 -0.85967173152E+00 -0.53448791546E+00  0.90007729341E+02  0.89999990568E+02 0.  0.
        -12    1    1    2    0    0  0.60689868252E+00  0.85967173152E+00  0.53448791546E+00  0.11802706590E+01  0.00000000000E+00 0.  1.
         11    1    3    3    0    0  0.53789495374E+01  0.40152376258E+01 -0.38266639408E+02  0.38850880597E+02  0.51100000000E-03 0. -1.
        -11    1    3    3    0    0 -0.83259081313E+01  0.40459417915E+01 -0.27346529563E+01  0.96523944306E+01  0.51100000000E-03 0.  1.
        -12    1    3    3    0    0  0.23400599113E+01 -0.89208511488E+01  0.40466804449E+02  0.41504454314E+02  0.00000000000E+00 0.  1.
</event>
<event>
 7    1  0.5158441E-015  0.9000788E+02  0.7816164E-02  0.1186339E+00
        -11   -1    0    0    0    0  0.00000000000E+00  0.00000000000E+00  0.45593999997E+02  0.45594000000E+02  0.51100000000E-03 0.  1.
         11   -1    0    0    0    0 -0.00000000000E+00 -0.00000000000E+00 -0.45593999997E+02  0.45594000000E+02  0.51100000000E-03 0. -1.
    9900012    2    1    2    0    0 -0.33458872687E+00  0.83383942894E+00  0.76514856609E+00  0.90007877067E+02  0.90000140244E+02 0.  0.
        -12    1    1    2    0    0  0.33458872687E+00 -0.83383942894E+00 -0.76514856609E+00  0.11801229333E+01  0.00000000000E+00 0.  1.
         11    1    3    3    0    0 -0.78668818217E+01 -0.64447190482E+01 -0.19575575172E+01  0.10356363498E+02  0.51100000000E-03 0. -1.
        -11    1    3    3    0    0 -0.12016342936E+02  0.22857577045E+01  0.37500465457E+02  0.39444924839E+02  0.51100000000E-03 0.  1.
         12    1    3    3    0    0  0.19548636031E+02  0.49928007726E+01 -0.34777759374E+02  0.40206588729E+02  0.00000000000E+00 0. -1.
</event>
<event>
 7    1  0.5158441E-015  0.9000834E+02  0.7816164E-02  0.1186338E+00
        -11   -1    0    0    0    0  0.00000000000E+00  0.00000000000E+00  0.45593999997E+02  0.45594000000E+02  0.51100000000E-03 0.  1.
         11   -1    0    0    0    0 -0.00000000000E+00 -0.00000000000E+00 -0.45593999997E+02  0.45594000000E+02  0.51100000000E-03 0. -1.
    9900012    2    1    2    0    0 -0.24769461957E+00  0.83057330233E+00  0.80024134086E+00  0.90008342915E+02  0.90000612239E+02 0.  0.
        -12    1    1    2    0    0  0.24769461957E+00 -0.83057330233E+00 -0.80024134086E+00  0.11796570852E+01  0.00000000000E+00 0.  1.
         11    1    3    3    0    0  0.48566985715E+01  0.63011722626E+01  0.18210087379E+02  0.19872080301E+02  0.51100000000E-03 0. -1.
        -11    1    3    3    0    0 -0.30186278126E+02 -0.37838623521E-01  0.10743628241E+02  0.32041197963E+02  0.51100000000E-03 0.  1.
         12    1    3    3    0    0  0.25081884935E+02 -0.54327603367E+01 -0.28153474278E+02  0.38095064651E+02  0.00000000000E+00 0. -1.
</event>
<event>
 7    1  0.5158441E-015  0.9000774E+02  0.7816164E-02  0.1186339E+00
        -11   -1    0    0    0    0  0.00000000000E+00  0.00000000000E+00  0.45593999997E+02  0.45594000000E+02  0.51100000000E-03 0.  1.
         11   -1    0    0    0    0 -0.00000000000E+00 -0.00000000000E+00 -0.45593999997E+02  0.45594000000E+02  0.51100000000E-03 0. -1.
    9900012    2    1    2    0    0  0.51938481228E+00  0.78103403116E+00 -0.71641272168E+00  0.90007736500E+02  0.89999997822E+02 0.  0.
        -12    1    1    2    0    0 -0.51938481228E+00 -0.78103403116E+00  0.71641272168E+00  0.11802634998E+01  0.00000000000E+00 0.  1.
         11    1    3    3    0    0 -0.33056126793E+02 -0.76697004251E+01  0.10278195543E+02  0.35456637277E+02  0.51100000000E-03 0. -1.
        -11    1    3    3    0    0 -0.59745203283E+01 -0.77356663068E+01  0.18088532915E+01  0.99401899808E+01  0.51100000000E-03 0.  1.
        -12    1    3    3    0    0  0.39550031933E+02  0.16186400763E+02 -0.12803461556E+02  0.44610909242E+02  0.00000000000E+00 0.  1.
</event>
<event>
 7    1  0.5158441E-015  0.9000769E+02  0.7816164E-02  0.1186339E+00
        -11   -1    0    0    0    0  0.00000000000E+00  0.00000000000E+00  0.45593999997E+02  0.45594000000E+02  0.51100000000E-03 0.  1.
         11   -1    0    0    0    0 -0.00000000000E+00 -0.00000000000E+00 -0.45593999997E+02  0.45594000000E+02  0.51100000000E-03 0. -1.
    9900012    2    1    2    0    0  0.27231419142E+00 -0.10389929875E+01 -0.48934972392E+00  0.90007693006E+02  0.89999953754E+02 0.  0.
        -12    1    1    2    0    0 -0.27231419142E+00  0.10389929875E+01  0.48934972392E+00  0.11803069936E+01  0.00000000000E+00 0.  1.
         11    1    3    3    0    0  0.37898700869E+02  0.61904533495E+01 -0.58523655010E+01  0.38844348655E+02  0.51100000000E-03 0. -1.
        -11    1    3    3    0    0  0.27589159158E+01  0.29007271422E+01  0.85136478510E+01  0.94078709056E+01  0.51100000000E-03 0.  1.
        -12    1    3    3    0    0 -0.40385302593E+02 -0.10130173479E+02 -0.31506320740E+01  0.41755473446E+02  0.00000000000E+00 0.  1.
</event>
<event>
 7    1  0.5158441E-015  0.9000799E+02  0.7816164E-02  0.1186339E+00
        -11   -1    0    0    0    0  0.00000000000E+00  0.00000000000E+00  0.45593999997E+02  0.45594000000E+02  0.51100000000E-03 0.  1.
         11   -1    0    0    0    0 -0.00000000000E+00 -0.00000000000E+00 -0.45593999997E+02  0.45594000000E+02  0.51100000000E-03 0. -1.
    9900012    2    1    2    0    0 -0.95652591138E+00  0.69070397430E+00 -0.20139340337E-01  0.90007991783E+02  0.90000256474E+02 0.  0.
        -12    1    1    2    0    0  0.95652591138E+00 -0.69070397430E+00  0.20139340337E-01  0.11800082170E+01  0.00000000000E+00 0.  1.
         11    1    3    3    0    0 -0.47313705120E+01  0.26667050960E+01 -0.72974124666E+01  0.90966703776E+01  0.51100000000E-03 0. -1.
        -11    1    3    3    0    0 -0.32281224765E+02  0.19483150270E+02 -0.26371482995E+01  0.37797158202E+02  0.51100000000E-03 0.  1.
         12    1    3    3    0    0  0.36056069365E+02 -0.21459151391E+02  0.99144214258E+01  0.43114163203E+02  0.00000000000E+00 0. -1.
</event>
<event>
 7    1  0.5158441E-015  0.9000774E+02  0.7816164E-02  0.1186339E+00
        -11   -1    0    0    0    0  0.00000000000E+00  0.00000000000E+00  0.45593999997E+02  0.45594000000E+02  0.51100000000E-03 0. -1.
         11   -1    0    0    0    0 -0.00000000000E+00 -0.00000000000E+00 -0.45593999997E+02  0.45594000000E+02  0.51100000000E-03 0.  1.
    9900012    2    1    2    0    0 -0.94432018758E+00  0.70723443348E+00 -0.33178106738E-01  0.90007736492E+02  0.89999997814E+02 0.  0.
        -12    1    1    2    0    0  0.94432018758E+00 -0.70723443348E+00  0.33178106738E-01  0.11802635076E+01  0.00000000000E+00 0.  1.
         11    1    3    3    0    0 -0.83537283042E+01  0.12556024747E+02  0.30126893578E+02  0.33690773973E+02  0.51100000000E-03 0. -1.
        -11    1    3    3    0    0  0.35740978844E+01  0.72539479376E+01  0.92906998477E+01  0.12317103567E+02  0.51100000000E-03 0.  1.
        -12    1    3    3    0    0  0.38353102322E+01 -0.19102738251E+02 -0.39450771532E+02  0.43999858952E+02  0.00000000000E+00 0.  1.
</event>
<event>
 7    1  0.5158441E-015  0.9000788E+02  0.7816164E-02  0.1186339E+00
        -11   -1    0    0    0    0  0.00000000000E+00  0.00000000000E+00  0.45593999997E+02  0.45594000000E+02  0.51100000000E-03 0. -1.
         11   -1    0    0    0    0 -0.00000000000E+00 -0.00000000000E+00 -0.45593999997E+02  0.45594000000E+02  0.51100000000E-03 0.  1.
    9900012    2    1    2    0    0  0.82540469760E+00  0.49659347324E+00  0.68175508276E+00  0.90007877979E+02  0.90000141168E+02 0.  0.
        -12    1    1    2    0    0 -0.82540469760E+00 -0.49659347324E+00 -0.68175508276E+00  0.11801220214E+01  0.00000000000E+00 0.  1.
         11    1    3    3    0    0  0.81444762108E+01  0.50844061957E+01  0.38805049969E+02  0.39975187084E+02  0.51100000000E-03 0. -1.
        -11    1    3    3    0    0  0.76892186890E+01 -0.72987856819E+01 -0.19551085500E+01  0.10780482651E+02  0.51100000000E-03 0.  1.
        -12    1    3    3    0    0 -0.15008290202E+02  0.27109729595E+01 -0.36168186336E+02  0.39252208244E+02  0.00000000000E+00 0.  1.
</event>
<event>
 7    1  0.5158441E-015  0.9000796E+02  0.7816164E-02  0.1186339E+00
        -11   -1    0    0    0    0  0.00000000000E+00  0.00000000000E+00  0.45593999997E+02  0.45594000000E+02  0.51100000000E-03 0.  1.
         11   -1    0    0    0    0 -0.00000000000E+00 -0.00000000000E+00 -0.45593999997E+02  0.45594000000E+02  0.51100000000E-03 0. -1.
    9900012    2    1    2    0    0 -0.72603252935E+00  0.48024849426E+00 -0.79669404249E+00  0.90007964726E+02  0.90000229060E+02 0.  0.
        -12    1    1    2    0    0  0.72603252935E+00 -0.48024849426E+00  0.79669404249E+00  0.11800352737E+01  0.00000000000E+00 0.  1.
         11    1    3    3    0    0 -0.42502998461E+00 -0.85531010634E+01 -0.50847804730E+01  0.99594769446E+01  0.51100000000E-03 0. -1.
        -11    1    3    3    0    0 -0.16604703505E+02  0.36603770250E+02 -0.14717860297E+02  0.42803826780E+02  0.51100000000E-03 0.  1.
         12    1    3    3    0    0  0.16303700960E+02 -0.27570420692E+02  0.19005946727E+02  0.37244661002E+02  0.00000000000E+00 0. -1.
</event>
<event>
 7    1  0.5158441E-015  0.9000729E+02  0.7816164E-02  0.1186340E+00
        -11   -1    0    0    0    0  0.00000000000E+00  0.00000000000E+00  0.45593999997E+02  0.45594000000E+02  0.51100000000E-03 0.  1.
         11   -1    0    0    0    0 -0.00000000000E+00 -0.00000000000E+00 -0.45593999997E+02  0.45594000000E+02  0.51100000000E-03 0. -1.
    9900012    2    1    2    0    0  0.28825616633E+00 -0.76667084944E+00 -0.85041247732E+00  0.90007289540E+02  0.89999544961E+02 0.  0.
        -12    1    1    2    0    0 -0.28825616633E+00  0.76667084944E+00  0.85041247732E+00  0.11807104600E+01  0.00000000000E+00 0.  1.
         11    1    3    3    0    0 -0.15140553837E+01 -0.53352314054E+00  0.64492111230E+01  0.66460014307E+01  0.51100000000E-03 0. -1.
        -11    1    3    3    0    0 -0.38832237224E+02 -0.49587712032E+01  0.74973045889E+01  0.39859022015E+02  0.51100000000E-03 0.  1.
         12    1    3    3    0    0  0.40634548774E+02  0.47256234943E+01 -0.14796928189E+02  0.43502266094E+02  0.00000000000E+00 0. -1.
</event>
<event>
 7    1  0.5158441E-015  0.9000782E+02  0.7816164E-02  0.1186339E+00
        -11   -1    0    0    0    0  0.00000000000E+00  0.00000000000E+00  0.45593999997E+02  0.45594000000E+02  0.51100000000E-03 0.  1.
         11   -1    0    0    0    0 -0.00000000000E+00 -0.00000000000E+00 -0.45593999997E+02  0.45594000000E+02  0.51100000000E-03 0. -1.
    9900012    2    1    2    0    0  0.55517216759E+00  0.13318983865E+00 -0.10328913367E+01  0.90007821970E+02  0.90000084420E+02 0.  0.
        -12    1    1    2    0    0 -0.55517216759E+00 -0.13318983865E+00  0.10328913367E+01  0.11801780299E+01  0.00000000000E+00 0.  1.
         11    1    3    3    0    0 -0.24834902717E+02 -0.60758056744E+01 -0.27608385007E+02  0.37628589270E+02  0.51100000000E-03 0. -1.
        -11    1    3    3    0    0 -0.35582220469E+01  0.34647446731E+01 -0.66027052918E+01  0.82620286381E+01  0.51100000000E-03 0.  1.
        -12    1    3    3    0    0  0.28948296931E+02  0.27442508400E+01  0.33178198962E+02  0.44117204062E+02  0.00000000000E+00 0.  1.
</event>
<event>
 7    1  0.5158441E-015  0.9000778E+02  0.7816164E-02  0.1186339E+00
        -11   -1    0    0    0    0  0.00000000000E+00  0.00000000000E+00  0.45593999997E+02  0.45594000000E+02  0.51100000000E-03 0. -1.
         11   -1    0    0    0    0 -0.00000000000E+00 -0.00000000000E+00 -0.45593999997E+02  0.45594000000E+02  0.51100000000E-03 0.  1.
    9900012    2    1    2    0    0 -0.43711481541E-01  0.41427184572E+00  0.11042633262E+01  0.90007775721E+02  0.90000037560E+02 0.  0.
        -12    1    1    2    0    0  0.43711481541E-01 -0.41427184572E+00 -0.11042633262E+01  0.11802242793E+01  0.00000000000E+00 0.  1.
         11    1    3    3    0    0  0.19983595080E+02  0.12630869315E+02  0.24835075382E+02  0.34287955633E+02  0.51100000000E-03 0. -1.
        -11    1    3    3    0    0 -0.34757492435E+01  0.16714324221E+02 -0.74907582132E+01  0.18642985969E+02  0.51100000000E-03 0.  1.
        -12    1    3    3    0    0 -0.16551557318E+02 -0.28930921690E+02 -0.16240053843E+02  0.37076834119E+02  0.00000000000E+00 0.  1.
</event>
<event>
 7    1  0.5158441E-015  0.9000776E+02  0.7816164E-02  0.1186339E+00
        -11   -1    0    0    0    0  0.00000000000E+00  0.00000000000E+00  0.45593999997E+02  0.45594000000E+02  0.51100000000E-03 0.  1.
         11   -1    0    0    0    0 -0.00000000000E+00 -0.00000000000E+00 -0.45593999997E+02  0.45594000000E+02  0.51100000000E-03 0. -1.
    9900012    2    1    2    0    0  0.35784867076E-01  0.11796652964E+01  0.89386117224E-02  0.90007758217E+02  0.90000019825E+02 0.  0.
        -12    1    1    2    0    0 -0.35784867076E-01 -0.11796652964E+01 -0.89386117224E-02  0.11802417833E+01  0.00000000000E+00 0.  1.
         11    1    3    3    0    0 -0.54768929234E+00 -0.58884918296E+01 -0.59011581208E+01  0.83545177608E+01  0.51100000000E-03 0. -1.
        -11    1    3    3    0    0  0.21337751132E+02 -0.26567420974E+02 -0.14662761953E+02  0.37096146281E+02  0.51100000000E-03 0.  1.
         12    1    3    3    0    0 -0.20754276973E+02  0.33635578100E+02  0.20572858686E+02  0.44557094174E+02  0.00000000000E+00 0. -1.
</event>
<event>
 7    1  0.5158441E-015  0.9000777E+02  0.7816164E-02  0.1186339E+00
        -11   -1    0    0    0    0  0.00000000000E+00  0.00000000000E+00  0.45593999997E+02  0.45594000000E+02  0.51100000000E-03 0. -1.
         11   -1    0    0    0    0 -0.00000000000E+00 -0.00000000000E+00 -0.45593999997E+02  0.45594000000E+02  0.51100000000E-03 0.  1.
    9900012    2    1    2    0    0 -0.89091023533E+00  0.70266731379E+00  0.32477917928E+00  0.90007769549E+02  0.90000031307E+02 0.  0.
        -12    1    1    2    0    0  0.89091023533E+00 -0.70266731379E+00 -0.32477917928E+00  0.11802304506E+01  0.00000000000E+00 0.  1.
         11    1    3    3    0    0 -0.56573478578E+01  0.47830188956E+01  0.49134901395E+01  0.88896141734E+01  0.51100000000E-03 0. -1.
        -11    1    3    3    0    0  0.23735545056E+01  0.38166398947E+02  0.20068232039E+01  0.38292755310E+02  0.51100000000E-03 0.  1.
         12    1    3    3    0    0  0.23928831168E+01 -0.42246750529E+02 -0.65955341642E+01  0.42825400066E+02  0.00000000000E+00 0. -1.
</event>
<event>
 7    1  0.5590915E-015  0.9000756E+02  0.7816164E-02  0.1186339E+00
        -11   -1    0    0    0    0  0.00000000000E+00  0.00000000000E+00  0.45593999997E+02  0.45594000000E+02  0.51100000000E-03 0. -1.
         11   -1    0    0    0    0 -0.00000000000E+00 -0.00000000000E+00 -0.45593999997E+02  0.45594000000E+02  0.51100000000E-03 0.  1.
    9900012    2    1    2    0    0  0.10648005081E+01  0.49344599605E+00 -0.12710403361E+00  0.90007557495E+02  0.89999816453E+02 0.  0.
        -12    1    1    2    0    0 -0.10648005081E+01 -0.49344599605E+00  0.12710403361E+00  0.11804425053E+01  0.00000000000E+00 0.  1.
         11    1    3    3    0    0 -0.24739104771E+02 -0.62193863865E+01  0.24690310089E+02  0.35500922305E+02  0.51100000000E-03 0. -1.
        -11    1    3    3    0    0 -0.95393390365E+01 -0.24343109261E+00  0.18093286433E+01  0.97124620128E+01  0.51100000000E-03 0.  1.
        -12    1    3    3    0    0  0.35343244316E+02  0.69562634752E+01 -0.26626742766E+02  0.44794173177E+02  0.00000000000E+00 0.  1.
</event>
<event>
 7    1  0.5158441E-015  0.9000772E+02  0.7816164E-02  0.1186339E+00
        -11   -1    0    0    0    0  0.00000000000E+00  0.00000000000E+00  0.45593999997E+02  0.45594000000E+02  0.51100000000E-03 0. -1.
         11   -1    0    0    0    0 -0.00000000000E+00 -0.00000000000E+00 -0.45593999997E+02  0.45594000000E+02  0.51100000000E-03 0.  1.
    9900012    2    1    2    0    0  0.88963124731E+00  0.16170067242E-01  0.77547742552E+00  0.90007715939E+02  0.89999976989E+02 0.  0.
        -12    1    1    2    0    0 -0.88963124731E+00 -0.16170067242E-01 -0.77547742552E+00  0.11802840610E+01  0.00000000000E+00 0.  1.
         11    1    3    3    0    0 -0.38790144191E+02  0.19324764296E+02 -0.80332907083E+01  0.44075566489E+02  0.51100000000E-03 0. -1.
        -11    1    3    3    0    0  0.67785333819E+01 -0.72736578749E+01  0.66506187550E+00  0.99647840543E+01  0.51100000000E-03 0.  1.
        -12    1    3    3    0    0  0.32901242056E+02 -0.12034936354E+02  0.81437062584E+01  0.35967365396E+02  0.00000000000E+00 0.  1.
</event>
<event>
 7    1  0.5158441E-015  0.9000768E+02  0.7816164E-02  0.1186339E+00
        -11   -1    0    0    0    0  0.00000000000E+00  0.00000000000E+00  0.45593999997E+02  0.45594000000E+02  0.51100000000E-03 0. -1.
         11   -1    0    0    0    0 -0.00000000000E+00 -0.00000000000E+00 -0.45593999997E+02  0.45594000000E+02  0.51100000000E-03 0.  1.
    9900012    2    1    2    0    0  0.95884362747E+00 -0.48773043283E+00  0.48567945890E+00  0.90007683681E+02  0.89999944305E+02 0.  0.
        -12    1    1    2    0    0 -0.95884362747E+00  0.48773043283E+00 -0.48567945890E+00  0.11803163194E+01  0.00000000000E+00 0.  1.
         11    1    3    3    0    0  0.13784924368E+02 -0.33888331656E+02  0.10597148951E+02  0.38088616783E+02  0.51100000000E-03 0. -1.
        -11    1    3    3    0    0  0.60186546333E+00 -0.65480708299E+01  0.37291825876E+01  0.75595156367E+01  0.51100000000E-03 0.  1.
        -12    1    3    3    0    0 -0.13427946204E+02  0.39948672053E+02 -0.13840652080E+02  0.44359551261E+02  0.00000000000E+00 0.  1.
</event>
<event>
 7    1  0.5158441E-015  0.9000775E+02  0.7816164E-02  0.1186339E+00
        -11   -1    0    0    0    0  0.00000000000E+00  0.00000000000E+00  0.45593999997E+02  0.45594000000E+02  0.51100000000E-03 0.  1.
         11   -1    0    0    0    0 -0.00000000000E+00 -0.00000000000E+00 -0.45593999997E+02  0.45594000000E+02  0.51100000000E-03 0. -1.
    9900012    2    1    2    0    0 -0.43971522051E+00  0.66324467997E+00 -0.87163226599E+00  0.90007751811E+02  0.90000013335E+02 0.  0.
        -12    1    1    2    0    0  0.43971522051E+00 -0.66324467997E+00  0.87163226599E+00  0.11802481891E+01  0.00000000000E+00 0.  1.
         11    1    3    3    0    0  0.84295965975E+01 -0.29803823467E+01 -0.59210394752E+00  0.89605449095E+01  0.51100000000E-03 0. -1.
        -11    1    3    3    0    0  0.10158305895E+02  0.44820156635E+01  0.37299618161E+02  0.38917106243E+02  0.51100000000E-03 0.  1.
         12    1    3    3    0    0 -0.19027617713E+02 -0.83838863679E+00 -0.37579146480E+02  0.42130100659E+02  0.00000000000E+00 0. -1.
</event>
<event>
 7    1  0.5158441E-015  0.9000771E+02  0.7816164E-02  0.1186339E+00
        -11   -1    0    0    0    0  0.00000000000E+00  0.00000000000E+00  0.45593999997E+02  0.45594000000E+02  0.51100000000E-03 0. -1.
         11   -1    0    0    0    0 -0.00000000000E+00 -0.00000000000E+00 -0.45593999997E+02  0.45594000000E+02  0.51100000000E-03 0.  1.
    9900012    2    1    2    0    0  0.72799839192E+00 -0.23349507636E+00  0.89921666060E+00  0.90007706726E+02  0.89999967655E+02 0.  0.
        -12    1    1    2    0    0 -0.72799839192E+00  0.23349507636E+00 -0.89921666060E+00  0.11802932737E+01  0.00000000000E+00 0.  1.
         11    1    3    3    0    0  0.79218859513E+01 -0.66848628510E+01  0.41980615467E+00  0.10374001438E+02  0.51100000000E-03 0. -1.
        -11    1    3    3    0    0  0.60015701757E+01 -0.25839156850E+02 -0.24988574169E+02  0.36443239573E+02  0.51100000000E-03 0.  1.
         12    1    3    3    0    0 -0.13195457735E+02  0.32290524624E+02  0.25467984675E+02  0.43190465716E+02  0.00000000000E+00 0. -1.
</event>
<event>
 7    1  0.5158441E-015  0.9000728E+02  0.7816164E-02  0.1186340E+00
        -11   -1    0    0    0    0  0.00000000000E+00  0.00000000000E+00  0.45593999997E+02  0.45594000000E+02  0.51100000000E-03 0.  1.
         11   -1    0    0    0    0 -0.00000000000E+00 -0.00000000000E+00 -0.45593999997E+02  0.45594000000E+02  0.51100000000E-03 0. -1.
    9900012    2    1    2    0    0 -0.11175691041E+00  0.11194071285E+01 -0.35852774518E+00  0.90007278157E+02  0.89999533428E+02 0.  0.
        -12    1    1    2    0    0  0.11175691041E+00 -0.11194071285E+01  0.35852774518E+00  0.11807218430E+01  0.00000000000E+00 0.  1.
         11    1    3    3    0    0 -0.66600870869E+01  0.71478438208E+01  0.27094256437E+01  0.10138511669E+02  0.51100000000E-03 0. -1.
        -11    1    3    3    0    0 -0.21057265013E+02 -0.29250667289E+02  0.15573849269E+02  0.39262637812E+02  0.51100000000E-03 0.  1.
         12    1    3    3    0    0  0.27605595190E+02  0.23222230597E+02 -0.18641802657E+02  0.40606128675E+02  0.00000000000E+00 0. -1.
</event>
<event>
 7    1  0.5158441E-015  0.9000760E+02  0.7816164E-02  0.1186339E+00
        -11   -1    0    0    0    0  0.00000000000E+00  0.00000000000E+00  0.45593999997E+02  0.45594000000E+02  0.51100000000E-03 0.  1.
         11   -1    0    0    0    0 -0.00000000000E+00 -0.00000000000E+00 -0.45593999997E+02  0.45594000000E+02  0.51100000000E-03 0. -1.
    9900012    2    1    2    0    0  0.32498562166E+00 -0.59106616346E-01 -0.11332426723E+01  0.90007598288E+02  0.89999857786E+02 0.  0.
        -12    1    1    2    0    0 -0.32498562166E+00  0.59106616346E-01  0.11332426723E+01  0.11804017116E+01  0.00000000000E+00 0.  1.
         11    1    3    3    0    0  0.24456350585E+02  0.12376648771E+02 -0.97890544377E+01  0.29105327791E+02  0.51100000000E-03 0. -1.
        -11    1    3    3    0    0 -0.75762276236E+01 -0.39257748560E+01 -0.22803925529E+02  0.24348099578E+02  0.51100000000E-03 0.  1.
        -12    1    3    3    0    0 -0.16555137340E+02 -0.85099805315E+01  0.31459737295E+02  0.36554170920E+02  0.00000000000E+00 0.  1.
</event>
<event>
 7    1  0.5158441E-015  0.9000780E+02  0.7816164E-02  0.1186339E+00
        -11   -1    0    0    0    0  0.00000000000E+00  0.00000000000E+00  0.45593999997E+02  0.45594000000E+02  0.51100000000E-03 0.  1.
         11   -1    0    0    0    0 -0.00000000000E+00 -0.00000000000E+00 -0.45593999997E+02  0.45594000000E+02  0.51100000000E-03 0. -1.
    9900012    2    1    2    0    0 -0.51854745468E+00 -0.15028251314E+00 -0.10494729711E+01  0.90007800943E+02  0.90000063116E+02 0.  0.
        -12    1    1    2    0    0  0.51854745468E+00  0.15028251314E+00  0.10494729711E+01  0.11801990568E+01  0.00000000000E+00 0.  1.
         11    1    3    3    0    0 -0.21711702303E+02 -0.72043893062E+01 -0.35585762680E+02  0.42304228488E+02  0.51100000000E-03 0. -1.
        -11    1    3    3    0    0  0.89966042665E+01 -0.42244065698E+01  0.64498235736E+00  0.99599448642E+01  0.51100000000E-03 0.  1.
        -12    1    3    3    0    0  0.12196550582E+02  0.11278513363E+02  0.33891307351E+02  0.37743627591E+02  0.00000000000E+00 0.  1.
</event>
<event>
 7    1  0.5158441E-015  0.9000780E+02  0.7816164E-02  0.1186339E+00
        -11   -1    0    0    0    0  0.00000000000E+00  0.00000000000E+00  0.45593999997E+02  0.45594000000E+02  0.51100000000E-03 0. -1.
         11   -1    0    0    0    0 -0.00000000000E+00 -0.00000000000E+00 -0.45593999997E+02  0.45594000000E+02  0.51100000000E-03 0.  1.
    9900012    2    1    2    0    0  0.27118273089E+00 -0.73645849736E+00  0.88145436098E+00  0.90007799601E+02  0.90000061755E+02 0.  0.
        -12    1    1    2    0    0 -0.27118273089E+00  0.73645849736E+00 -0.88145436098E+00  0.11802003992E+01  0.00000000000E+00 0.  1.
         11    1    3    3    0    0  0.40482929721E+02  0.11466206214E+02 -0.54913656586E+01  0.42432258729E+02  0.51100000000E-03 0. -1.
        -11    1    3    3    0    0 -0.25299384775E+01 -0.87125621590E+01  0.31156809878E+01  0.95925385771E+01  0.51100000000E-03 0.  1.
        -12    1    3    3    0    0 -0.37681808513E+02 -0.34901025529E+01  0.32571390318E+01  0.37983002295E+02  0.00000000000E+00 0.  1.
</event>
<event>
 7    1  0.5158441E-015  0.9000782E+02  0.7816164E-02  0.1186339E+00
        -11   -1    0    0    0    0  0.00000000000E+00  0.00000000000E+00  0.45593999997E+02  0.45594000000E+02  0.51100000000E-03 0.  1.
         11   -1    0    0    0    0 -0.00000000000E+00 -0.00000000000E+00 -0.45593999997E+02  0.45594000000E+02  0.51100000000E-03 0. -1.
    9900012    2    1    2    0    0  0.73713905674E+00  0.56749250262E+00 -0.72622154787E+00  0.90007822274E+02  0.90000084727E+02 0.  0.
        -12    1    1    2    0    0 -0.73713905674E+00 -0.56749250262E+00  0.72622154787E+00  0.11801777265E+01  0.00000000000E+00 0.  1.
         11    1    3    3    0    0 -0.52842517150E+01  0.59028026947E+01  0.52757854505E+01  0.95184194182E+01  0.51100000000E-03 0. -1.
        -11    1    3    3    0    0  0.10325051035E+02  0.25651778893E+02  0.24391214357E+02  0.36872100256E+02  0.51100000000E-03 0.  1.
         12    1    3    3    0    0 -0.43036602627E+01 -0.30987089086E+02 -0.30393221355E+02  0.43617302599E+02  0.00000000000E+00 0. -1.
</event>
<event>
 7    1  0.5158441E-015  0.9000779E+02  0.7816164E-02  0.1186339E+00
        -11   -1    0    0    0    0  0.00000000000E+00  0.00000000000E+00  0.45593999997E+02  0.45594000000E+02  0.51100000000E-03 0. -1.
         11   -1    0    0    0    0 -0.00000000000E+00 -0.00000000000E+00 -0.45593999997E+02  0.45594000000E+02  0.51100000000E-03 0.  1.
    9900012    2    1    2    0    0  0.62488080330E+00 -0.97062107774E+00  0.24556597320E+00  0.90007794958E+02  0.90000057051E+02 0.  0.
        -12    1    1    2    0    0 -0.62488080330E+00  0.97062107774E+00 -0.24556597320E+00  0.11802050424E+01  0.00000000000E+00 0.  1.
         11    1    3    3    0    0 -0.15479474953E+01 -0.11605110881E+02  0.35982105093E+01  0.12248341077E+02  0.51100000000E-03 0. -1.
        -11    1    3    3    0    0  0.15710333575E+01 -0.11216429701E+02 -0.36408658092E+02  0.38129605628E+02  0.51100000000E-03 0.  1.
         12    1    3    3    0    0  0.60179494107E+00  0.21850919504E+02  0.33056013556E+02  0.39629848253E+02  0.00000000000E+00 0. -1.
</event>
<event>
 7    1  0.5158441E-015  0.9000804E+02  0.7816164E-02  0.1186338E+00
        -11   -1    0    0    0    0  0.00000000000E+00  0.00000000000E+00  0.45593999997E+02  0.45594000000E+02  0.51100000000E-03 0. -1.
         11   -1    0    0    0    0 -0.00000000000E+00 -0.00000000000E+00 -0.45593999997E+02  0.45594000000E+02  0.51100000000E-03 0.  1.
    9900012    2    1    2    0    0 -0.29212523863E+00  0.97592238552E+00  0.59544110175E+00  0.90008037389E+02  0.90000302682E+02 0.  0.
        -12    1    1    2    0    0  0.29212523863E+00 -0.97592238552E+00 -0.59544110175E+00  0.11799626110E+01  0.00000000000E+00 0.  1.
         11    1    3    3    0    0 -0.29075743534E+01 -0.60003972953E+01 -0.62593894655E+01  0.91454203329E+01  0.51100000000E-03 0. -1.
        -11    1    3    3    0    0 -0.24536362500E+02 -0.27111816103E+02 -0.10025010959E+01  0.36579894284E+02  0.51100000000E-03 0.  1.
         12    1    3    3    0    0  0.27151811615E+02  0.34088135784E+02  0.78573316632E+01  0.44282722772E+02  0.00000000000E+00 0. -1.
</event>
<event>
 7    1  0.5158441E-015  0.9000775E+02  0.7816164E-02  0.1186339E+00
        -11   -1    0    0    0    0  0.00000000000E+00  0.00000000000E+00  0.45593999997E+02  0.45594000000E+02  0.51100000000E-03 0.  1.
         11   -1    0    0    0    0 -0.00000000000E+00 -0.00000000000E+00 -0.45593999997E+02  0.45594000000E+02  0.51100000000E-03 0. -1.
    9900012    2    1    2    0    0 -0.20804957908E+00 -0.12644861821E+00 -0.11548630285E+01  0.90007753206E+02  0.90000014748E+02 0.  0.
        -12    1    1    2    0    0  0.20804957908E+00  0.12644861821E+00  0.11548630285E+01  0.11802467941E+01  0.00000000000E+00 0.  1.
         11    1    3    3    0    0 -0.35707503043E+02 -0.14871624024E+02  0.18803635081E+02  0.43008925437E+02  0.51100000000E-03 0. -1.
        -11    1    3    3    0    0  0.85912142612E+00 -0.72436855575E+00 -0.67267918603E+01  0.68200094151E+01  0.51100000000E-03 0.  1.
        -12    1    3    3    0    0  0.34640332038E+02  0.15469543961E+02 -0.13231706249E+02  0.40178818354E+02  0.00000000000E+00 0.  1.
</event>
<event>
 7    1  0.5158441E-015  0.9000766E+02  0.7816164E-02  0.1186339E+00
        -11   -1    0    0    0    0  0.00000000000E+00  0.00000000000E+00  0.45593999997E+02  0.45594000000E+02  0.51100000000E-03 0.  1.
         11   -1    0    0    0    0 -0.00000000000E+00 -0.00000000000E+00 -0.45593999997E+02  0.45594000000E+02  0.51100000000E-03 0. -1.
    9900012    2    1    2    0    0  0.33824513859E+00  0.70387833201E+00 -0.88507162694E+00  0.90007658412E+02  0.89999918703E+02 0.  0.
        -12    1    1    2    0    0 -0.33824513859E+00 -0.70387833201E+00  0.88507162694E+00  0.11803415882E+01  0.00000000000E+00 0.  1.
         11    1    3    3    0    0  0.92544769468E+01  0.43141525329E+01 -0.34332126946E+02  0.35818322079E+02  0.51100000000E-03 0. -1.
        -11    1    3    3    0    0 -0.12495746803E+01 -0.43884892739E+01 -0.95092350872E+01  0.10547313743E+02  0.51100000000E-03 0.  1.
        -12    1    3    3    0    0 -0.76666571280E+01  0.77821507309E+00  0.42956290407E+02  0.43642022590E+02  0.00000000000E+00 0.  1.
</event>
<event>
 7    1  0.5158441E-015  0.9000785E+02  0.7816164E-02  0.1186339E+00
        -11   -1    0    0    0    0  0.00000000000E+00  0.00000000000E+00  0.45593999997E+02  0.45594000000E+02  0.51100000000E-03 0.  1.
         11   -1    0    0    0    0 -0.00000000000E+00 -0.00000000000E+00 -0.45593999997E+02  0.45594000000E+02  0.51100000000E-03 0. -1.
    9900012    2    1    2    0    0 -0.73922079803E+00 -0.19134357291E-01  0.91974409678E+00  0.90007854791E+02  0.90000117674E+02 0.  0.
        -12    1    1    2    0    0  0.73922079803E+00  0.19134357291E-01 -0.91974409678E+00  0.11801452095E+01  0.00000000000E+00 0.  1.
         11    1    3    3    0    0 -0.16950027250E+01 -0.65106640693E+01 -0.67174953255E+01  0.95071827884E+01  0.51100000000E-03 0. -1.
        -11    1    3    3    0    0  0.35862549574E+02  0.17459356153E+02 -0.80489005043E+01  0.40690740701E+02  0.51100000000E-03 0.  1.
         12    1    3    3    0    0 -0.34906767647E+02 -0.10967826441E+02  0.15686139927E+02  0.39809931301E+02  0.00000000000E+00 0. -1.
</event>
<event>
 7    1  0.5158441E-015  0.9000771E+02  0.7816164E-02  0.1186339E+00
        -11   -1    0    0    0    0  0.00000000000E+00  0.00000000000E+00  0.45593999997E+02  0.45594000000E+02  0.51100000000E-03 0.  1.
         11   -1    0    0    0    0 -0.00000000000E+00 -0.00000000000E+00 -0.45593999997E+02  0.45594000000E+02  0.51100000000E-03 0. -1.
    9900012    2    1    2    0    0 -0.11388022231E+00 -0.11586184295E+01 -0.19422119920E+00  0.90007708831E+02  0.89999969787E+02 0.  0.
        -12    1    1    2    0    0  0.11388022231E+00  0.11586184295E+01  0.19422119920E+00  0.11802911693E+01  0.00000000000E+00 0.  1.
         11    1    3    3    0    0 -0.31031845511E+01 -0.47505131418E+01 -0.59248650923E+01  0.82037281825E+01  0.51100000000E-03 0. -1.
        -11    1    3    3    0    0  0.28054814470E+01 -0.11032827828E+02  0.41567119274E+02  0.43097789051E+02  0.51100000000E-03 0.  1.
         12    1    3    3    0    0  0.18382288182E+00  0.14624722541E+02 -0.35836475381E+02  0.38706191598E+02  0.00000000000E+00 0. -1.
</event>
<event>
 7    1  0.5158441E-015  0.9000775E+02  0.7816164E-02  0.1186339E+00
        -11   -1    0    0    0    0  0.00000000000E+00  0.00000000000E+00  0.45593999997E+02  0.45594000000E+02  0.51100000000E-03 0.  1.
         11   -1    0    0    0    0 -0.00000000000E+00 -0.00000000000E+00 -0.45593999997E+02  0.45594000000E+02  0.51100000000E-03 0. -1.
    9900012    2    1    2    0    0  0.29462082886E+00  0.17908847115E+00 -0.11287671801E+01  0.90007750255E+02  0.90000011758E+02 0.  0.
        -12    1    1    2    0    0 -0.29462082886E+00 -0.17908847115E+00  0.11287671801E+01  0.11802497449E+01  0.00000000000E+00 0.  1.
         11    1    3    3    0    0  0.70868102984E+00  0.94178568448E+01  0.26754551520E+01  0.98161253498E+01  0.51100000000E-03 0. -1.
        -11    1    3    3    0    0  0.19782984137E+02  0.29319868603E+02 -0.85997487210E+01  0.36400231244E+02  0.51100000000E-03 0.  1.
         12    1    3    3    0    0 -0.20197044338E+02 -0.38558636977E+02  0.47955263888E+01  0.43791393662E+02  0.00000000000E+00 0. -1.
</event>
<event>
 7    1  0.5158441E-015  0.9000735E+02  0.7816164E-02  0.1186340E+00
        -11   -1    0    0    0    0  0.00000000000E+00  0.00000000000E+00  0.45593999997E+02  0.45594000000E+02  0.51100000000E-03 0.  1.
         11   -1    0    0    0    0 -0.00000000000E+00 -0.00000000000E+00 -0.45593999997E+02  0.45594000000E+02  0.51100000000E-03 0. -1.
    9900012    2    1    2    0    0  0.96555176089E+00  0.20404064428E+00 -0.64808033491E+00  0.90007351488E+02  0.89999607727E+02 0.  0.
        -12    1    1    2    0    0 -0.96555176089E+00 -0.20404064428E+00  0.64808033491E+00  0.11806485116E+01  0.00000000000E+00 0.  1.
         11    1    3    3    0    0 -0.54469763946E+01  0.21590524555E+01  0.95720025086E+01  0.11222935963E+02  0.51100000000E-03 0. -1.
        -11    1    3    3    0    0  0.38221584313E+01  0.36421619630E+01  0.33862940103E+02  0.34272043294E+02  0.51100000000E-03 0.  1.
         12    1    3    3    0    0  0.25903697242E+01 -0.55971737742E+01 -0.44083022947E+02  0.44512372231E+02  0.00000000000E+00 0. -1.
</event>
<event>
 7    1  0.5158441E-015  0.9000769E+02  0.7816164E-02  0.1186339E+00
        -11   -1    0    0    0    0  0.00000000000E+00  0.00000000000E+00  0.45593999997E+02  0.45594000000E+02  0.51100000000E-03 0. -1.
         11   -1    0    0    0    0 -0.00000000000E+00 -0.00000000000E+00 -0.45593999997E+02  0.45594000000E+02  0.51100000000E-03 0.  1.
    9900012    2    1    2    0    0 -0.44501585368E+00  0.10417707714E+01 -0.33135972340E+00  0.90007692957E+02  0.89999953704E+02 0.  0.
        -12    1    1    2    0    0  0.44501585368E+00 -0.10417707714E+01  0.33135972340E+00  0.11803070433E+01  0.00000000000E+00 0.  1.
         11    1    3    3    0    0 -0.51880486730E+00  0.10507982867E+02 -0.39944090794E+00  0.10528362443E+02  0.51100000000E-03 0. -1.
        -11    1    3    3    0    0 -0.34300081388E+02 -0.14753238204E+02 -0.16660910576E+02  0.40886911870E+02  0.51100000000E-03 0.  1.
         12    1    3    3    0    0  0.34373870402E+02  0.52870261085E+01  0.16728991760E+02  0.38592418644E+02  0.00000000000E+00 0. -1.
</event>
<event>
 7    1  0.5158441E-015  0.9000768E+02  0.7816164E-02  0.1186339E+00
        -11   -1    0    0    0    0  0.00000000000E+00  0.00000000000E+00  0.45593999997E+02  0.45594000000E+02  0.51100000000E-03 0.  1.
         11   -1    0    0    0    0 -0.00000000000E+00 -0.00000000000E+00 -0.45593999997E+02  0.45594000000E+02  0.51100000000E-03 0. -1.
    9900012    2    1    2    0    0  0.93442238878E-01  0.11180659467E+01 -0.36655164425E+00  0.90007676730E+02  0.89999937263E+02 0.  0.
        -12    1    1    2    0    0 -0.93442238878E-01 -0.11180659467E+01  0.36655164425E+00  0.11803232698E+01  0.00000000000E+00 0.  1.
         11    1    3    3    0    0 -0.10959333556E+02 -0.65563538381E+00 -0.35755871737E+00  0.10984748438E+02  0.51100000000E-03 0. -1.
        -11    1    3    3    0    0  0.27666037146E+02 -0.26597744882E+02 -0.17046207269E+02  0.41993128327E+02  0.51100000000E-03 0.  1.
         12    1    3    3    0    0 -0.16613261351E+02  0.28371446213E+02  0.17037214342E+02  0.37029799965E+02  0.00000000000E+00 0. -1.
</event>
<event>
 7    1  0.5158441E-015  0.9000768E+02  0.7816164E-02  0.1186339E+00
        -11   -1    0    0    0    0  0.00000000000E+00  0.00000000000E+00  0.45593999997E+02  0.45594000000E+02  0.51100000000E-03 0.  1.
         11   -1    0    0    0    0 -0.00000000000E+00 -0.00000000000E+00 -0.45593999997E+02  0.45594000000E+02  0.51100000000E-03 0. -1.
    9900012    2    1    2    0    0  0.13749573550E+00 -0.11708985333E+01 -0.56929734215E-01  0.90007682480E+02  0.89999943089E+02 0.  0.
        -12    1    1    2    0    0 -0.13749573550E+00  0.11708985333E+01  0.56929734215E-01  0.11803175197E+01  0.00000000000E+00 0.  1.
         11    1    3    3    0    0  0.85760615838E+01  0.12567926081E+02  0.20699647537E+02  0.25690017647E+02  0.51100000000E-03 0. -1.
        -11    1    3    3    0    0 -0.91658049400E+01  0.26807226572E+01  0.19018024559E+02  0.21281059949E+02  0.51100000000E-03 0.  1.
         12    1    3    3    0    0  0.72723909177E+00 -0.16419547272E+02 -0.39774601830E+02  0.43036604885E+02  0.00000000000E+00 0. -1.
</event>
<event>
 7    1  0.5158441E-015  0.9000773E+02  0.7816164E-02  0.1186339E+00
        -11   -1    0    0    0    0  0.00000000000E+00  0.00000000000E+00  0.45593999997E+02  0.45594000000E+02  0.51100000000E-03 0.  1.
         11   -1    0    0    0    0 -0.00000000000E+00 -0.00000000000E+00 -0.45593999997E+02  0.45594000000E+02  0.51100000000E-03 0. -1.
    9900012    2    1    2    0    0  0.44471008869E+00  0.10922369695E+01 -0.47839759575E-01  0.90007729987E+02  0.89999991223E+02 0.  0.
        -12    1    1    2    0    0 -0.44471008869E+00 -0.10922369695E+01  0.47839759575E-01  0.11802700128E+01  0.00000000000E+00 0.  1.
         11    1    3    3    0    0  0.12028064326E+02 -0.36299118401E+02  0.19655827045E+02  0.42995951731E+02  0.51100000000E-03 0. -1.
        -11    1    3    3    0    0 -0.30730190888E+01  0.68726296548E+01 -0.12386221502E+02  0.14494653085E+02  0.51100000000E-03 0.  1.
        -12    1    3    3    0    0 -0.85103351489E+01  0.30518725716E+02 -0.73174453023E+01  0.32517125172E+02  0.00000000000E+00 0.  1.
</event>
<event>
 7    1  0.5158441E-015  0.9000777E+02  0.7816164E-02  0.1186339E+00
        -11   -1    0    0    0    0  0.00000000000E+00  0.00000000000E+00  0.45593999997E+02  0.45594000000E+02  0.51100000000E-03 0.  1.
         11   -1    0    0    0    0 -0.00000000000E+00 -0.00000000000E+00 -0.45593999997E+02  0.45594000000E+02  0.51100000000E-03 0. -1.
    9900012    2    1    2    0    0  0.61237071176E+00  0.19746118097E+00 -0.98942453550E+00  0.90007767092E+02  0.90000028817E+02 0.  0.
        -12    1    1    2    0    0 -0.61237071176E+00 -0.19746118097E+00  0.98942453550E+00  0.11802329084E+01  0.00000000000E+00 0.  1.
         11    1    3    3    0    0  0.71477604842E+01 -0.62002830395E+01  0.81780213610E+01  0.12506559213E+02  0.51100000000E-03 0. -1.
        -11    1    3    3    0    0  0.12898537958E+02 -0.43863142432E+01  0.29729349522E+02  0.32702389169E+02  0.51100000000E-03 0.  1.
         12    1    3    3    0    0 -0.19433927731E+02  0.10784058464E+02 -0.38896795418E+02  0.44798818710E+02  0.00000000000E+00 0. -1.
</event>
<event>
 7    1  0.5158441E-015  0.9000773E+02  0.7816164E-02  0.1186339E+00
        -11   -1    0    0    0    0  0.00000000000E+00  0.00000000000E+00  0.45593999997E+02  0.45594000000E+02  0.51100000000E-03 0. -1.
         11   -1    0    0    0    0 -0.00000000000E+00 -0.00000000000E+00 -0.45593999997E+02  0.45594000000E+02  0.51100000000E-03 0.  1.
    9900012    2    1    2    0    0  0.74532860027E+00  0.91387705753E+00  0.48439070938E-01  0.90007732089E+02  0.89999993352E+02 0.  0.
        -12    1    1    2    0    0 -0.74532860027E+00 -0.91387705753E+00 -0.48439070938E-01  0.11802679112E+01  0.00000000000E+00 0.  1.
         11    1    3    3    0    0 -0.12332027661E+02 -0.34232591957E+02  0.16474728851E+02  0.39942032363E+02  0.51100000000E-03 0. -1.
        -11    1    3    3    0    0 -0.72747119056E+01  0.79172804021E+00 -0.33545661047E+01  0.80499304724E+01  0.51100000000E-03 0.  1.
        -12    1    3    3    0    0  0.20352068167E+02  0.34354740974E+02 -0.13071723675E+02  0.42015769253E+02  0.00000000000E+00 0.  1.
</event>
<event>
 7    1  0.5158441E-015  0.9000776E+02  0.7816164E-02  0.1186339E+00
        -11   -1    0    0    0    0  0.00000000000E+00  0.00000000000E+00  0.45593999997E+02  0.45594000000E+02  0.51100000000E-03 0. -1.
         11   -1    0    0    0    0 -0.00000000000E+00 -0.00000000000E+00 -0.45593999997E+02  0.45594000000E+02  0.51100000000E-03 0.  1.
    9900012    2    1    2    0    0 -0.61104055262E+00 -0.77760086834E+00  0.64415349652E+00  0.90007759603E+02  0.90000021230E+02 0.  0.
        -12    1    1    2    0    0  0.61104055262E+00  0.77760086834E+00 -0.64415349652E+00  0.11802403969E+01  0.00000000000E+00 0.  1.
         11    1    3    3    0    0 -0.34805519986E+00 -0.13558711318E+02  0.39604226779E+01  0.14129569812E+02  0.51100000000E-03 0. -1.
        -11    1    3    3    0    0 -0.70630762309E+01 -0.22477499278E+02 -0.24659262875E+02  0.34105780528E+02  0.51100000000E-03 0.  1.
         12    1    3    3    0    0  0.68000908781E+01  0.35258609727E+02  0.21342993693E+02  0.41772409263E+02  0.00000000000E+00 0. -1.
</event>
<event>
 7    1  0.5158441E-015  0.9000768E+02  0.7816164E-02  0.1186339E+00
        -11   -1    0    0    0    0  0.00000000000E+00  0.00000000000E+00  0.45593999997E+02  0.45594000000E+02  0.51100000000E-03 0.  1.
         11   -1    0    0    0    0 -0.00000000000E+00 -0.00000000000E+00 -0.45593999997E+02  0.45594000000E+02  0.51100000000E-03 0. -1.
    9900012    2    1    2    0    0 -0.88780138887E+00  0.65249145087E+00 -0.42333354477E+00  0.90007683225E+02  0.89999943843E+02 0.  0.
        -12    1    1    2    0    0  0.88780138887E+00 -0.65249145087E+00  0.42333354477E+00  0.11803167751E+01  0.00000000000E+00 0.  1.
         11    1    3    3    0    0  0.40926038529E+01  0.78588020980E+01  0.56907649771E+01  0.10530668687E+02  0.51100000000E-03 0. -1.
        -11    1    3    3    0    0 -0.29943544813E+02 -0.29002167457E+02  0.96357531431E+01  0.42785386899E+02  0.51100000000E-03 0.  1.
         12    1    3    3    0    0  0.24963139572E+02  0.21795856809E+02 -0.15749851665E+02  0.36691627639E+02  0.00000000000E+00 0. -1.
</event>
<event>
 7    1  0.5158441E-015  0.9000768E+02  0.7816164E-02  0.1186339E+00
        -11   -1    0    0    0    0  0.00000000000E+00  0.00000000000E+00  0.45593999997E+02  0.45594000000E+02  0.51100000000E-03 0.  1.
         11   -1    0    0    0    0 -0.00000000000E+00 -0.00000000000E+00 -0.45593999997E+02  0.45594000000E+02  0.51100000000E-03 0. -1.
    9900012    2    1    2    0    0  0.59079325586E+00 -0.44368024809E+00 -0.92047454090E+00  0.90007677072E+02  0.89999937609E+02 0.  0.
        -12    1    1    2    0    0 -0.59079325586E+00  0.44368024809E+00  0.92047454090E+00  0.11803229279E+01  0.00000000000E+00 0.  1.
         11    1    3    3    0    0  0.90616898586E+01 -0.42919007764E+00 -0.67553122323E+00  0.90969648735E+01  0.51100000000E-03 0. -1.
        -11    1    3    3    0    0  0.71350329113E+01 -0.37898898321E+02  0.72985272560E+01  0.39249250808E+02  0.51100000000E-03 0.  1.
         12    1    3    3    0    0 -0.15605929514E+02  0.37884408151E+02 -0.75434705736E+01  0.41661461391E+02  0.00000000000E+00 0. -1.
</event>
<event>
 7    1  0.5158441E-015  0.9000780E+02  0.7816164E-02  0.1186339E+00
        -11   -1    0    0    0    0  0.00000000000E+00  0.00000000000E+00  0.45593999997E+02  0.45594000000E+02  0.51100000000E-03 0.  1.
         11   -1    0    0    0    0 -0.00000000000E+00 -0.00000000000E+00 -0.45593999997E+02  0.45594000000E+02  0.51100000000E-03 0. -1.
    9900012    2    1    2    0    0 -0.99709827312E+00 -0.12352586144E+00  0.61919999564E+00  0.90007799916E+02  0.90000062074E+02 0.  0.
        -12    1    1    2    0    0  0.99709827312E+00  0.12352586144E+00 -0.61919999564E+00  0.11802000844E+01  0.00000000000E+00 0.  1.
         11    1    3    3    0    0 -0.12717918597E+02  0.55593097330E+01  0.37375901547E+00  0.13884922549E+02  0.51100000000E-03 0. -1.
        -11    1    3    3    0    0 -0.29684888609E+02  0.91581439724E+01 -0.61703518260E+01  0.31672345266E+02  0.51100000000E-03 0.  1.
         12    1    3    3    0    0  0.41405708932E+02 -0.14840979567E+02  0.64157928062E+01  0.44450532100E+02  0.00000000000E+00 0. -1.
</event>
<event>
 7    1  0.5158441E-015  0.9000774E+02  0.7816164E-02  0.1186339E+00
        -11   -1    0    0    0    0  0.00000000000E+00  0.00000000000E+00  0.45593999997E+02  0.45594000000E+02  0.51100000000E-03 0. -1.
         11   -1    0    0    0    0 -0.00000000000E+00 -0.00000000000E+00 -0.45593999997E+02  0.45594000000E+02  0.51100000000E-03 0.  1.
    9900012    2    1    2    0    0  0.11058725976E+00  0.11750606553E+01  0.46282356592E-02  0.90007737950E+02  0.89999999291E+02 0.  0.
        -12    1    1    2    0    0 -0.11058725976E+00 -0.11750606553E+01 -0.46282356592E-02  0.11802620498E+01  0.00000000000E+00 0.  1.
         11    1    3    3    0    0 -0.29886307587E+00 -0.90850116641E+01  0.61878765823E+01  0.10996207207E+02  0.51100000000E-03 0. -1.
        -11    1    3    3    0    0  0.11834125444E+02  0.10558313446E+02 -0.40152582018E+02  0.43171221326E+02  0.51100000000E-03 0.  1.
         12    1    3    3    0    0 -0.11424675108E+02 -0.29824112608E+00  0.33969333671E+02  0.35840309417E+02  0.00000000000E+00 0. -1.
</event>
<event>
 7    1  0.5158441E-015  0.9000771E+02  0.7816164E-02  0.1186339E+00
        -11   -1    0    0    0    0  0.00000000000E+00  0.00000000000E+00  0.45593999997E+02  0.45594000000E+02  0.51100000000E-03 0.  1.
         11   -1    0    0    0    0 -0.00000000000E+00 -0.00000000000E+00 -0.45593999997E+02  0.45594000000E+02  0.51100000000E-03 0. -1.
    9900012    2    1    2    0    0  0.79946311134E+00 -0.59071645723E+00 -0.63639299783E+00  0.90007710524E+02  0.89999971503E+02 0.  0.
        -12    1    1    2    0    0 -0.79946311134E+00  0.59071645723E+00  0.63639299783E+00  0.11802894759E+01  0.00000000000E+00 0.  1.
         11    1    3    3    0    0 -0.10017752146E+02 -0.94941147110E+00 -0.16656183625E+01  0.10199560039E+02  0.51100000000E-03 0. -1.
        -11    1    3    3    0    0  0.31418255359E+02  0.30140593028E+02  0.19779583059E+01  0.43582960399E+02  0.51100000000E-03 0.  1.
         12    1    3    3    0    0 -0.20601040102E+02 -0.29781898014E+02 -0.94873294128E+00  0.36225190086E+02  0.00000000000E+00 0. -1.
</event>
<event>
 7    1  0.5158441E-015  0.9000774E+02  0.7816164E-02  0.1186339E+00
        -11   -1    0    0    0    0  0.00000000000E+00  0.00000000000E+00  0.45593999997E+02  0.45594000000E+02  0.51100000000E-03 0. -1.
         11   -1    0    0    0    0 -0.00000000000E+00 -0.00000000000E+00 -0.45593999997E+02  0.45594000000E+02  0.51100000000E-03 0.  1.
    9900012    2    1    2    0    0 -0.54683225511E-01  0.64234129094E-01  0.11772392254E+01  0.90007742201E+02  0.90000003598E+02 0.  0.
        -12    1    1    2    0    0  0.54683225511E-01 -0.64234129094E-01 -0.11772392254E+01  0.11802577991E+01  0.00000000000E+00 0.  1.
         11    1    3    3    0    0 -0.65700471314E+01  0.36442898039E+02  0.22939934488E+01  0.37101384651E+02  0.51100000000E-03 0. -1.
        -11    1    3    3    0    0  0.52302311873E+01  0.40478348677E+01  0.90425758888E+01  0.11203056028E+02  0.51100000000E-03 0.  1.
        -12    1    3    3    0    0  0.12851327186E+01 -0.40426498778E+02 -0.10159330112E+02  0.41703301522E+02  0.00000000000E+00 0.  1.
</event>
<event>
 7    1  0.5158441E-015  0.9000781E+02  0.7816164E-02  0.1186339E+00
        -11   -1    0    0    0    0  0.00000000000E+00  0.00000000000E+00  0.45593999997E+02  0.45594000000E+02  0.51100000000E-03 0. -1.
         11   -1    0    0    0    0 -0.00000000000E+00 -0.00000000000E+00 -0.45593999997E+02  0.45594000000E+02  0.51100000000E-03 0.  1.
    9900012    2    1    2    0    0  0.11513817227E+01  0.12235184111E+00 -0.22845008741E+00  0.90007813876E+02  0.90000076219E+02 0.  0.
        -12    1    1    2    0    0 -0.11513817227E+01 -0.12235184111E+00  0.22845008741E+00  0.11801861239E+01  0.00000000000E+00 0.  1.
         11    1    3    3    0    0  0.15507985222E+01 -0.28450638150E+02  0.28015678505E+02  0.39959004362E+02  0.51100000000E-03 0. -1.
        -11    1    3    3    0    0 -0.40173110837E+01 -0.56292284282E+01 -0.51217506140E+01  0.86057731002E+01  0.51100000000E-03 0.  1.
        -12    1    3    3    0    0  0.36178942842E+01  0.34202218420E+02 -0.23122377978E+02  0.41443036414E+02  0.00000000000E+00 0.  1.
</event>
<event>
 7    1  0.5158441E-015  0.9000769E+02  0.7816164E-02  0.1186339E+00
        -11   -1    0    0    0    0  0.00000000000E+00  0.00000000000E+00  0.45593999997E+02  0.45594000000E+02  0.51100000000E-03 0. -1.
         11   -1    0    0    0    0 -0.00000000000E+00 -0.00000000000E+00 -0.45593999997E+02  0.45594000000E+02  0.51100000000E-03 0.  1.
    9900012    2    1    2    0    0  0.37844728264E+00  0.24232284477E+00  0.10914151678E+01  0.90007690814E+02  0.89999951532E+02 0.  0.
        -12    1    1    2    0    0 -0.37844728264E+00 -0.24232284477E+00 -0.10914151678E+01  0.11803091864E+01  0.00000000000E+00 0.  1.
         11    1    3    3    0    0  0.74469333702E+01  0.44815701236E+01  0.59938082013E+01  0.10557794486E+02  0.51100000000E-03 0. -1.
        -11    1    3    3    0    0  0.11907680029E+02  0.28321136264E+02 -0.22278851819E+02  0.37950320705E+02  0.51100000000E-03 0.  1.
         12    1    3    3    0    0 -0.18976166117E+02 -0.32560383543E+02  0.17376458786E+02  0.41499575623E+02  0.00000000000E+00 0. -1.
</event>
<event>
 7    1  0.5158441E-015  0.9000760E+02  0.7816164E-02  0.1186339E+00
        -11   -1    0    0    0    0  0.00000000000E+00  0.00000000000E+00  0.45593999997E+02  0.45594000000E+02  0.51100000000E-03 0. -1.
         11   -1    0    0    0    0 -0.00000000000E+00 -0.00000000000E+00 -0.45593999997E+02  0.45594000000E+02  0.51100000000E-03 0.  1.
    9900012    2    1    2    0    0 -0.76708348932E+00  0.52288008114E+00  0.72904955333E+00  0.90007604342E+02  0.89999863919E+02 0.  0.
        -12    1    1    2    0    0  0.76708348932E+00 -0.52288008114E+00 -0.72904955333E+00  0.11803956583E+01  0.00000000000E+00 0.  1.
         11    1    3    3    0    0 -0.20338780937E+01  0.13149571072E+01 -0.41965606211E+01  0.48452960283E+01  0.51100000000E-03 0. -1.
        -11    1    3    3    0    0  0.34069995739E+01  0.41584572764E+02  0.85015672844E+01  0.42581228078E+02  0.51100000000E-03 0.  1.
         12    1    3    3    0    0 -0.21402049696E+01 -0.42376649790E+02 -0.35759571100E+01  0.42581080235E+02  0.00000000000E+00 0. -1.
</event>
<event>
 7    1  0.5158441E-015  0.9000741E+02  0.7816164E-02  0.1186340E+00
        -11   -1    0    0    0    0  0.00000000000E+00  0.00000000000E+00  0.45593999997E+02  0.45594000000E+02  0.51100000000E-03 0. -1.
         11   -1    0    0    0    0 -0.00000000000E+00 -0.00000000000E+00 -0.45593999997E+02  0.45594000000E+02  0.51100000000E-03 0.  1.
    9900012    2    1    2    0    0  0.19957817018E+00 -0.12081030314E+00  0.11573127951E+01  0.90007407148E+02  0.89999664122E+02 0.  0.
        -12    1    1    2    0    0 -0.19957817018E+00  0.12081030314E+00 -0.11573127951E+01  0.11805928515E+01  0.00000000000E+00 0.  1.
         11    1    3    3    0    0  0.42294398188E+01 -0.22492388613E+01 -0.74853251029E+01  0.88869189708E+01  0.51100000000E-03 0. -1.
        -11    1    3    3    0    0  0.23404725078E+02  0.11554547248E+01  0.35616697151E+02  0.42634086689E+02  0.51100000000E-03 0.  1.
         12    1    3    3    0    0 -0.27434586727E+02  0.97297383340E+00 -0.26974059253E+02  0.38486401489E+02  0.00000000000E+00 0. -1.
</event>
<event>
 7    1  0.7300179E-015  0.9000775E+02  0.7816164E-02  0.1186339E+00
        -11   -1    0    0    0    0  0.00000000000E+00  0.00000000000E+00  0.45593999997E+02  0.45594000000E+02  0.51100000000E-03 0. -1.
         11   -1    0    0    0    0 -0.00000000000E+00 -0.00000000000E+00 -0.45593999997E+02  0.45594000000E+02  0.51100000000E-03 0.  1.
    9900012    2    1    2    0    0 -0.57421755750E+00 -0.44829325963E+00  0.92859499902E+00  0.90007753703E+02  0.90000015252E+02 0.  0.
        -12    1    1    2    0    0  0.57421755750E+00  0.44829325963E+00 -0.92859499902E+00  0.11802462973E+01  0.00000000000E+00 0.  1.
         11    1    3    3    0    0 -0.21453404137E+02 -0.28243175254E+02  0.23656525579E+02  0.42632812483E+02  0.51100000000E-03 0. -1.
        -11    1    3    3    0    0  0.26682760799E+01 -0.19534360967E+01 -0.95202946149E+01  0.10078274636E+02  0.51100000000E-03 0.  1.
        -12    1    3    3    0    0  0.18210910499E+02  0.29748318091E+02 -0.13207635965E+02  0.37296666584E+02  0.00000000000E+00 0.  1.
</event>
<event>
 7    1  0.5158441E-015  0.9000788E+02  0.7816164E-02  0.1186339E+00
        -11   -1    0    0    0    0  0.00000000000E+00  0.00000000000E+00  0.45593999997E+02  0.45594000000E+02  0.51100000000E-03 0. -1.
         11   -1    0    0    0    0 -0.00000000000E+00 -0.00000000000E+00 -0.45593999997E+02  0.45594000000E+02  0.51100000000E-03 0.  1.
    9900012    2    1    2    0    0  0.67743125110E+00  0.91729224783E+00  0.30387495366E+00  0.90007882143E+02  0.90000145388E+02 0.  0.
        -12    1    1    2    0    0 -0.67743125110E+00 -0.91729224783E+00 -0.30387495366E+00  0.11801178566E+01  0.00000000000E+00 0.  1.
         11    1    3    3    0    0 -0.93826718352E+01  0.96098818053E+00 -0.10475672052E+01  0.94897537566E+01  0.51100000000E-03 0. -1.
        -11    1    3    3    0    0 -0.12588265414E+02  0.23334049016E+02 -0.26642272463E+02  0.37586606017E+02  0.51100000000E-03 0.  1.
         12    1    3    3    0    0  0.22648368500E+02 -0.23377744949E+02  0.27993714622E+02  0.42931522370E+02  0.00000000000E+00 0. -1.
</event>
<event>
 7    1  0.5214797E-015  0.9000782E+02  0.7816164E-02  0.1186339E+00
        -11   -1    0    0    0    0  0.00000000000E+00  0.00000000000E+00  0.45593999997E+02  0.45594000000E+02  0.51100000000E-03 0.  1.
         11   -1    0    0    0    0 -0.00000000000E+00 -0.00000000000E+00 -0.45593999997E+02  0.45594000000E+02  0.51100000000E-03 0. -1.
    9900012    2    1    2    0    0  0.42609570325E+00 -0.86956241423E+00  0.67462828900E+00  0.90007822188E+02  0.90000084640E+02 0.  0.
        -12    1    1    2    0    0 -0.42609570325E+00  0.86956241423E+00 -0.67462828900E+00  0.11801778124E+01  0.00000000000E+00 0.  1.
         11    1    3    3    0    0  0.24680189078E+02 -0.30045985644E+02 -0.45996454814E+01  0.39153923495E+02  0.51100000000E-03 0. -1.
        -11    1    3    3    0    0 -0.45149658561E+00 -0.95001863186E+00 -0.96155577917E+01  0.96729176816E+01  0.51100000000E-03 0.  1.
        -12    1    3    3    0    0 -0.23802596789E+02  0.30126441861E+02  0.14889831562E+02  0.41180981011E+02  0.00000000000E+00 0.  1.
</event>
<event>
 7    1  0.5158441E-015  0.9000765E+02  0.7816164E-02  0.1186339E+00
        -11   -1    0    0    0    0  0.00000000000E+00  0.00000000000E+00  0.45593999997E+02  0.45594000000E+02  0.51100000000E-03 0. -1.
         11   -1    0    0    0    0 -0.00000000000E+00 -0.00000000000E+00 -0.45593999997E+02  0.45594000000E+02  0.51100000000E-03 0.  1.
    9900012    2    1    2    0    0 -0.94581423277E+00 -0.67910255837E+00 -0.19359406556E+00  0.90007651107E+02  0.89999911301E+02 0.  0.
        -12    1    1    2    0    0  0.94581423277E+00  0.67910255837E+00  0.19359406556E+00  0.11803488933E+01  0.00000000000E+00 0.  1.
         11    1    3    3    0    0 -0.44300360320E+01  0.40647094004E+01 -0.69940861923E+01  0.92230322390E+01  0.51100000000E-03 0. -1.
        -11    1    3    3    0    0  0.32989199514E+02  0.21660896962E+02 -0.42060253979E+01  0.39688441537E+02  0.51100000000E-03 0.  1.
         12    1    3    3    0    0 -0.29504977715E+02 -0.26404708921E+02  0.11006517525E+02  0.41096177330E+02  0.00000000000E+00 0. -1.
</event>
<event>
 7    1  0.5158441E-015  0.9000778E+02  0.7816164E-02  0.1186339E+00
        -11   -1    0    0    0    0  0.00000000000E+00  0.00000000000E+00  0.45593999997E+02  0.45594000000E+02  0.51100000000E-03 0.  1.
         11   -1    0    0    0    0 -0.00000000000E+00 -0.00000000000E+00 -0.45593999997E+02  0.45594000000E+02  0.51100000000E-03 0. -1.
    9900012    2    1    2    0    0 -0.10431552016E+01 -0.38874290328E+00 -0.39196158873E+00  0.90007776417E+02  0.90000038265E+02 0.  0.
        -12    1    1    2    0    0  0.10431552016E+01  0.38874290328E+00  0.39196158873E+00  0.11802235832E+01  0.00000000000E+00 0.  1.
         11    1    3    3    0    0 -0.50581065592E+01  0.85303627249E+01 -0.75151872266E+01  0.12443053062E+02  0.51100000000E-03 0. -1.
        -11    1    3    3    0    0 -0.13631475671E+02 -0.27655528585E+02  0.30080857385E+02  0.43075554222E+02  0.51100000000E-03 0.  1.
         12    1    3    3    0    0  0.17646427029E+02  0.18736422956E+02 -0.22957631747E+02  0.34489169133E+02  0.00000000000E+00 0. -1.
</event>
<event>
 7    1  0.5158441E-015  0.9000779E+02  0.7816164E-02  0.1186339E+00
        -11   -1    0    0    0    0  0.00000000000E+00  0.00000000000E+00  0.45593999997E+02  0.45594000000E+02  0.51100000000E-03 0. -1.
         11   -1    0    0    0    0 -0.00000000000E+00 -0.00000000000E+00 -0.45593999997E+02  0.45594000000E+02  0.51100000000E-03 0.  1.
    9900012    2    1    2    0    0  0.41516588545E+00 -0.10989454365E+01 -0.11338722855E+00  0.90007787965E+02  0.90000049966E+02 0.  0.
        -12    1    1    2    0    0 -0.41516588545E+00  0.10989454365E+01  0.11338722855E+00  0.11802120354E+01  0.00000000000E+00 0.  1.
         11    1    3    3    0    0 -0.72712204626E+01  0.41574377602E+01 -0.18043673631E+01  0.85680031272E+01  0.51100000000E-03 0. -1.
        -11    1    3    3    0    0  0.32519541148E+02 -0.27078262630E+02 -0.14364034908E+02  0.44688682713E+02  0.51100000000E-03 0.  1.
         12    1    3    3    0    0 -0.24833154800E+02  0.21821879434E+02  0.16055015042E+02  0.36751102124E+02  0.00000000000E+00 0. -1.
</event>
<event>
 7    1  0.5158441E-015  0.9000786E+02  0.7816164E-02  0.1186339E+00
        -11   -1    0    0    0    0  0.00000000000E+00  0.00000000000E+00  0.45593999997E+02  0.45594000000E+02  0.51100000000E-03 0.  1.
         11   -1    0    0    0    0 -0.00000000000E+00 -0.00000000000E+00 -0.45593999997E+02  0.45594000000E+02  0.51100000000E-03 0. -1.
    9900012    2    1    2    0    0  0.69468533428E+00  0.51831540699E+00 -0.80092751556E+00  0.90007862949E+02  0.90000125939E+02 0.  0.
        -12    1    1    2    0    0 -0.69468533428E+00 -0.51831540699E+00  0.80092751556E+00  0.11801370514E+01  0.00000000000E+00 0.  1.
         11    1    3    3    0    0 -0.10284036186E+01 -0.78809814985E+01  0.53988731808E+01  0.96080859314E+01  0.51100000000E-03 0. -1.
        -11    1    3    3    0    0 -0.34684129095E+02 -0.12599311512E+02 -0.99050807684E+01  0.38207879906E+02  0.51100000000E-03 0.  1.
         12    1    3    3    0    0  0.36407218048E+02  0.20998608417E+02  0.37052800721E+01  0.42191897111E+02  0.00000000000E+00 0. -1.
</event>
<event>
 7    1  0.5158441E-015  0.9000774E+02  0.7816164E-02  0.1186339E+00
        -11   -1    0    0    0    0  0.00000000000E+00  0.00000000000E+00  0.45593999997E+02  0.45594000000E+02  0.51100000000E-03 0. -1.
         11   -1    0    0    0    0 -0.00000000000E+00 -0.00000000000E+00 -0.45593999997E+02  0.45594000000E+02  0.51100000000E-03 0.  1.
    9900012    2    1    2    0    0  0.87310298512E+00  0.66620037491E+00  0.43228653630E+00  0.90007744345E+02  0.90000005770E+02 0.  0.
        -12    1    1    2    0    0 -0.87310298512E+00 -0.66620037491E+00 -0.43228653630E+00  0.11802556552E+01  0.00000000000E+00 0.  1.
         11    1    3    3    0    0 -0.24171726841E+02 -0.26718809717E+02  0.13364141955E+02  0.38428732240E+02  0.51100000000E-03 0. -1.
        -11    1    3    3    0    0  0.37582869433E+01 -0.78823840039E+01 -0.19708704372E+01  0.89521521923E+01  0.51100000000E-03 0.  1.
        -12    1    3    3    0    0  0.21286542882E+02  0.35267394096E+02 -0.10960984982E+02  0.42626859912E+02  0.00000000000E+00 0.  1.
</event>
<event>
 7    1  0.5158441E-015  0.9000773E+02  0.7816164E-02  0.1186339E+00
        -11   -1    0    0    0    0  0.00000000000E+00  0.00000000000E+00  0.45593999997E+02  0.45594000000E+02  0.51100000000E-03 0.  1.
         11   -1    0    0    0    0 -0.00000000000E+00 -0.00000000000E+00 -0.45593999997E+02  0.45594000000E+02  0.51100000000E-03 0. -1.
    9900012    2    1    2    0    0 -0.73309347219E+00  0.77824607829E+00  0.49994874548E+00  0.90007728105E+02  0.89999989316E+02 0.  0.
        -12    1    1    2    0    0  0.73309347219E+00 -0.77824607829E+00 -0.49994874548E+00  0.11802718947E+01  0.00000000000E+00 0.  1.
         11    1    3    3    0    0 -0.31612990598E+02 -0.15745506960E+02 -0.52406351061E+01  0.35703871227E+02  0.51100000000E-03 0. -1.
        -11    1    3    3    0    0 -0.78741123647E+01 -0.66599348500E+00  0.87644299165E+01  0.11800865429E+02  0.51100000000E-03 0.  1.
        -12    1    3    3    0    0  0.38754009491E+02  0.17189746524E+02 -0.30238460650E+01  0.42502991450E+02  0.00000000000E+00 0.  1.
</event>
<event>
 7    1  0.5158441E-015  0.9000774E+02  0.7816164E-02  0.1186339E+00
        -11   -1    0    0    0    0  0.00000000000E+00  0.00000000000E+00  0.45593999997E+02  0.45594000000E+02  0.51100000000E-03 0.  1.
         11   -1    0    0    0    0 -0.00000000000E+00 -0.00000000000E+00 -0.45593999997E+02  0.45594000000E+02  0.51100000000E-03 0. -1.
    9900012    2    1    2    0    0  0.53132139300E+00 -0.24049956342E+00 -0.10260899594E+01  0.90007744491E+02  0.90000005918E+02 0.  0.
        -12    1    1    2    0    0 -0.53132139300E+00  0.24049956342E+00  0.10260899594E+01  0.11802555094E+01  0.00000000000E+00 0.  1.
         11    1    3    3    0    0  0.47574407334E+01  0.34168193862E+02 -0.20381253044E+02  0.40068618519E+02  0.51100000000E-03 0. -1.
        -11    1    3    3    0    0 -0.68410644823E+01  0.36162891060E+01  0.49881375522E+01  0.92064774290E+01  0.51100000000E-03 0.  1.
        -12    1    3    3    0    0  0.26149451419E+01 -0.38024982532E+02  0.14367025533E+02  0.40732648542E+02  0.00000000000E+00 0.  1.
</event>
<event>
 7    1  0.5158441E-015  0.9000763E+02  0.7816164E-02  0.1186339E+00
        -11   -1    0    0    0    0  0.00000000000E+00  0.00000000000E+00  0.45593999997E+02  0.45594000000E+02  0.51100000000E-03 0.  1.
         11   -1    0    0    0    0 -0.00000000000E+00 -0.00000000000E+00 -0.45593999997E+02  0.45594000000E+02  0.51100000000E-03 0. -1.
    9900012    2    1    2    0    0 -0.29870559726E+00  0.19208670434E+00 -0.11256793294E+01  0.90007628750E+02  0.89999888649E+02 0.  0.
        -12    1    1    2    0    0  0.29870559726E+00 -0.19208670434E+00  0.11256793294E+01  0.11803712502E+01  0.00000000000E+00 0.  1.
         11    1    3    3    0    0  0.84391453832E+01 -0.14021143969E+00  0.76313775681E+01  0.11378785431E+02  0.51100000000E-03 0. -1.
        -11    1    3    3    0    0  0.56193952875E+01  0.37505088362E+02 -0.46697878805E+00  0.37926604460E+02  0.51100000000E-03 0.  1.
         12    1    3    3    0    0 -0.14357246268E+02 -0.37172790218E+02 -0.82900781094E+01  0.40702238858E+02  0.00000000000E+00 0. -1.
</event>
<event>
 7    1  0.5158441E-015  0.9000770E+02  0.7816164E-02  0.1186339E+00
        -11   -1    0    0    0    0  0.00000000000E+00  0.00000000000E+00  0.45593999997E+02  0.45594000000E+02  0.51100000000E-03 0.  1.
         11   -1    0    0    0    0 -0.00000000000E+00 -0.00000000000E+00 -0.45593999997E+02  0.45594000000E+02  0.51100000000E-03 0. -1.
    9900012    2    1    2    0    0  0.50481595594E+00 -0.83734379064E+00 -0.66115754137E+00  0.90007697891E+02  0.89999958704E+02 0.  0.
        -12    1    1    2    0    0 -0.50481595594E+00  0.83734379064E+00  0.66115754137E+00  0.11803021086E+01  0.00000000000E+00 0.  1.
         11    1    3    3    0    0  0.50387186489E+01 -0.36455715342E+02 -0.16867205199E+01  0.36840913304E+02  0.51100000000E-03 0. -1.
        -11    1    3    3    0    0  0.25589891996E+01 -0.34254032097E+01 -0.10918156844E+02  0.11725526086E+02  0.51100000000E-03 0.  1.
        -12    1    3    3    0    0 -0.70928918926E+01  0.39043774761E+02  0.11943719823E+02  0.41441258501E+02  0.00000000000E+00 0.  1.
</event>
<event>
 7    1  0.5158441E-015  0.9000788E+02  0.7816164E-02  0.1186339E+00
        -11   -1    0    0    0    0  0.00000000000E+00  0.00000000000E+00  0.45593999997E+02  0.45594000000E+02  0.51100000000E-03 0. -1.
         11   -1    0    0    0    0 -0.00000000000E+00 -0.00000000000E+00 -0.45593999997E+02  0.45594000000E+02  0.51100000000E-03 0.  1.
    9900012    2    1    2    0    0 -0.15164188269E+00 -0.36907666003E+00  0.11106142413E+01  0.90007882703E+02  0.90000145955E+02 0.  0.
        -12    1    1    2    0    0  0.15164188269E+00  0.36907666003E+00 -0.11106142413E+01  0.11801172970E+01  0.00000000000E+00 0.  1.
         11    1    3    3    0    0  0.12863636821E+01  0.57234629959E+00 -0.95062440200E+01  0.96099421142E+01  0.51100000000E-03 0. -1.
        -11    1    3    3    0    0  0.18597262932E+02  0.19757284513E+02 -0.23394705423E+02  0.35826257437E+02  0.51100000000E-03 0.  1.
         12    1    3    3    0    0 -0.20035268497E+02 -0.20698707472E+02  0.34011563684E+02  0.44571683152E+02  0.00000000000E+00 0. -1.
</event>
<event>
 7    1  0.5158441E-015  0.9000776E+02  0.7816164E-02  0.1186339E+00
        -11   -1    0    0    0    0  0.00000000000E+00  0.00000000000E+00  0.45593999997E+02  0.45594000000E+02  0.51100000000E-03 0. -1.
         11   -1    0    0    0    0 -0.00000000000E+00 -0.00000000000E+00 -0.45593999997E+02  0.45594000000E+02  0.51100000000E-03 0.  1.
    9900012    2    1    2    0    0  0.46630326949E+00  0.45037877530E+00  0.98625171414E+00  0.90007757557E+02  0.90000019157E+02 0.  0.
        -12    1    1    2    0    0 -0.46630326949E+00 -0.45037877530E+00 -0.98625171414E+00  0.11802424429E+01  0.00000000000E+00 0.  1.
         11    1    3    3    0    0 -0.27815253347E+02  0.13116554587E+02  0.32479769208E+02  0.44728824387E+02  0.51100000000E-03 0. -1.
        -11    1    3    3    0    0  0.72846017439E+01  0.11783117986E+01 -0.69119216216E+01  0.10110811146E+02  0.51100000000E-03 0.  1.
        -12    1    3    3    0    0  0.20996954873E+02 -0.13844487610E+02 -0.24581595872E+02  0.35168122024E+02  0.00000000000E+00 0.  1.
</event>
<event>
 7    1  0.5158441E-015  0.9000770E+02  0.7816164E-02  0.1186339E+00
        -11   -1    0    0    0    0  0.00000000000E+00  0.00000000000E+00  0.45593999997E+02  0.45594000000E+02  0.51100000000E-03 0.  1.
         11   -1    0    0    0    0 -0.00000000000E+00 -0.00000000000E+00 -0.45593999997E+02  0.45594000000E+02  0.51100000000E-03 0. -1.
    9900012    2    1    2    0    0 -0.52935484116E+00 -0.33643526887E+00 -0.99985047281E+00  0.90007700798E+02  0.89999961649E+02 0.  0.
        -12    1    1    2    0    0  0.52935484116E+00  0.33643526887E+00  0.99985047281E+00  0.11802992019E+01  0.00000000000E+00 0.  1.
         11    1    3    3    0    0  0.18146645098E+02 -0.35825901272E+01 -0.30889216248E+02  0.36003879805E+02  0.51100000000E-03 0. -1.
        -11    1    3    3    0    0 -0.18093219041E+01 -0.75073188386E+00 -0.10169021706E+02  0.10355976382E+02  0.51100000000E-03 0.  1.
        -12    1    3    3    0    0 -0.16866678035E+02  0.39968867422E+01  0.40058387481E+02  0.43647844611E+02  0.00000000000E+00 0.  1.
</event>
<event>
 7    1  0.5158441E-015  0.9000758E+02  0.7816164E-02  0.1186339E+00
        -11   -1    0    0    0    0  0.00000000000E+00  0.00000000000E+00  0.45593999997E+02  0.45594000000E+02  0.51100000000E-03 0.  1.
         11   -1    0    0    0    0 -0.00000000000E+00 -0.00000000000E+00 -0.45593999997E+02  0.45594000000E+02  0.51100000000E-03 0. -1.
    9900012    2    1    2    0    0  0.10045960093E+01  0.49610493397E+00 -0.37154803572E+00  0.90007584315E+02  0.89999843627E+02 0.  0.
        -12    1    1    2    0    0 -0.10045960093E+01 -0.49610493397E+00  0.37154803572E+00  0.11804156854E+01  0.00000000000E+00 0.  1.
         11    1    3    3    0    0 -0.10917647146E+02  0.22118542002E+02 -0.29639735361E+02  0.38560845842E+02  0.51100000000E-03 0. -1.
        -11    1    3    3    0    0  0.98946893612E+01  0.36584674302E+01 -0.24552567817E+01  0.10831322524E+02  0.51100000000E-03 0.  1.
        -12    1    3    3    0    0  0.20275537942E+01 -0.25280904498E+02  0.31723444107E+02  0.40615415949E+02  0.00000000000E+00 0.  1.
</event>
<event>
 7    1  0.5158441E-015  0.9000770E+02  0.7816164E-02  0.1186339E+00
        -11   -1    0    0    0    0  0.00000000000E+00  0.00000000000E+00  0.45593999997E+02  0.45594000000E+02  0.51100000000E-03 0.  1.
         11   -1    0    0    0    0 -0.00000000000E+00 -0.00000000000E+00 -0.45593999997E+02  0.45594000000E+02  0.51100000000E-03 0. -1.
    9900012    2    1    2    0    0 -0.10586755902E+01 -0.46405064584E+00 -0.23868642475E+00  0.90007699946E+02  0.89999960786E+02 0.  0.
        -12    1    1    2    0    0  0.10586755902E+01  0.46405064584E+00  0.23868642475E+00  0.11803000537E+01  0.00000000000E+00 0.  1.
         11    1    3    3    0    0  0.63371792123E+01  0.31082244119E+01 -0.64857011221E+01  0.95856777888E+01  0.51100000000E-03 0. -1.
        -11    1    3    3    0    0  0.30940762052E+02 -0.16065017131E+02  0.16863269093E+02  0.38727062586E+02  0.51100000000E-03 0.  1.
         12    1    3    3    0    0 -0.38336616854E+02  0.12492742073E+02 -0.10616254396E+02  0.41694959572E+02  0.00000000000E+00 0. -1.
</event>
<event>
 7    1  0.5158441E-015  0.9000774E+02  0.7816164E-02  0.1186339E+00
        -11   -1    0    0    0    0  0.00000000000E+00  0.00000000000E+00  0.45593999997E+02  0.45594000000E+02  0.51100000000E-03 0.  1.
         11   -1    0    0    0    0 -0.00000000000E+00 -0.00000000000E+00 -0.45593999997E+02  0.45594000000E+02  0.51100000000E-03 0. -1.
    9900012    2    1    2    0    0  0.53848148554E+00 -0.10500654337E+01  0.20394780001E-01  0.90007739151E+02  0.90000000508E+02 0.  0.
        -12    1    1    2    0    0 -0.53848148554E+00  0.10500654337E+01 -0.20394780001E-01  0.11802608493E+01  0.00000000000E+00 0.  1.
         11    1    3    3    0    0 -0.19948039500E+02 -0.23038611592E+02  0.27656944763E+02  0.41153474918E+02  0.51100000000E-03 0. -1.
        -11    1    3    3    0    0  0.89480059998E+01 -0.42575034351E+01 -0.14311155010E+01  0.10012054670E+02  0.51100000000E-03 0.  1.
        -12    1    3    3    0    0  0.11538514986E+02  0.26246049594E+02 -0.26205434482E+02  0.38842209563E+02  0.00000000000E+00 0.  1.
</event>
<event>
 7    1  0.5158441E-015  0.9000787E+02  0.7816164E-02  0.1186339E+00
        -11   -1    0    0    0    0  0.00000000000E+00  0.00000000000E+00  0.45593999997E+02  0.45594000000E+02  0.51100000000E-03 0. -1.
         11   -1    0    0    0    0 -0.00000000000E+00 -0.00000000000E+00 -0.45593999997E+02  0.45594000000E+02  0.51100000000E-03 0.  1.
    9900012    2    1    2    0    0  0.29429981992E+00  0.88579210718E+00 -0.72213011398E+00  0.90007867828E+02  0.90000130884E+02 0.  0.
        -12    1    1    2    0    0 -0.29429981992E+00 -0.88579210718E+00  0.72213011398E+00  0.11801321717E+01  0.00000000000E+00 0.  1.
         11    1    3    3    0    0  0.20888860532E+02 -0.25769262325E+02  0.95005736630E+01  0.34505945506E+02  0.51100000000E-03 0. -1.
        -11    1    3    3    0    0  0.10216973034E+02  0.17066398737E+00  0.58894086763E+01  0.11794100177E+02  0.51100000000E-03 0.  1.
        -12    1    3    3    0    0 -0.30811533745E+02  0.26484390445E+02 -0.16112112453E+02  0.43707822145E+02  0.00000000000E+00 0.  1.
</event>
<event>
 7    1  0.5158441E-015  0.9000772E+02  0.7816164E-02  0.1186339E+00
        -11   -1    0    0    0    0  0.00000000000E+00  0.00000000000E+00  0.45593999997E+02  0.45594000000E+02  0.51100000000E-03 0.  1.
         11   -1    0    0    0    0 -0.00000000000E+00 -0.00000000000E+00 -0.45593999997E+02  0.45594000000E+02  0.51100000000E-03 0. -1.
    9900012    2    1    2    0    0  0.12252710461E-01 -0.10913569876E+01 -0.44928450553E+00  0.90007717504E+02  0.89999978575E+02 0.  0.
        -12    1    1    2    0    0 -0.12252710461E-01  0.10913569876E+01  0.44928450553E+00  0.11802824959E+01  0.00000000000E+00 0.  1.
         11    1    3    3    0    0 -0.10491876767E+02 -0.32487693855E-01  0.20044972915E+00  0.10493841713E+02  0.51100000000E-03 0. -1.
        -11    1    3    3    0    0 -0.81292920710E+01  0.30236987775E+02 -0.21086415054E+02  0.37749141969E+02  0.51100000000E-03 0.  1.
         12    1    3    3    0    0  0.18633421549E+02 -0.31295857069E+02  0.20436680819E+02  0.41764733822E+02  0.00000000000E+00 0. -1.
</event>
<event>
 7    1  0.5158441E-015  0.9000771E+02  0.7816164E-02  0.1186339E+00
        -11   -1    0    0    0    0  0.00000000000E+00  0.00000000000E+00  0.45593999997E+02  0.45594000000E+02  0.51100000000E-03 0. -1.
         11   -1    0    0    0    0 -0.00000000000E+00 -0.00000000000E+00 -0.45593999997E+02  0.45594000000E+02  0.51100000000E-03 0.  1.
    9900012    2    1    2    0    0 -0.70465503737E-01 -0.59420434746E+00  0.10173707230E+01  0.90007708772E+02  0.89999969728E+02 0.  0.
        -12    1    1    2    0    0  0.70465503737E-01  0.59420434746E+00 -0.10173707230E+01  0.11802912275E+01  0.00000000000E+00 0.  1.
         11    1    3    3    0    0 -0.33490872562E+02 -0.20341044644E+02 -0.33767926557E+01  0.39329370337E+02  0.51100000000E-03 0. -1.
        -11    1    3    3    0    0 -0.20999983956E+01 -0.14527080289E+01  0.87208400295E+01  0.90869909739E+01  0.51100000000E-03 0.  1.
        -12    1    3    3    0    0  0.35520405454E+02  0.21199548326E+02 -0.43266766508E+01  0.41591347462E+02  0.00000000000E+00 0.  1.
</event>
<event>
 7    1  0.5158441E-015  0.9000775E+02  0.7816164E-02  0.1186339E+00
        -11   -1    0    0    0    0  0.00000000000E+00  0.00000000000E+00  0.45593999997E+02  0.45594000000E+02  0.51100000000E-03 0.  1.
         11   -1    0    0    0    0 -0.00000000000E+00 -0.00000000000E+00 -0.45593999997E+02  0.45594000000E+02  0.51100000000E-03 0. -1.
    9900012    2    1    2    0    0  0.11097728856E+00 -0.10851229229E+01  0.45076943101E+00  0.90007745453E+02  0.90000006893E+02 0.  0.
        -12    1    1    2    0    0 -0.11097728856E+00  0.10851229229E+01 -0.45076943101E+00  0.11802545472E+01  0.00000000000E+00 0.  1.
         11    1    3    3    0    0  0.31410918446E+01  0.47800347494E+01  0.87444900438E+01  0.10448985433E+02  0.51100000000E-03 0. -1.
        -11    1    3    3    0    0 -0.39126979623E+02  0.77324515721E+01  0.94440432966E+00  0.39894902451E+02  0.51100000000E-03 0.  1.
         12    1    3    3    0    0  0.36096865067E+02 -0.13597609244E+02 -0.92381249425E+01  0.39663857570E+02  0.00000000000E+00 0. -1.
</event>
<event>
 7    1  0.5158441E-015  0.9000764E+02  0.7816164E-02  0.1186339E+00
        -11   -1    0    0    0    0  0.00000000000E+00  0.00000000000E+00  0.45593999997E+02  0.45594000000E+02  0.51100000000E-03 0.  1.
         11   -1    0    0    0    0 -0.00000000000E+00 -0.00000000000E+00 -0.45593999997E+02  0.45594000000E+02  0.51100000000E-03 0. -1.
    9900012    2    1    2    0    0  0.11060729083E+01 -0.39666772414E+00  0.11187941394E+00  0.90007635834E+02  0.89999895827E+02 0.  0.
        -12    1    1    2    0    0 -0.11060729083E+01  0.39666772414E+00 -0.11187941394E+00  0.11803641663E+01  0.00000000000E+00 0.  1.
         11    1    3    3    0    0 -0.66448034325E+00 -0.16015724422E+01  0.16559267648E+02  0.16649802212E+02  0.51100000000E-03 0. -1.
        -11    1    3    3    0    0  0.26786828585E+02 -0.14769611492E+02  0.11413473996E+02  0.32648782492E+02  0.51100000000E-03 0.  1.
         12    1    3    3    0    0 -0.25016275333E+02  0.15974516211E+02 -0.27860862230E+02  0.40709051130E+02  0.00000000000E+00 0. -1.
</event>
<event>
 7    1  0.5158441E-015  0.9000755E+02  0.7816164E-02  0.1186339E+00
        -11   -1    0    0    0    0  0.00000000000E+00  0.00000000000E+00  0.45593999997E+02  0.45594000000E+02  0.51100000000E-03 0. -1.
         11   -1    0    0    0    0 -0.00000000000E+00 -0.00000000000E+00 -0.45593999997E+02  0.45594000000E+02  0.51100000000E-03 0.  1.
    9900012    2    1    2    0    0  0.61132807588E+00 -0.49152266954E-02  0.10098050865E+01  0.90007554115E+02  0.89999813029E+02 0.  0.
        -12    1    1    2    0    0 -0.61132807588E+00  0.49152266954E-02 -0.10098050865E+01  0.11804458855E+01  0.00000000000E+00 0.  1.
         11    1    3    3    0    0  0.32920730869E+02  0.18381540776E+02  0.68871726478E+01  0.38328693033E+02  0.51100000000E-03 0. -1.
        -11    1    3    3    0    0  0.70964844942E+01 -0.44162538728E+01 -0.52397802277E+01  0.98650234436E+01  0.51100000000E-03 0.  1.
        -12    1    3    3    0    0 -0.39405887287E+02 -0.13970202130E+02 -0.63758733361E+00  0.41813837638E+02  0.00000000000E+00 0.  1.
</event>
<event>
 7    1  0.5158441E-015  0.9000791E+02  0.7816164E-02  0.1186339E+00
        -11   -1    0    0    0    0  0.00000000000E+00  0.00000000000E+00  0.45593999997E+02  0.45594000000E+02  0.51100000000E-03 0.  1.
         11   -1    0    0    0    0 -0.00000000000E+00 -0.00000000000E+00 -0.45593999997E+02  0.45594000000E+02  0.51100000000E-03 0. -1.
    9900012    2    1    2    0    0  0.93735261666E+00  0.30454411220E+00 -0.64901800543E+00  0.90007914657E+02  0.90000178331E+02 0.  0.
        -12    1    1    2    0    0 -0.93735261666E+00 -0.30454411220E+00  0.64901800543E+00  0.11800853425E+01  0.00000000000E+00 0.  1.
         11    1    3    3    0    0  0.84531203487E+01  0.42112822591E+01  0.34197997365E+01  0.10044161110E+02  0.51100000000E-03 0. -1.
        -11    1    3    3    0    0  0.11189188710E+02  0.10207505586E+02  0.32885923803E+02  0.36206009155E+02  0.51100000000E-03 0.  1.
         12    1    3    3    0    0 -0.18704956442E+02 -0.14114243733E+02 -0.36954741545E+02  0.43757744393E+02  0.00000000000E+00 0. -1.
</event>
<event>
 7    1  0.5158441E-015  0.9000773E+02  0.7816164E-02  0.1186339E+00
        -11   -1    0    0    0    0  0.00000000000E+00  0.00000000000E+00  0.45593999997E+02  0.45594000000E+02  0.51100000000E-03 0.  1.
         11   -1    0    0    0    0 -0.00000000000E+00 -0.00000000000E+00 -0.45593999997E+02  0.45594000000E+02  0.51100000000E-03 0. -1.
    9900012    2    1    2    0    0 -0.10214443029E+01  0.47740303262E+00  0.34896503857E+00  0.90007729388E+02  0.89999990616E+02 0.  0.
        -12    1    1    2    0    0  0.10214443029E+01 -0.47740303262E+00 -0.34896503857E+00  0.11802706120E+01  0.00000000000E+00 0.  1.
         11    1    3    3    0    0  0.12798341415E+02 -0.17866661122E+02 -0.31525937770E+02  0.38430455047E+02  0.51100000000E-03 0. -1.
        -11    1    3    3    0    0 -0.71382423452E+01  0.58218779750E+01 -0.60923679949E+01  0.11043808898E+02  0.51100000000E-03 0.  1.
        -12    1    3    3    0    0 -0.66815433726E+01  0.12522186179E+02  0.37967270803E+02  0.40533465443E+02  0.00000000000E+00 0.  1.
</event>
<event>
 7    1  0.5158441E-015  0.9000776E+02  0.7816164E-02  0.1186339E+00
        -11   -1    0    0    0    0  0.00000000000E+00  0.00000000000E+00  0.45593999997E+02  0.45594000000E+02  0.51100000000E-03 0.  1.
         11   -1    0    0    0    0 -0.00000000000E+00 -0.00000000000E+00 -0.45593999997E+02  0.45594000000E+02  0.51100000000E-03 0. -1.
    9900012    2    1    2    0    0 -0.74300794749E+00  0.70550293542E+00 -0.58580266398E+00  0.90007762751E+02  0.90000024420E+02 0.  0.
        -12    1    1    2    0    0  0.74300794749E+00 -0.70550293542E+00  0.58580266398E+00  0.11802372486E+01  0.00000000000E+00 0.  1.
         11    1    3    3    0    0 -0.31780363070E+01  0.32008064370E+01 -0.10134043601E+02  0.11092516242E+02  0.51100000000E-03 0. -1.
        -11    1    3    3    0    0  0.25360823623E+02  0.11003198155E+01 -0.26081019414E+02  0.36395077311E+02  0.51100000000E-03 0.  1.
         12    1    3    3    0    0 -0.22925795264E+02 -0.35956233171E+01  0.35629260351E+02  0.42520169198E+02  0.00000000000E+00 0. -1.
</event>
<event>
 7    1  0.6476086E-015  0.9000777E+02  0.7816164E-02  0.1186339E+00
        -11   -1    0    0    0    0  0.00000000000E+00  0.00000000000E+00  0.45593999997E+02  0.45594000000E+02  0.51100000000E-03 0. -1.
         11   -1    0    0    0    0 -0.00000000000E+00 -0.00000000000E+00 -0.45593999997E+02  0.45594000000E+02  0.51100000000E-03 0.  1.
    9900012    2    1    2    0    0  0.60040461659E+00  0.60507829146E+00  0.81630076092E+00  0.90007765966E+02  0.90000027677E+02 0.  0.
        -12    1    1    2    0    0 -0.60040461659E+00 -0.60507829146E+00 -0.81630076092E+00  0.11802340339E+01  0.00000000000E+00 0.  1.
         11    1    3    3    0    0  0.23295757738E+01  0.33442041424E+02  0.11870411046E+02  0.35562673079E+02  0.51100000000E-03 0. -1.
        -11    1    3    3    0    0 -0.75753809226E+00  0.10217514584E+02 -0.20799502751E+01  0.10454552197E+02  0.51100000000E-03 0.  1.
        -12    1    3    3    0    0 -0.97163306498E+00 -0.43054477717E+02 -0.89741600100E+01  0.43990540689E+02  0.00000000000E+00 0.  1.
</event>
<event>
 7    1  0.5158441E-015  0.9000773E+02  0.7816164E-02  0.1186339E+00
        -11   -1    0    0    0    0  0.00000000000E+00  0.00000000000E+00  0.45593999997E+02  0.45594000000E+02  0.51100000000E-03 0. -1.
         11   -1    0    0    0    0 -0.00000000000E+00 -0.00000000000E+00 -0.45593999997E+02  0.45594000000E+02  0.51100000000E-03 0.  1.
    9900012    2    1    2    0    0  0.11458793712E+01  0.26700160575E+00  0.93275124449E-01  0.90007733234E+02  0.89999994512E+02 0.  0.
        -12    1    1    2    0    0 -0.11458793712E+01 -0.26700160575E+00 -0.93275124449E-01  0.11802667663E+01  0.00000000000E+00 0.  1.
         11    1    3    3    0    0  0.58816119391E+00  0.51793592132E+01  0.90955652567E+01  0.10483367925E+02  0.51100000000E-03 0. -1.
        -11    1    3    3    0    0  0.29099734413E+02 -0.44303502306E+01 -0.31548965938E+02  0.43148114653E+02  0.51100000000E-03 0.  1.
         12    1    3    3    0    0 -0.28542016236E+02 -0.48200737686E+00  0.22546675805E+02  0.36376250656E+02  0.00000000000E+00 0. -1.
</event>
<event>
 7    1  0.5158441E-015  0.9000777E+02  0.7816164E-02  0.1186339E+00
        -11   -1    0    0    0    0  0.00000000000E+00  0.00000000000E+00  0.45593999997E+02  0.45594000000E+02  0.51100000000E-03 0. -1.
         11   -1    0    0    0    0 -0.00000000000E+00 -0.00000000000E+00 -0.45593999997E+02  0.45594000000E+02  0.51100000000E-03 0.  1.
    9900012    2    1    2    0    0  0.77216650686E-01 -0.39990490787E+00  0.11077207873E+01  0.90007774730E+02  0.90000036556E+02 0.  0.
        -12    1    1    2    0    0 -0.77216650686E-01  0.39990490787E+00 -0.11077207873E+01  0.11802252705E+01  0.00000000000E+00 0.  1.
         11    1    3    3    0    0  0.16442699129E+02 -0.16858507589E+02  0.55441583011E+01  0.24193166893E+02  0.51100000000E-03 0. -1.
        -11    1    3    3    0    0 -0.18270503340E+01  0.68018367268E+01  0.28058600557E+02  0.28929019362E+02  0.51100000000E-03 0.  1.
        -12    1    3    3    0    0 -0.14538432144E+02  0.96567659547E+01 -0.32495038071E+02  0.36885588475E+02  0.00000000000E+00 0.  1.
</event>
<event>
 7    1  0.5158441E-015  0.9000772E+02  0.7816164E-02  0.1186339E+00
        -11   -1    0    0    0    0  0.00000000000E+00  0.00000000000E+00  0.45593999997E+02  0.45594000000E+02  0.51100000000E-03 0. -1.
         11   -1    0    0    0    0 -0.00000000000E+00 -0.00000000000E+00 -0.45593999997E+02  0.45594000000E+02  0.51100000000E-03 0.  1.
    9900012    2    1    2    0    0  0.40242488436E+00 -0.13015566466E+00  0.11018916945E+01  0.90007723934E+02  0.89999985090E+02 0.  0.
        -12    1    1    2    0    0 -0.40242488436E+00  0.13015566466E+00 -0.11018916945E+01  0.11802760656E+01  0.00000000000E+00 0.  1.
         11    1    3    3    0    0  0.79882948121E+01  0.96216105143E+00  0.60584340888E+01  0.10071903085E+02  0.51100000000E-03 0. -1.
        -11    1    3    3    0    0  0.26525561977E+02 -0.18368461220E+02 -0.20970779546E+02  0.38480896569E+02  0.51100000000E-03 0.  1.
         12    1    3    3    0    0 -0.34111431904E+02  0.17276144504E+02  0.16014237151E+02  0.41454924280E+02  0.00000000000E+00 0. -1.
</event>
<event>
 7    1  0.5158441E-015  0.9000660E+02  0.7816164E-02  0.1186341E+00
        -11   -1    0    0    0    0  0.00000000000E+00  0.00000000000E+00  0.45593999997E+02  0.45594000000E+02  0.51100000000E-03 0.  1.
         11   -1    0    0    0    0 -0.00000000000E+00 -0.00000000000E+00 -0.45593999997E+02  0.45594000000E+02  0.51100000000E-03 0. -1.
    9900012    2    1    2    0    0 -0.87568639898E+00 -0.20030241400E+00 -0.76729869341E+00  0.90006604634E+02  0.89998851008E+02 0.  0.
        -12    1    1    2    0    0  0.87568639898E+00  0.20030241400E+00  0.76729869341E+00  0.11813953662E+01  0.00000000000E+00 0.  1.
         11    1    3    3    0    0 -0.17204077372E+02 -0.28119075094E+02  0.18168630029E+02  0.37639896118E+02  0.51100000000E-03 0. -1.
        -11    1    3    3    0    0  0.43316425233E+01 -0.22281293806E+00  0.95983138496E+01  0.10532824957E+02  0.51100000000E-03 0.  1.
        -12    1    3    3    0    0  0.11996748450E+02  0.28141585618E+02 -0.28534242572E+02  0.41833883559E+02  0.00000000000E+00 0.  1.
</event>
<event>
 7    1  0.5158441E-015  0.9000776E+02  0.7816164E-02  0.1186339E+00
        -11   -1    0    0    0    0  0.00000000000E+00  0.00000000000E+00  0.45593999997E+02  0.45594000000E+02  0.51100000000E-03 0.  1.
         11   -1    0    0    0    0 -0.00000000000E+00 -0.00000000000E+00 -0.45593999997E+02  0.45594000000E+02  0.51100000000E-03 0. -1.
    9900012    2    1    2    0    0  0.11475548382E+01  0.10997728895E+00  0.25294617418E+00  0.90007763211E+02  0.90000024886E+02 0.  0.
        -12    1    1    2    0    0 -0.11475548382E+01 -0.10997728895E+00 -0.25294617418E+00  0.11802367888E+01  0.00000000000E+00 0.  1.
         11    1    3    3    0    0 -0.34431401693E+02 -0.50398908497E+00 -0.15124618872E+02  0.37610231637E+02  0.51100000000E-03 0. -1.
        -11    1    3    3    0    0 -0.49380610410E+01 -0.57866225977E+01 -0.19739127582E+01  0.78591208015E+01  0.51100000000E-03 0.  1.
        -12    1    3    3    0    0  0.40517017572E+02  0.64005889716E+01  0.17351477804E+02  0.44538410772E+02  0.00000000000E+00 0.  1.
</event>
<event>
 7    1  0.5158441E-015  0.9000772E+02  0.7816164E-02  0.1186339E+00
        -11   -1    0    0    0    0  0.00000000000E+00  0.00000000000E+00  0.45593999997E+02  0.45594000000E+02  0.51100000000E-03 0.  1.
         11   -1    0    0    0    0 -0.00000000000E+00 -0.00000000000E+00 -0.45593999997E+02  0.45594000000E+02  0.51100000000E-03 0. -1.
    9900012    2    1    2    0    0 -0.87949658940E-01  0.53952179434E+00 -0.10460617112E+01  0.90007718672E+02  0.89999979759E+02 0.  0.
        -12    1    1    2    0    0  0.87949658940E-01 -0.53952179434E+00  0.10460617112E+01  0.11802813278E+01  0.00000000000E+00 0.  1.
         11    1    3    3    0    0 -0.39811023971E+01  0.61186956798E+01 -0.69678509471E+01  0.10091509312E+02  0.51100000000E-03 0. -1.
        -11    1    3    3    0    0  0.41022340046E+02  0.38254746751E+01  0.28070539716E+00  0.41201279532E+02  0.51100000000E-03 0.  1.
         12    1    3    3    0    0 -0.37129187308E+02 -0.94046485606E+01  0.56410838388E+01  0.38714929827E+02  0.00000000000E+00 0. -1.
</event>
<event>
 7    1  0.5158441E-015  0.9000778E+02  0.7816164E-02  0.1186339E+00
        -11   -1    0    0    0    0  0.00000000000E+00  0.00000000000E+00  0.45593999997E+02  0.45594000000E+02  0.51100000000E-03 0. -1.
         11   -1    0    0    0    0 -0.00000000000E+00 -0.00000000000E+00 -0.45593999997E+02  0.45594000000E+02  0.51100000000E-03 0.  1.
    9900012    2    1    2    0    0 -0.10060444583E+01  0.61331531070E+00 -0.68091423694E-01  0.90007780713E+02  0.90000042619E+02 0.  0.
        -12    1    1    2    0    0  0.10060444583E+01 -0.61331531070E+00  0.68091423694E-01  0.11802192866E+01  0.00000000000E+00 0.  1.
         11    1    3    3    0    0  0.12768756561E+02  0.13854425615E+01 -0.44063218911E+01  0.13578522308E+02  0.51100000000E-03 0. -1.
        -11    1    3    3    0    0 -0.25200210027E+02  0.31491522974E+02  0.10440536322E+02  0.41662589977E+02  0.51100000000E-03 0.  1.
         12    1    3    3    0    0  0.11425409008E+02 -0.32263650225E+02 -0.61023058546E+01  0.34766668428E+02  0.00000000000E+00 0. -1.
</event>
<event>
 7    1  0.5158441E-015  0.9000768E+02  0.7816164E-02  0.1186339E+00
        -11   -1    0    0    0    0  0.00000000000E+00  0.00000000000E+00  0.45593999997E+02  0.45594000000E+02  0.51100000000E-03 0. -1.
         11   -1    0    0    0    0 -0.00000000000E+00 -0.00000000000E+00 -0.45593999997E+02  0.45594000000E+02  0.51100000000E-03 0.  1.
    9900012    2    1    2    0    0 -0.59774226973E-01  0.69780690318E+00 -0.95007792436E+00  0.90007679919E+02  0.89999940493E+02 0.  0.
        -12    1    1    2    0    0  0.59774226973E-01 -0.69780690318E+00  0.95007792436E+00  0.11803200815E+01  0.00000000000E+00 0.  1.
         11    1    3    3    0    0  0.23073064758E+02 -0.15380382073E+02 -0.22967714855E+02  0.36006088318E+02  0.51100000000E-03 0. -1.
        -11    1    3    3    0    0  0.65563025627E+01  0.35103740449E+01 -0.73028953253E+01  0.10423056635E+02  0.51100000000E-03 0.  1.
        -12    1    3    3    0    0 -0.29689141547E+02  0.12567814931E+02  0.29320532256E+02  0.43578534966E+02  0.00000000000E+00 0.  1.
</event>
<event>
 7    1  0.5158441E-015  0.9000776E+02  0.7816164E-02  0.1186339E+00
        -11   -1    0    0    0    0  0.00000000000E+00  0.00000000000E+00  0.45593999997E+02  0.45594000000E+02  0.51100000000E-03 0. -1.
         11   -1    0    0    0    0 -0.00000000000E+00 -0.00000000000E+00 -0.45593999997E+02  0.45594000000E+02  0.51100000000E-03 0.  1.
    9900012    2    1    2    0    0  0.59785473259E+00  0.86835066255E+00  0.53057504338E+00  0.90007757215E+02  0.90000018810E+02 0.  0.
        -12    1    1    2    0    0 -0.59785473259E+00 -0.86835066255E+00 -0.53057504338E+00  0.11802427848E+01  0.00000000000E+00 0.  1.
         11    1    3    3    0    0 -0.87572971883E+01 -0.75253488981E+01  0.14764937092E+01  0.11640496725E+02  0.51100000000E-03 0. -1.
        -11    1    3    3    0    0  0.87013004248E+01 -0.33494530487E+02  0.80240694488E+01  0.35524384476E+02  0.51100000000E-03 0.  1.
         12    1    3    3    0    0  0.65385149608E+00  0.41888230048E+02 -0.89699881146E+01  0.42842876013E+02  0.00000000000E+00 0. -1.
</event>
<event>
 7    1  0.5158441E-015  0.9000763E+02  0.7816164E-02  0.1186339E+00
        -11   -1    0    0    0    0  0.00000000000E+00  0.00000000000E+00  0.45593999997E+02  0.45594000000E+02  0.51100000000E-03 0.  1.
         11   -1    0    0    0    0 -0.00000000000E+00 -0.00000000000E+00 -0.45593999997E+02  0.45594000000E+02  0.51100000000E-03 0. -1.
    9900012    2    1    2    0    0  0.32610532967E+00  0.49902727953E+00 -0.10187716636E+01  0.90007632001E+02  0.89999891943E+02 0.  0.
        -12    1    1    2    0    0 -0.32610532967E+00 -0.49902727953E+00  0.10187716636E+01  0.11803679995E+01  0.00000000000E+00 0.  1.
         11    1    3    3    0    0 -0.18223172036E+02  0.89204025225E+01  0.10000556730E+02  0.22620095388E+02  0.51100000000E-03 0. -1.
        -11    1    3    3    0    0 -0.86143761460E+01  0.89647265699E+01  0.19407751019E+02  0.23048527040E+02  0.51100000000E-03 0.  1.
         12    1    3    3    0    0  0.27163653511E+02 -0.17386101813E+02 -0.30427079412E+02  0.44339009572E+02  0.00000000000E+00 0. -1.
</event>
<event>
 7    1  0.5158441E-015  0.9000774E+02  0.7816164E-02  0.1186339E+00
        -11   -1    0    0    0    0  0.00000000000E+00  0.00000000000E+00  0.45593999997E+02  0.45594000000E+02  0.51100000000E-03 0.  1.
         11   -1    0    0    0    0 -0.00000000000E+00 -0.00000000000E+00 -0.45593999997E+02  0.45594000000E+02  0.51100000000E-03 0. -1.
    9900012    2    1    2    0    0  0.93646183948E+00  0.16541465868E+00 -0.69905986687E+00  0.90007742620E+02  0.90000004022E+02 0.  0.
        -12    1    1    2    0    0 -0.93646183948E+00 -0.16541465868E+00  0.69905986687E+00  0.11802573802E+01  0.00000000000E+00 0.  1.
         11    1    3    3    0    0 -0.17347076579E+02 -0.89136321102E+01 -0.26584014018E+02  0.32970952440E+02  0.51100000000E-03 0. -1.
        -11    1    3    3    0    0  0.13676607619E+02 -0.10197875113E+02 -0.71616976477E+01  0.18502328671E+02  0.51100000000E-03 0.  1.
        -12    1    3    3    0    0  0.46069307997E+01  0.19276921882E+02  0.33046651799E+02  0.38534461508E+02  0.00000000000E+00 0.  1.
</event>
<event>
 7    1  0.5158441E-015  0.9000771E+02  0.7816164E-02  0.1186339E+00
        -11   -1    0    0    0    0  0.00000000000E+00  0.00000000000E+00  0.45593999997E+02  0.45594000000E+02  0.51100000000E-03 0. -1.
         11   -1    0    0    0    0 -0.00000000000E+00 -0.00000000000E+00 -0.45593999997E+02  0.45594000000E+02  0.51100000000E-03 0.  1.
    9900012    2    1    2    0    0  0.10116110918E+00 -0.70468770779E+00  0.94141779524E+00  0.90007709442E+02  0.89999970407E+02 0.  0.
        -12    1    1    2    0    0 -0.10116110918E+00  0.70468770779E+00 -0.94141779524E+00  0.11802905577E+01  0.00000000000E+00 0.  1.
         11    1    3    3    0    0  0.83902647114E+01 -0.23733363919E+01 -0.32570005401E+01  0.93079170783E+01  0.51100000000E-03 0. -1.
        -11    1    3    3    0    0  0.19074555766E+02 -0.98945710223E+00 -0.30771150634E+02  0.36217142552E+02  0.51100000000E-03 0.  1.
         12    1    3    3    0    0 -0.27363659368E+02  0.26581057863E+01  0.34969568969E+02  0.44482649812E+02  0.00000000000E+00 0. -1.
</event>
<event>
 7    1  0.5158441E-015  0.9000746E+02  0.7816164E-02  0.1186340E+00
        -11   -1    0    0    0    0  0.00000000000E+00  0.00000000000E+00  0.45593999997E+02  0.45594000000E+02  0.51100000000E-03 0.  1.
         11   -1    0    0    0    0 -0.00000000000E+00 -0.00000000000E+00 -0.45593999997E+02  0.45594000000E+02  0.51100000000E-03 0. -1.
    9900012    2    1    2    0    0  0.84023972679E+00  0.31914481220E+00 -0.76539387614E+00  0.90007456060E+02  0.89999713679E+02 0.  0.
        -12    1    1    2    0    0 -0.84023972679E+00 -0.31914481220E+00  0.76539387614E+00  0.11805439404E+01  0.00000000000E+00 0.  1.
         11    1    3    3    0    0  0.18030889844E+02  0.12325605866E+02 -0.30059032096E+02  0.37156142956E+02  0.51100000000E-03 0. -1.
        -11    1    3    3    0    0  0.94113767678E+00  0.99036681110E+01 -0.24354248783E+01  0.10242054324E+02  0.51100000000E-03 0.  1.
        -12    1    3    3    0    0 -0.18131787794E+02 -0.21910129165E+02  0.31729063098E+02  0.42609258780E+02  0.00000000000E+00 0.  1.
</event>
<event>
 7    1  0.5158441E-015  0.9000771E+02  0.7816164E-02  0.1186339E+00
        -11   -1    0    0    0    0  0.00000000000E+00  0.00000000000E+00  0.45593999997E+02  0.45594000000E+02  0.51100000000E-03 0.  1.
         11   -1    0    0    0    0 -0.00000000000E+00 -0.00000000000E+00 -0.45593999997E+02  0.45594000000E+02  0.51100000000E-03 0. -1.
    9900012    2    1    2    0    0 -0.40160534596E+00 -0.79283264495E+00  0.77667513220E+00  0.90007705665E+02  0.89999966580E+02 0.  0.
        -12    1    1    2    0    0  0.40160534596E+00  0.79283264495E+00 -0.77667513220E+00  0.11802943352E+01  0.00000000000E+00 0.  1.
         11    1    3    3    0    0  0.18037859886E+01  0.72517810088E+01 -0.27985533192E+01  0.79795910066E+01  0.51100000000E-03 0. -1.
        -11    1    3    3    0    0  0.87949833040E+01 -0.26129256264E+02 -0.31001175922E+02  0.41486897607E+02  0.51100000000E-03 0.  1.
         12    1    3    3    0    0 -0.11000374639E+02  0.18084642611E+02  0.34576404374E+02  0.40541217051E+02  0.00000000000E+00 0. -1.
</event>
<event>
 7    1  0.5158441E-015  0.9000821E+02  0.7816164E-02  0.1186338E+00
        -11   -1    0    0    0    0  0.00000000000E+00  0.00000000000E+00  0.45593999997E+02  0.45594000000E+02  0.51100000000E-03 0.  1.
         11   -1    0    0    0    0 -0.00000000000E+00 -0.00000000000E+00 -0.45593999997E+02  0.45594000000E+02  0.51100000000E-03 0. -1.
    9900012    2    1    2    0    0 -0.86285956910E+00  0.59072460999E+00  0.54627650013E+00  0.90008211792E+02  0.90000479387E+02 0.  0.
        -12    1    1    2    0    0  0.86285956910E+00 -0.59072460999E+00 -0.54627650013E+00  0.11797882079E+01  0.00000000000E+00 0.  1.
         11    1    3    3    0    0  0.62694863274E+01 -0.27591205646E+00  0.96227415736E+01  0.11488243640E+02  0.51100000000E-03 0. -1.
        -11    1    3    3    0    0 -0.11205860415E+02 -0.30069000051E+02  0.18360054685E+02  0.36970362184E+02  0.51100000000E-03 0.  1.
         12    1    3    3    0    0  0.40735145189E+01  0.30935636717E+02 -0.27436519759E+02  0.41549605968E+02  0.00000000000E+00 0. -1.
</event>
<event>
 7    1  0.5158441E-015  0.9000775E+02  0.7816164E-02  0.1186339E+00
        -11   -1    0    0    0    0  0.00000000000E+00  0.00000000000E+00  0.45593999997E+02  0.45594000000E+02  0.51100000000E-03 0.  1.
         11   -1    0    0    0    0 -0.00000000000E+00 -0.00000000000E+00 -0.45593999997E+02  0.45594000000E+02  0.51100000000E-03 0. -1.
    9900012    2    1    2    0    0 -0.11681394370E+01 -0.39635226970E-01 -0.16393962794E+00  0.90007747105E+02  0.90000008566E+02 0.  0.
        -12    1    1    2    0    0  0.11681394370E+01  0.39635226970E-01  0.16393962794E+00  0.11802528954E+01  0.00000000000E+00 0.  1.
         11    1    3    3    0    0 -0.13671090991E+01 -0.94525653869E+01 -0.11730117887E+01  0.96226782446E+01  0.51100000000E-03 0. -1.
        -11    1    3    3    0    0 -0.70189905600E+01 -0.30847185340E+02  0.17651433062E+02  0.36226898312E+02  0.51100000000E-03 0.  1.
         12    1    3    3    0    0  0.72179602221E+01  0.40260115500E+02 -0.16642360901E+02  0.44158170548E+02  0.00000000000E+00 0. -1.
</event>
<event>
 7    1  0.5158441E-015  0.9000776E+02  0.7816164E-02  0.1186339E+00
        -11   -1    0    0    0    0  0.00000000000E+00  0.00000000000E+00  0.45593999997E+02  0.45594000000E+02  0.51100000000E-03 0.  1.
         11   -1    0    0    0    0 -0.00000000000E+00 -0.00000000000E+00 -0.45593999997E+02  0.45594000000E+02  0.51100000000E-03 0. -1.
    9900012    2    1    2    0    0 -0.49255793383E+00 -0.10724519487E+01  0.14461752236E-01  0.90007756109E+02  0.90000017689E+02 0.  0.
        -12    1    1    2    0    0  0.49255793383E+00  0.10724519487E+01 -0.14461752236E-01  0.11802438912E+01  0.00000000000E+00 0.  1.
         11    1    3    3    0    0 -0.38870776705E+02 -0.69142351640E+01 -0.13555289924E+02  0.41743140931E+02  0.51100000000E-03 0. -1.
        -11    1    3    3    0    0  0.61268654280E+00  0.66701131483E+01 -0.25861811431E+01  0.71801202899E+01  0.51100000000E-03 0.  1.
        -12    1    3    3    0    0  0.37765532229E+02 -0.82832993296E+00  0.16155932819E+02  0.41084494888E+02  0.00000000000E+00 0.  1.
</event>
<event>
 7    1  0.5158441E-015  0.9000767E+02  0.7816164E-02  0.1186339E+00
        -11   -1    0    0    0    0  0.00000000000E+00  0.00000000000E+00  0.45593999997E+02  0.45594000000E+02  0.51100000000E-03 0.  1.
         11   -1    0    0    0    0 -0.00000000000E+00 -0.00000000000E+00 -0.45593999997E+02  0.45594000000E+02  0.51100000000E-03 0. -1.
    9900012    2    1    2    0    0 -0.28765240428E+00  0.70394227045E+00 -0.90271539223E+00  0.90007672204E+02  0.89999932677E+02 0.  0.
        -12    1    1    2    0    0  0.28765240428E+00 -0.70394227045E+00  0.90271539223E+00  0.11803277956E+01  0.00000000000E+00 0.  1.
         11    1    3    3    0    0 -0.32767558342E+01 -0.87929473978E+01  0.32397317473E+00  0.93892497899E+01  0.51100000000E-03 0. -1.
        -11    1    3    3    0    0  0.13500946171E+01 -0.21849141536E+02  0.29472469124E+02  0.36712861205E+02  0.51100000000E-03 0.  1.
         12    1    3    3    0    0  0.16390088129E+01  0.31346031205E+02 -0.30699157691E+02  0.43905561209E+02  0.00000000000E+00 0. -1.
</event>
<event>
 7    1  0.5158441E-015  0.9000778E+02  0.7816164E-02  0.1186339E+00
        -11   -1    0    0    0    0  0.00000000000E+00  0.00000000000E+00  0.45593999997E+02  0.45594000000E+02  0.51100000000E-03 0.  1.
         11   -1    0    0    0    0 -0.00000000000E+00 -0.00000000000E+00 -0.45593999997E+02  0.45594000000E+02  0.51100000000E-03 0. -1.
    9900012    2    1    2    0    0 -0.36602990161E+00  0.11067890829E+01 -0.18427771265E+00  0.90007780428E+02  0.90000042330E+02 0.  0.
        -12    1    1    2    0    0  0.36602990161E+00 -0.11067890829E+01  0.18427771265E+00  0.11802195721E+01  0.00000000000E+00 0.  1.
         11    1    3    3    0    0  0.34849484890E+02 -0.16354460164E+02 -0.11044655937E+02  0.40049212095E+02  0.51100000000E-03 0. -1.
        -11    1    3    3    0    0  0.22272838531E+01  0.10428033628E+02  0.26028261899E+01  0.10976310088E+02  0.51100000000E-03 0.  1.
        -12    1    3    3    0    0 -0.37442798645E+02  0.70332156189E+01  0.82575520348E+01  0.38982258245E+02  0.00000000000E+00 0.  1.
</event>
<event>
 7    1  0.5158441E-015  0.9000777E+02  0.7816164E-02  0.1186339E+00
        -11   -1    0    0    0    0  0.00000000000E+00  0.00000000000E+00  0.45593999997E+02  0.45594000000E+02  0.51100000000E-03 0.  1.
         11   -1    0    0    0    0 -0.00000000000E+00 -0.00000000000E+00 -0.45593999997E+02  0.45594000000E+02  0.51100000000E-03 0. -1.
    9900012    2    1    2    0    0  0.89145586659E+00  0.51032142241E+00 -0.58122089275E+00  0.90007771530E+02  0.90000033314E+02 0.  0.
        -12    1    1    2    0    0 -0.89145586659E+00 -0.51032142241E+00  0.58122089275E+00  0.11802284704E+01  0.00000000000E+00 0.  1.
         11    1    3    3    0    0  0.62290111386E+01 -0.55804248095E+01  0.21694074179E-01  0.83631448459E+01  0.51100000000E-03 0. -1.
        -11    1    3    3    0    0  0.95669269047E+01  0.93184035081E+00  0.38394021840E+02  0.39578975860E+02  0.51100000000E-03 0.  1.
         12    1    3    3    0    0 -0.14904482177E+02  0.51589058811E+01 -0.38996936807E+02  0.42065650823E+02  0.00000000000E+00 0. -1.
</event>
<event>
 7    1  0.5158441E-015  0.9000782E+02  0.7816164E-02  0.1186339E+00
        -11   -1    0    0    0    0  0.00000000000E+00  0.00000000000E+00  0.45593999997E+02  0.45594000000E+02  0.51100000000E-03 0.  1.
         11   -1    0    0    0    0 -0.00000000000E+00 -0.00000000000E+00 -0.45593999997E+02  0.45594000000E+02  0.51100000000E-03 0. -1.
    9900012    2    1    2    0    0 -0.71384046594E+00 -0.91200655330E+00  0.22694175326E+00  0.90007819199E+02  0.90000081612E+02 0.  0.
        -12    1    1    2    0    0  0.71384046594E+00  0.91200655330E+00 -0.22694175326E+00  0.11801808012E+01  0.00000000000E+00 0.  1.
         11    1    3    3    0    0  0.17801566362E+02 -0.39122468985E+01 -0.32442729695E+02  0.37211989345E+02  0.51100000000E-03 0. -1.
        -11    1    3    3    0    0  0.47833863052E+01 -0.91166088164E+01 -0.71498793767E+00  0.10320104111E+02  0.51100000000E-03 0.  1.
        -12    1    3    3    0    0 -0.23298793133E+02  0.12116849162E+02  0.33384659386E+02  0.42475725742E+02  0.00000000000E+00 0.  1.
</event>
<event>
 7    1  0.5158441E-015  0.9000773E+02  0.7816164E-02  0.1186339E+00
        -11   -1    0    0    0    0  0.00000000000E+00  0.00000000000E+00  0.45593999997E+02  0.45594000000E+02  0.51100000000E-03 0.  1.
         11   -1    0    0    0    0 -0.00000000000E+00 -0.00000000000E+00 -0.45593999997E+02  0.45594000000E+02  0.51100000000E-03 0. -1.
    9900012    2    1    2    0    0 -0.70296292764E+00 -0.41174068215E+00 -0.85401638951E+00  0.90007732547E+02  0.89999993817E+02 0.  0.
        -12    1    1    2    0    0  0.70296292764E+00  0.41174068215E+00  0.85401638951E+00  0.11802674530E+01  0.00000000000E+00 0.  1.
         11    1    3    3    0    0 -0.98569995610E+01 -0.96683201784E+00 -0.45593903214E+01  0.10903359338E+02  0.51100000000E-03 0. -1.
        -11    1    3    3    0    0  0.35710316070E+01 -0.33866655933E+02 -0.17503779185E+02  0.38289488594E+02  0.51100000000E-03 0.  1.
         12    1    3    3    0    0  0.55830050264E+01  0.34421747268E+02  0.21209153117E+02  0.40814884614E+02  0.00000000000E+00 0. -1.
</event>
<event>
 7    1  0.5158441E-015  0.9000774E+02  0.7816164E-02  0.1186339E+00
        -11   -1    0    0    0    0  0.00000000000E+00  0.00000000000E+00  0.45593999997E+02  0.45594000000E+02  0.51100000000E-03 0. -1.
         11   -1    0    0    0    0 -0.00000000000E+00 -0.00000000000E+00 -0.45593999997E+02  0.45594000000E+02  0.51100000000E-03 0.  1.
    9900012    2    1    2    0    0  0.25738955995E-01  0.42606476839E+00  0.11003678945E+01  0.90007744441E+02  0.90000005868E+02 0.  0.
        -12    1    1    2    0    0 -0.25738955995E-01 -0.42606476839E+00 -0.11003678945E+01  0.11802555587E+01  0.00000000000E+00 0.  1.
         11    1    3    3    0    0 -0.60135898643E+01  0.64162344267E+01 -0.65695457151E+00  0.88183284610E+01  0.51100000000E-03 0. -1.
        -11    1    3    3    0    0 -0.23066501781E+02 -0.11788957138E+01 -0.29988868016E+02  0.37852153237E+02  0.51100000000E-03 0.  1.
         12    1    3    3    0    0  0.29105830602E+02 -0.48112739445E+01  0.31746190482E+02  0.43337262743E+02  0.00000000000E+00 0. -1.
</event>
<event>
 7    1  0.5158441E-015  0.9000776E+02  0.7816164E-02  0.1186339E+00
        -11   -1    0    0    0    0  0.00000000000E+00  0.00000000000E+00  0.45593999997E+02  0.45594000000E+02  0.51100000000E-03 0.  1.
         11   -1    0    0    0    0 -0.00000000000E+00 -0.00000000000E+00 -0.45593999997E+02  0.45594000000E+02  0.51100000000E-03 0. -1.
    9900012    2    1    2    0    0 -0.67178619795E+00 -0.96264270413E+00  0.12247153744E+00  0.90007755555E+02  0.90000017129E+02 0.  0.
        -12    1    1    2    0    0  0.67178619795E+00  0.96264270413E+00 -0.12247153744E+00  0.11802444446E+01  0.00000000000E+00 0.  1.
         11    1    3    3    0    0 -0.28951347977E+02 -0.21483601662E+02 -0.20266486933E+02  0.41357661720E+02  0.51100000000E-03 0. -1.
        -11    1    3    3    0    0 -0.48107591058E+01  0.51283064204E+01  0.65787336633E+01  0.96292609680E+01  0.51100000000E-03 0.  1.
        -12    1    3    3    0    0  0.33090320885E+02  0.15392652537E+02  0.13810224808E+02  0.39020832867E+02  0.00000000000E+00 0.  1.
</event>
<event>
 7    1  0.5158441E-015  0.9000775E+02  0.7816164E-02  0.1186339E+00
        -11   -1    0    0    0    0  0.00000000000E+00  0.00000000000E+00  0.45593999997E+02  0.45594000000E+02  0.51100000000E-03 0. -1.
         11   -1    0    0    0    0 -0.00000000000E+00 -0.00000000000E+00 -0.45593999997E+02  0.45594000000E+02  0.51100000000E-03 0.  1.
    9900012    2    1    2    0    0  0.66085400664E+00  0.28075656756E+00  0.93671771549E+00  0.90007749032E+02  0.90000010519E+02 0.  0.
        -12    1    1    2    0    0 -0.66085400664E+00 -0.28075656756E+00 -0.93671771549E+00  0.11802509677E+01  0.00000000000E+00 0.  1.
         11    1    3    3    0    0  0.79629668154E+01 -0.21211392522E+02  0.74599771030E+01  0.23853370241E+02  0.51100000000E-03 0. -1.
        -11    1    3    3    0    0  0.26994384546E+02  0.40081337240E+01 -0.39206951042E+01  0.27570523813E+02  0.51100000000E-03 0.  1.
        -12    1    3    3    0    0 -0.34296497355E+02  0.17484015366E+02 -0.26025642833E+01  0.38583854978E+02  0.00000000000E+00 0.  1.
</event>
<event>
 7    1  0.5158441E-015  0.9000765E+02  0.7816164E-02  0.1186339E+00
        -11   -1    0    0    0    0  0.00000000000E+00  0.00000000000E+00  0.45593999997E+02  0.45594000000E+02  0.51100000000E-03 0.  1.
         11   -1    0    0    0    0 -0.00000000000E+00 -0.00000000000E+00 -0.45593999997E+02  0.45594000000E+02  0.51100000000E-03 0. -1.
    9900012    2    1    2    0    0 -0.97779367250E+00  0.27767449479E+00 -0.60004052278E+00  0.90007647417E+02  0.89999907563E+02 0.  0.
        -12    1    1    2    0    0  0.97779367250E+00 -0.27767449479E+00  0.60004052278E+00  0.11803525829E+01  0.00000000000E+00 0.  1.
         11    1    3    3    0    0  0.34319381377E+02 -0.58080412243E+01 -0.18649292687E+02  0.39488598341E+02  0.51100000000E-03 0. -1.
        -11    1    3    3    0    0 -0.60794194979E+01 -0.12570729763E+01 -0.83894895088E+01  0.10436623418E+02  0.51100000000E-03 0.  1.
        -12    1    3    3    0    0 -0.29217755552E+02  0.73427886954E+01  0.26438741673E+02  0.40082425657E+02  0.00000000000E+00 0.  1.
</event>
<event>
 7    1  0.5158441E-015  0.9000757E+02  0.7816164E-02  0.1186339E+00
        -11   -1    0    0    0    0  0.00000000000E+00  0.00000000000E+00  0.45593999997E+02  0.45594000000E+02  0.51100000000E-03 0. -1.
         11   -1    0    0    0    0 -0.00000000000E+00 -0.00000000000E+00 -0.45593999997E+02  0.45594000000E+02  0.51100000000E-03 0.  1.
    9900012    2    1    2    0    0  0.10779501120E+01  0.91398208955E-01 -0.47231937107E+00  0.90007569712E+02  0.89999828832E+02 0.  0.
        -12    1    1    2    0    0 -0.10779501120E+01 -0.91398208955E-01  0.47231937107E+00  0.11804302880E+01  0.00000000000E+00 0.  1.
         11    1    3    3    0    0 -0.11806316831E+02  0.16754852841E+01 -0.51438271246E+01  0.12986736534E+02  0.51100000000E-03 0. -1.
        -11    1    3    3    0    0 -0.17263510599E+02  0.60328916910E+01 -0.27016902198E+02  0.32624187116E+02  0.51100000000E-03 0.  1.
         12    1    3    3    0    0  0.30147777542E+02 -0.76169787661E+01  0.31688409952E+02  0.44396646062E+02  0.00000000000E+00 0. -1.
</event>
<event>
 7    1  0.5158441E-015  0.9000774E+02  0.7816164E-02  0.1186339E+00
        -11   -1    0    0    0    0  0.00000000000E+00  0.00000000000E+00  0.45593999997E+02  0.45594000000E+02  0.51100000000E-03 0.  1.
         11   -1    0    0    0    0 -0.00000000000E+00 -0.00000000000E+00 -0.45593999997E+02  0.45594000000E+02  0.51100000000E-03 0. -1.
    9900012    2    1    2    0    0  0.10213987176E+01  0.57150732160E+00  0.15212659016E+00  0.90007737970E+02  0.89999999312E+02 0.  0.
        -12    1    1    2    0    0 -0.10213987176E+01 -0.57150732160E+00 -0.15212659016E+00  0.11802620296E+01  0.00000000000E+00 0.  1.
         11    1    3    3    0    0  0.35314980091E+02  0.25371070817E+02 -0.68958115145E+01  0.44027165136E+02  0.51100000000E-03 0. -1.
        -11    1    3    3    0    0 -0.53708265698E+01 -0.53436567179E+01 -0.50251118390E+01  0.90913252289E+01  0.51100000000E-03 0.  1.
        -12    1    3    3    0    0 -0.28922754803E+02 -0.19455906778E+02  0.12073049944E+02  0.36889247605E+02  0.00000000000E+00 0.  1.
</event>
<event>
 7    1  0.5158441E-015  0.9000775E+02  0.7816164E-02  0.1186339E+00
        -11   -1    0    0    0    0  0.00000000000E+00  0.00000000000E+00  0.45593999997E+02  0.45594000000E+02  0.51100000000E-03 0.  1.
         11   -1    0    0    0    0 -0.00000000000E+00 -0.00000000000E+00 -0.45593999997E+02  0.45594000000E+02  0.51100000000E-03 0. -1.
    9900012    2    1    2    0    0 -0.31166575789E+00 -0.11308491163E+01  0.13049306359E+00  0.90007752692E+02  0.90000014227E+02 0.  0.
        -12    1    1    2    0    0  0.31166575789E+00  0.11308491163E+01 -0.13049306359E+00  0.11802473080E+01  0.00000000000E+00 0.  1.
         11    1    3    3    0    0 -0.36514338960E+01  0.38648994410E+02 -0.98323770082E+00  0.38833548576E+02  0.51100000000E-03 0. -1.
        -11    1    3    3    0    0  0.23267157695E+01  0.38883144183E+01 -0.53583177055E+01  0.70174186267E+01  0.51100000000E-03 0.  1.
        -12    1    3    3    0    0  0.10130523686E+01 -0.43668157944E+02  0.64720484699E+01  0.44156785489E+02  0.00000000000E+00 0.  1.
</event>
<event>
 7    1  0.5158441E-015  0.9000775E+02  0.7816164E-02  0.1186339E+00
        -11   -1    0    0    0    0  0.00000000000E+00  0.00000000000E+00  0.45593999997E+02  0.45594000000E+02  0.51100000000E-03 0.  1.
         11   -1    0    0    0    0 -0.00000000000E+00 -0.00000000000E+00 -0.45593999997E+02  0.45594000000E+02  0.51100000000E-03 0. -1.
    9900012    2    1    2    0    0 -0.25507879084E+00 -0.96841476843E+00 -0.62457993382E+00  0.90007748990E+02  0.90000010477E+02 0.  0.
        -12    1    1    2    0    0  0.25507879084E+00  0.96841476843E+00  0.62457993382E+00  0.11802510102E+01  0.00000000000E+00 0.  1.
         11    1    3    3    0    0  0.13729219051E+02 -0.21108641752E+02 -0.32172866282E+02  0.40855348945E+02  0.51100000000E-03 0. -1.
        -11    1    3    3    0    0 -0.56471118873E+01  0.81057368800E+01 -0.40379563277E+01  0.10672297532E+02  0.51100000000E-03 0.  1.
        -12    1    3    3    0    0 -0.83371859546E+01  0.12034490104E+02  0.35586242675E+02  0.38480102514E+02  0.00000000000E+00 0.  1.
</event>
<event>
 7    1  0.5158441E-015  0.9000805E+02  0.7816164E-02  0.1186338E+00
        -11   -1    0    0    0    0  0.00000000000E+00  0.00000000000E+00  0.45593999997E+02  0.45594000000E+02  0.51100000000E-03 0.  1.
         11   -1    0    0    0    0 -0.00000000000E+00 -0.00000000000E+00 -0.45593999997E+02  0.45594000000E+02  0.51100000000E-03 0. -1.
    9900012    2    1    2    0    0  0.53543980072E+00 -0.42488655830E+00 -0.96179616179E+00  0.90008052448E+02  0.90000317940E+02 0.  0.
        -12    1    1    2    0    0 -0.53543980072E+00  0.42488655830E+00  0.96179616179E+00  0.11799475516E+01  0.00000000000E+00 0.  1.
         11    1    3    3    0    0  0.54648370842E+01 -0.26582285293E+02 -0.53008590972E+01  0.27651065860E+02  0.51100000000E-03 0. -1.
        -11    1    3    3    0    0 -0.25376261158E+02  0.26773596892E+01  0.14815967022E+02  0.29506537654E+02  0.51100000000E-03 0.  1.
         12    1    3    3    0    0  0.20446863875E+02  0.23480039046E+02 -0.10476904087E+02  0.32850448934E+02  0.00000000000E+00 0. -1.
</event>
<event>
 7    1  0.5158441E-015  0.9000774E+02  0.7816164E-02  0.1186339E+00
        -11   -1    0    0    0    0  0.00000000000E+00  0.00000000000E+00  0.45593999997E+02  0.45594000000E+02  0.51100000000E-03 0. -1.
         11   -1    0    0    0    0 -0.00000000000E+00 -0.00000000000E+00 -0.45593999997E+02  0.45594000000E+02  0.51100000000E-03 0.  1.
    9900012    2    1    2    0    0 -0.54947026899E+00 -0.10068577043E+00  0.10396900605E+01  0.90007741290E+02  0.90000002675E+02 0.  0.
        -12    1    1    2    0    0  0.54947026899E+00  0.10068577043E+00 -0.10396900605E+01  0.11802587101E+01  0.00000000000E+00 0.  1.
         11    1    3    3    0    0 -0.79804057692E+01 -0.28713560403E+01  0.92602637041E+00  0.85316520588E+01  0.51100000000E-03 0. -1.
        -11    1    3    3    0    0 -0.13002568206E+02  0.11608020971E+02 -0.35458937447E+02  0.39511380334E+02  0.51100000000E-03 0.  1.
         12    1    3    3    0    0  0.20433503707E+02 -0.88373507006E+01  0.35572601137E+02  0.41964708897E+02  0.00000000000E+00 0. -1.
</event>
<event>
 7    1  0.5158441E-015  0.9000772E+02  0.7816164E-02  0.1186339E+00
        -11   -1    0    0    0    0  0.00000000000E+00  0.00000000000E+00  0.45593999997E+02  0.45594000000E+02  0.51100000000E-03 0.  1.
         11   -1    0    0    0    0 -0.00000000000E+00 -0.00000000000E+00 -0.45593999997E+02  0.45594000000E+02  0.51100000000E-03 0. -1.
    9900012    2    1    2    0    0 -0.11210410803E+01  0.20261877362E+00 -0.30866434470E+00  0.90007719885E+02  0.89999980988E+02 0.  0.
        -12    1    1    2    0    0  0.11210410803E+01 -0.20261877362E+00  0.30866434470E+00  0.11802801146E+01  0.00000000000E+00 0.  1.
         11    1    3    3    0    0  0.85871493773E+00  0.98939226717E+01  0.44603288686E+01  0.10886764030E+02  0.51100000000E-03 0. -1.
        -11    1    3    3    0    0 -0.22521773722E+02  0.13462913643E+02  0.24952142949E+02  0.36208973658E+02  0.51100000000E-03 0.  1.
         12    1    3    3    0    0  0.20542017704E+02 -0.23154217541E+02 -0.29721136163E+02  0.42911982197E+02  0.00000000000E+00 0. -1.
</event>
<event>
 7    1  0.5158441E-015  0.9000780E+02  0.7816164E-02  0.1186339E+00
        -11   -1    0    0    0    0  0.00000000000E+00  0.00000000000E+00  0.45593999997E+02  0.45594000000E+02  0.51100000000E-03 0. -1.
         11   -1    0    0    0    0 -0.00000000000E+00 -0.00000000000E+00 -0.45593999997E+02  0.45594000000E+02  0.51100000000E-03 0.  1.
    9900012    2    1    2    0    0  0.59594819988E+00 -0.52883253558E+00  0.87066388660E+00  0.90007799292E+02  0.90000061443E+02 0.  0.
        -12    1    1    2    0    0 -0.59594819988E+00  0.52883253558E+00 -0.87066388660E+00  0.11802007080E+01  0.00000000000E+00 0.  1.
         11    1    3    3    0    0 -0.34363991202E+01 -0.12048514066E+01  0.70870400684E+01  0.79678505895E+01  0.51100000000E-03 0. -1.
        -11    1    3    3    0    0  0.16443930122E+02 -0.19347524961E+02 -0.36007399752E+02  0.44059759385E+02  0.51100000000E-03 0.  1.
         12    1    3    3    0    0 -0.12411582802E+02  0.20023543832E+02  0.29791023570E+02  0.37980189317E+02  0.00000000000E+00 0. -1.
</event>
<event>
 7    1  0.5158441E-015  0.9000776E+02  0.7816164E-02  0.1186339E+00
        -11   -1    0    0    0    0  0.00000000000E+00  0.00000000000E+00  0.45593999997E+02  0.45594000000E+02  0.51100000000E-03 0.  1.
         11   -1    0    0    0    0 -0.00000000000E+00 -0.00000000000E+00 -0.45593999997E+02  0.45594000000E+02  0.51100000000E-03 0. -1.
    9900012    2    1    2    0    0 -0.70413094086E+00  0.62611177637E+00 -0.71073925656E+00  0.90007759927E+02  0.90000021558E+02 0.  0.
        -12    1    1    2    0    0  0.70413094086E+00 -0.62611177637E+00  0.71073925656E+00  0.11802400727E+01  0.00000000000E+00 0.  1.
         11    1    3    3    0    0 -0.88996609604E+01  0.20476725883E+00 -0.44078191941E+01  0.99335172597E+01  0.51100000000E-03 0. -1.
        -11    1    3    3    0    0 -0.20050294877E+02  0.27319681232E+02 -0.14712274379E+02  0.36943610069E+02  0.51100000000E-03 0.  1.
         12    1    3    3    0    0  0.28245824896E+02 -0.26898336714E+02  0.18409354317E+02  0.43130632599E+02  0.00000000000E+00 0. -1.
</event>
<event>
 7    1  0.5440275E-015  0.9000778E+02  0.7816164E-02  0.1186339E+00
        -11   -1    0    0    0    0  0.00000000000E+00  0.00000000000E+00  0.45593999997E+02  0.45594000000E+02  0.51100000000E-03 0. -1.
         11   -1    0    0    0    0 -0.00000000000E+00 -0.00000000000E+00 -0.45593999997E+02  0.45594000000E+02  0.51100000000E-03 0.  1.
    9900012    2    1    2    0    0  0.71550808018E+00 -0.44122290784E+00  0.82842800846E+00  0.90007778651E+02  0.90000040529E+02 0.  0.
        -12    1    1    2    0    0 -0.71550808018E+00  0.44122290784E+00 -0.82842800846E+00  0.11802213489E+01  0.00000000000E+00 0.  1.
         11    1    3    3    0    0  0.14961769662E+02  0.29747010797E+02  0.25643055140E+02  0.42027437227E+02  0.51100000000E-03 0. -1.
        -11    1    3    3    0    0 -0.74876594991E+01  0.23303441515E+01 -0.43323795551E+01  0.89590770456E+01  0.51100000000E-03 0.  1.
        -12    1    3    3    0    0 -0.67586020826E+01 -0.32518577856E+02 -0.20482247576E+02  0.39021264378E+02  0.00000000000E+00 0.  1.
</event>
<event>
 7    1  0.5158441E-015  0.9000774E+02  0.7816164E-02  0.1186339E+00
        -11   -1    0    0    0    0  0.00000000000E+00  0.00000000000E+00  0.45593999997E+02  0.45594000000E+02  0.51100000000E-03 0.  1.
         11   -1    0    0    0    0 -0.00000000000E+00 -0.00000000000E+00 -0.45593999997E+02  0.45594000000E+02  0.51100000000E-03 0. -1.
    9900012    2    1    2    0    0 -0.53823715109E+00 -0.62907767874E+00 -0.84117792188E+00  0.90007738057E+02  0.89999999400E+02 0.  0.
        -12    1    1    2    0    0  0.53823715109E+00  0.62907767874E+00  0.84117792188E+00  0.11802619425E+01  0.00000000000E+00 0.  1.
         11    1    3    3    0    0  0.23735997690E+02 -0.18441119063E+02 -0.17665803106E+02  0.34864782493E+02  0.51100000000E-03 0. -1.
        -11    1    3    3    0    0  0.56846189880E+01 -0.99277987334E+01  0.15253247234E+01  0.11541347257E+02  0.51100000000E-03 0.  1.
        -12    1    3    3    0    0 -0.29958853829E+02  0.27739840117E+02  0.15299300461E+02  0.43601608308E+02  0.00000000000E+00 0.  1.
</event>
<event>
 7    1  0.5158441E-015  0.9000776E+02  0.7816164E-02  0.1186339E+00
        -11   -1    0    0    0    0  0.00000000000E+00  0.00000000000E+00  0.45593999997E+02  0.45594000000E+02  0.51100000000E-03 0. -1.
         11   -1    0    0    0    0 -0.00000000000E+00 -0.00000000000E+00 -0.45593999997E+02  0.45594000000E+02  0.51100000000E-03 0.  1.
    9900012    2    1    2    0    0  0.44797130503E+00  0.27459799916E+00  0.10568282462E+01  0.90007759222E+02  0.90000020844E+02 0.  0.
        -12    1    1    2    0    0 -0.44797130503E+00 -0.27459799916E+00 -0.10568282462E+01  0.11802407776E+01  0.00000000000E+00 0.  1.
         11    1    3    3    0    0 -0.43365957646E+01  0.32947261169E+02  0.20269268833E+02  0.38925201871E+02  0.51100000000E-03 0. -1.
        -11    1    3    3    0    0 -0.41379131436E+01 -0.33160216091E+01  0.83146592259E+01  0.98616369230E+01  0.51100000000E-03 0.  1.
        -12    1    3    3    0    0  0.89224802132E+01 -0.29356641561E+02 -0.27527099812E+02  0.41220920429E+02  0.00000000000E+00 0.  1.
</event>
<event>
 7    1  0.5158441E-015  0.9000772E+02  0.7816164E-02  0.1186339E+00
        -11   -1    0    0    0    0  0.00000000000E+00  0.00000000000E+00  0.45593999997E+02  0.45594000000E+02  0.51100000000E-03 0. -1.
         11   -1    0    0    0    0 -0.00000000000E+00 -0.00000000000E+00 -0.45593999997E+02  0.45594000000E+02  0.51100000000E-03 0.  1.
    9900012    2    1    2    0    0 -0.88984041733E+00  0.51628903148E+00  0.57852038891E+00  0.90007721993E+02  0.89999983124E+02 0.  0.
        -12    1    1    2    0    0  0.88984041733E+00 -0.51628903148E+00 -0.57852038891E+00  0.11802780065E+01  0.00000000000E+00 0.  1.
         11    1    3    3    0    0  0.44575191565E+01  0.66275319996E+01 -0.55019009248E+01  0.96986891632E+01  0.51100000000E-03 0. -1.
        -11    1    3    3    0    0 -0.26283958764E+02  0.20663727991E+02  0.24686945036E+02  0.41560575047E+02  0.51100000000E-03 0.  1.
         12    1    3    3    0    0  0.20936599191E+02 -0.26774970959E+02 -0.18606523722E+02  0.38748457783E+02  0.00000000000E+00 0. -1.
</event>
<event>
 7    1  0.5158441E-015  0.9000784E+02  0.7816164E-02  0.1186339E+00
        -11   -1    0    0    0    0  0.00000000000E+00  0.00000000000E+00  0.45593999997E+02  0.45594000000E+02  0.51100000000E-03 0. -1.
         11   -1    0    0    0    0 -0.00000000000E+00 -0.00000000000E+00 -0.45593999997E+02  0.45594000000E+02  0.51100000000E-03 0.  1.
    9900012    2    1    2    0    0  0.53987691657E+00  0.88269123947E+00  0.56758797201E+00  0.90007844495E+02  0.90000107243E+02 0.  0.
        -12    1    1    2    0    0 -0.53987691657E+00 -0.88269123947E+00 -0.56758797201E+00  0.11801555047E+01  0.00000000000E+00 0.  1.
         11    1    3    3    0    0  0.33296937835E+02  0.15373459449E+01 -0.20547100440E+02  0.39156517190E+02  0.51100000000E-03 0. -1.
        -11    1    3    3    0    0 -0.39300498298E+01  0.44742764641E+01 -0.77246910902E+01  0.97537323237E+01  0.51100000000E-03 0.  1.
        -12    1    3    3    0    0 -0.28827011088E+02 -0.51289311696E+01  0.28839379502E+02  0.41097594982E+02  0.00000000000E+00 0.  1.
</event>
<event>
 7    1  0.5158441E-015  0.9000869E+02  0.7816164E-02  0.1186337E+00
        -11   -1    0    0    0    0  0.00000000000E+00  0.00000000000E+00  0.45593999997E+02  0.45594000000E+02  0.51100000000E-03 0. -1.
         11   -1    0    0    0    0 -0.00000000000E+00 -0.00000000000E+00 -0.45593999997E+02  0.45594000000E+02  0.51100000000E-03 0.  1.
    9900012    2    1    2    0    0 -0.32924761065E+00  0.44965080415E-01 -0.11315271719E+01  0.90008686815E+02  0.90000960676E+02 0.  0.
        -12    1    1    2    0    0  0.32924761065E+00 -0.44965080415E-01  0.11315271719E+01  0.11793131850E+01  0.00000000000E+00 0.  1.
         11    1    3    3    0    0 -0.18717058979E+02 -0.33379395960E+02 -0.16082171767E+02  0.41510825341E+02  0.51100000000E-03 0. -1.
        -11    1    3    3    0    0  0.57705769663E+01 -0.14255307702E+01 -0.37047767711E+01  0.70040750771E+01  0.51100000000E-03 0.  1.
        -12    1    3    3    0    0  0.12617234402E+02  0.34849891811E+02  0.18655421367E+02  0.41493786397E+02  0.00000000000E+00 0.  1.
</event>
<event>
 7    1  0.5158441E-015  0.9000823E+02  0.7816164E-02  0.1186338E+00
        -11   -1    0    0    0    0  0.00000000000E+00  0.00000000000E+00  0.45593999997E+02  0.45594000000E+02  0.51100000000E-03 0. -1.
         11   -1    0    0    0    0 -0.00000000000E+00 -0.00000000000E+00 -0.45593999997E+02  0.45594000000E+02  0.51100000000E-03 0.  1.
    9900012    2    1    2    0    0  0.84137965928E+00  0.82527528890E+00 -0.53549041812E-01  0.90008226067E+02  0.90000493850E+02 0.  0.
        -12    1    1    2    0    0 -0.84137965928E+00 -0.82527528890E+00  0.53549041812E-01  0.11797739332E+01  0.00000000000E+00 0.  1.
         11    1    3    3    0    0  0.18360091488E+02 -0.34345131328E+02  0.11727173058E+02  0.40671950944E+02  0.51100000000E-03 0. -1.
        -11    1    3    3    0    0 -0.67173101837E+01 -0.79814510947E+00 -0.95653598177E+01  0.11715604996E+02  0.51100000000E-03 0.  1.
        -12    1    3    3    0    0 -0.10801401645E+02  0.35968551726E+02 -0.22153622822E+01  0.37620670127E+02  0.00000000000E+00 0.  1.
</event>
<event>
 7    1  0.5158441E-015  0.9000767E+02  0.7816164E-02  0.1186339E+00
        -11   -1    0    0    0    0  0.00000000000E+00  0.00000000000E+00  0.45593999997E+02  0.45594000000E+02  0.51100000000E-03 0.  1.
         11   -1    0    0    0    0 -0.00000000000E+00 -0.00000000000E+00 -0.45593999997E+02  0.45594000000E+02  0.51100000000E-03 0. -1.
    9900012    2    1    2    0    0 -0.80403797152E+00  0.86411415831E+00 -0.22837759909E-02  0.90007671421E+02  0.89999931884E+02 0.  0.
        -12    1    1    2    0    0  0.80403797152E+00 -0.86411415831E+00  0.22837759909E-02  0.11803285788E+01  0.00000000000E+00 0.  1.
         11    1    3    3    0    0  0.14817403735E+01  0.23041511838E+01  0.91909104158E+01  0.95904901723E+01  0.51100000000E-03 0. -1.
        -11    1    3    3    0    0  0.13079675862E+02  0.31709871522E+02  0.14099582663E+02  0.37086279189E+02  0.51100000000E-03 0.  1.
         12    1    3    3    0    0 -0.15365454207E+02 -0.33149908547E+02 -0.23292776855E+02  0.43330902060E+02  0.00000000000E+00 0. -1.
</event>
<event>
 7    1  0.5158441E-015  0.9000728E+02  0.7816164E-02  0.1186340E+00
        -11   -1    0    0    0    0  0.00000000000E+00  0.00000000000E+00  0.45593999997E+02  0.45594000000E+02  0.51100000000E-03 0.  1.
         11   -1    0    0    0    0 -0.00000000000E+00 -0.00000000000E+00 -0.45593999997E+02  0.45594000000E+02  0.51100000000E-03 0. -1.
    9900012    2    1    2    0    0  0.46099237411E+00  0.45149640818E+00 -0.98880281163E+00  0.90007282432E+02  0.89999537759E+02 0.  0.
        -12    1    1    2    0    0 -0.46099237411E+00 -0.45149640818E+00  0.98880281163E+00  0.11807175682E+01  0.00000000000E+00 0.  1.
         11    1    3    3    0    0  0.34005289893E+02  0.15816393693E+02  0.27952019113E+01  0.37607595033E+02  0.51100000000E-03 0. -1.
        -11    1    3    3    0    0  0.30082345613E+01  0.80555749484E+01  0.12784496439E+01  0.86934571189E+01  0.51100000000E-03 0.  1.
        -12    1    3    3    0    0 -0.36552532080E+02 -0.23420472233E+02 -0.50624543668E+01  0.43706230280E+02  0.00000000000E+00 0.  1.
</event>
<event>
 7    1  0.5158441E-015  0.9000772E+02  0.7816164E-02  0.1186339E+00
        -11   -1    0    0    0    0  0.00000000000E+00  0.00000000000E+00  0.45593999997E+02  0.45594000000E+02  0.51100000000E-03 0.  1.
         11   -1    0    0    0    0 -0.00000000000E+00 -0.00000000000E+00 -0.45593999997E+02  0.45594000000E+02  0.51100000000E-03 0. -1.
    9900012    2    1    2    0    0  0.20532474027E+00  0.82887339273E+00 -0.81477709450E+00  0.90007724158E+02  0.89999985317E+02 0.  0.
        -12    1    1    2    0    0 -0.20532474027E+00 -0.82887339273E+00  0.81477709450E+00  0.11802758423E+01  0.00000000000E+00 0.  1.
         11    1    3    3    0    0 -0.11548724906E+02  0.35788348619E+02 -0.13302531190E+02  0.39889049627E+02  0.51100000000E-03 0. -1.
        -11    1    3    3    0    0  0.11962983847E+02 -0.10510739160E+01  0.10826720963E+02  0.16168971085E+02  0.51100000000E-03 0.  1.
        -12    1    3    3    0    0 -0.20893419993E+00 -0.33908401311E+02  0.16610331328E+01  0.33949703445E+02  0.00000000000E+00 0.  1.
</event>
<event>
 7    1  0.5158441E-015  0.9000783E+02  0.7816164E-02  0.1186339E+00
        -11   -1    0    0    0    0  0.00000000000E+00  0.00000000000E+00  0.45593999997E+02  0.45594000000E+02  0.51100000000E-03 0. -1.
         11   -1    0    0    0    0 -0.00000000000E+00 -0.00000000000E+00 -0.45593999997E+02  0.45594000000E+02  0.51100000000E-03 0.  1.
    9900012    2    1    2    0    0  0.61131432560E+00 -0.74946415734E+00  0.67632095528E+00  0.90007825537E+02  0.90000088034E+02 0.  0.
        -12    1    1    2    0    0 -0.61131432560E+00  0.74946415734E+00 -0.67632095528E+00  0.11801744627E+01  0.00000000000E+00 0.  1.
         11    1    3    3    0    0 -0.26597315255E+02  0.32836097010E+02  0.58963185618E+01  0.42666064014E+02  0.51100000000E-03 0. -1.
        -11    1    3    3    0    0  0.15240329407E+01 -0.10102229258E+02  0.45657254031E+01  0.11190333378E+02  0.51100000000E-03 0.  1.
        -12    1    3    3    0    0  0.25684596640E+02 -0.23483331910E+02 -0.97857230096E+01  0.36151428145E+02  0.00000000000E+00 0.  1.
</event>
<event>
 7    1  0.5158441E-015  0.9000763E+02  0.7816164E-02  0.1186339E+00
        -11   -1    0    0    0    0  0.00000000000E+00  0.00000000000E+00  0.45593999997E+02  0.45594000000E+02  0.51100000000E-03 0. -1.
         11   -1    0    0    0    0 -0.00000000000E+00 -0.00000000000E+00 -0.45593999997E+02  0.45594000000E+02  0.51100000000E-03 0.  1.
    9900012    2    1    2    0    0  0.10601887357E+01 -0.20720803120E+00  0.47574098967E+00  0.90007633611E+02  0.89999893574E+02 0.  0.
        -12    1    1    2    0    0 -0.10601887357E+01  0.20720803120E+00 -0.47574098967E+00  0.11803663892E+01  0.00000000000E+00 0.  1.
         11    1    3    3    0    0 -0.85721007854E+01  0.45113211561E+01  0.11235495219E+01  0.97516816108E+01  0.51100000000E-03 0. -1.
        -11    1    3    3    0    0 -0.28314295087E+02 -0.22703226760E+02 -0.91117085438E+01  0.37418699128E+02  0.51100000000E-03 0.  1.
         12    1    3    3    0    0  0.37946584608E+02  0.17984697572E+02  0.84639000115E+01  0.42837252872E+02  0.00000000000E+00 0. -1.
</event>
<event>
 7    1  0.5158441E-015  0.9000769E+02  0.7816164E-02  0.1186339E+00
        -11   -1    0    0    0    0  0.00000000000E+00  0.00000000000E+00  0.45593999997E+02  0.45594000000E+02  0.51100000000E-03 0.  1.
         11   -1    0    0    0    0 -0.00000000000E+00 -0.00000000000E+00 -0.45593999997E+02  0.45594000000E+02  0.51100000000E-03 0. -1.
    9900012    2    1    2    0    0 -0.90651600354E+00  0.67139215926E+00  0.34725072602E+00  0.90007694208E+02  0.89999954971E+02 0.  0.
        -12    1    1    2    0    0  0.90651600354E+00 -0.67139215926E+00 -0.34725072602E+00  0.11803057921E+01  0.00000000000E+00 0.  1.
         11    1    3    3    0    0  0.34436726751E+01  0.96325163112E+01 -0.48301800187E+01  0.11312598784E+02  0.51100000000E-03 0. -1.
        -11    1    3    3    0    0  0.26065562808E+02  0.18309509756E+02  0.17082056433E+02  0.36144824861E+02  0.51100000000E-03 0.  1.
         12    1    3    3    0    0 -0.30415751486E+02 -0.27270633908E+02 -0.11904625688E+02  0.42550270563E+02  0.00000000000E+00 0. -1.
</event>
<event>
 7    1  0.5158441E-015  0.9000775E+02  0.7816164E-02  0.1186339E+00
        -11   -1    0    0    0    0  0.00000000000E+00  0.00000000000E+00  0.45593999997E+02  0.45594000000E+02  0.51100000000E-03 0. -1.
         11   -1    0    0    0    0 -0.00000000000E+00 -0.00000000000E+00 -0.45593999997E+02  0.45594000000E+02  0.51100000000E-03 0.  1.
    9900012    2    1    2    0    0  0.16360380846E+00  0.91775202682E+00  0.72384762862E+00  0.90007749866E+02  0.90000011364E+02 0.  0.
        -12    1    1    2    0    0 -0.16360380846E+00 -0.91775202682E+00 -0.72384762862E+00  0.11802501338E+01  0.00000000000E+00 0.  1.
         11    1    3    3    0    0 -0.25647253832E+01  0.75080990688E+01  0.45679655943E+01  0.91550902699E+01  0.51100000000E-03 0. -1.
        -11    1    3    3    0    0 -0.12587392704E+02 -0.83603855224E+00 -0.39584168331E+02  0.41545731409E+02  0.51100000000E-03 0.  1.
         12    1    3    3    0    0  0.15315721896E+02 -0.57543084898E+01  0.35740050366E+02  0.39306928187E+02  0.00000000000E+00 0. -1.
</event>
<event>
 7    1  0.5158441E-015  0.9000761E+02  0.7816164E-02  0.1186339E+00
        -11   -1    0    0    0    0  0.00000000000E+00  0.00000000000E+00  0.45593999997E+02  0.45594000000E+02  0.51100000000E-03 0.  1.
         11   -1    0    0    0    0 -0.00000000000E+00 -0.00000000000E+00 -0.45593999997E+02  0.45594000000E+02  0.51100000000E-03 0. -1.
    9900012    2    1    2    0    0 -0.75828608100E+00 -0.80387789234E+00 -0.41485966984E+00  0.90007607696E+02  0.89999867317E+02 0.  0.
        -12    1    1    2    0    0  0.75828608100E+00  0.80387789234E+00  0.41485966984E+00  0.11803923043E+01  0.00000000000E+00 0.  1.
         11    1    3    3    0    0 -0.16861373796E+02  0.44793960493E+01 -0.32638822010E+02  0.37008966721E+02  0.51100000000E-03 0. -1.
        -11    1    3    3    0    0 -0.86932574381E+01  0.96633854571E+00 -0.31959681618E+01  0.93123975335E+01  0.51100000000E-03 0.  1.
        -12    1    3    3    0    0  0.24796345153E+02 -0.62496124873E+01  0.35419930502E+02  0.43686243441E+02  0.00000000000E+00 0.  1.
</event>
<event>
 7    1  0.1068077E-014  0.9000768E+02  0.7816164E-02  0.1186339E+00
        -11   -1    0    0    0    0  0.00000000000E+00  0.00000000000E+00  0.45593999997E+02  0.45594000000E+02  0.51100000000E-03 0.  1.
         11   -1    0    0    0    0 -0.00000000000E+00 -0.00000000000E+00 -0.45593999997E+02  0.45594000000E+02  0.51100000000E-03 0. -1.
    9900012    2    1    2    0    0 -0.60619408455E+00 -0.73028770243E+00 -0.70167935926E+00  0.90007684229E+02  0.89999944861E+02 0.  0.
        -12    1    1    2    0    0  0.60619408455E+00  0.73028770243E+00  0.70167935926E+00  0.11803157712E+01  0.00000000000E+00 0.  1.
         11    1    3    3    0    0  0.72736639710E+01 -0.27830742097E+02 -0.23395362063E+02  0.37078286902E+02  0.51100000000E-03 0. -1.
        -11    1    3    3    0    0 -0.29677703303E+01 -0.77855371102E+01 -0.34912998849E+01  0.90339041380E+01  0.51100000000E-03 0.  1.
        -12    1    3    3    0    0 -0.49120877253E+01  0.34885991505E+02  0.26184982589E+02  0.43895493189E+02  0.00000000000E+00 0.  1.
</event>
<event>
 7    1  0.5158441E-015  0.9000752E+02  0.7816164E-02  0.1186339E+00
        -11   -1    0    0    0    0  0.00000000000E+00  0.00000000000E+00  0.45593999997E+02  0.45594000000E+02  0.51100000000E-03 0.  1.
         11   -1    0    0    0    0 -0.00000000000E+00 -0.00000000000E+00 -0.45593999997E+02  0.45594000000E+02  0.51100000000E-03 0. -1.
    9900012    2    1    2    0    0  0.43254912150E+00  0.10747754980E+01  0.22648671777E+00  0.90007518172E+02  0.89999776611E+02 0.  0.
        -12    1    1    2    0    0 -0.43254912150E+00 -0.10747754980E+01 -0.22648671777E+00  0.11804818283E+01  0.00000000000E+00 0.  1.
         11    1    3    3    0    0 -0.31449335349E+01  0.28703646507E+01  0.85819258384E+01  0.95801383875E+01  0.51100000000E-03 0. -1.
        -11    1    3    3    0    0  0.28210088265E+02  0.28933387434E+02 -0.70673723404E+01  0.41023136647E+02  0.51100000000E-03 0.  1.
         12    1    3    3    0    0 -0.24632605608E+02 -0.30728976587E+02 -0.12880667802E+01  0.39404243137E+02  0.00000000000E+00 0. -1.
</event>
<event>
 7    1  0.5158441E-015  0.9000792E+02  0.7816164E-02  0.1186339E+00
        -11   -1    0    0    0    0  0.00000000000E+00  0.00000000000E+00  0.45593999997E+02  0.45594000000E+02  0.51100000000E-03 0.  1.
         11   -1    0    0    0    0 -0.00000000000E+00 -0.00000000000E+00 -0.45593999997E+02  0.45594000000E+02  0.51100000000E-03 0. -1.
    9900012    2    1    2    0    0  0.58178652904E+00  0.95348310326E+00  0.38076791187E+00  0.90007919581E+02  0.90000183319E+02 0.  0.
        -12    1    1    2    0    0 -0.58178652904E+00 -0.95348310326E+00 -0.38076791187E+00  0.11800804194E+01  0.00000000000E+00 0.  1.
         11    1    3    3    0    0  0.10862580389E+02 -0.23354951579E+01 -0.12731829730E+02  0.16898215257E+02  0.51100000000E-03 0. -1.
        -11    1    3    3    0    0  0.16168391035E+02 -0.27147384344E+02  0.53821918513E+01  0.32052540224E+02  0.51100000000E-03 0.  1.
         12    1    3    3    0    0 -0.26449184895E+02  0.30436362606E+02  0.77304057903E+01  0.41057164100E+02  0.00000000000E+00 0. -1.
</event>
<event>
 7    1  0.5158441E-015  0.9000767E+02  0.7816164E-02  0.1186339E+00
        -11   -1    0    0    0    0  0.00000000000E+00  0.00000000000E+00  0.45593999997E+02  0.45594000000E+02  0.51100000000E-03 0. -1.
         11   -1    0    0    0    0 -0.00000000000E+00 -0.00000000000E+00 -0.45593999997E+02  0.45594000000E+02  0.51100000000E-03 0.  1.
    9900012    2    1    2    0    0 -0.81470932792E+00 -0.39962143047E+00  0.75480109809E+00  0.90007672387E+02  0.89999932862E+02 0.  0.
        -12    1    1    2    0    0  0.81470932792E+00  0.39962143047E+00 -0.75480109809E+00  0.11803276131E+01  0.00000000000E+00 0.  1.
         11    1    3    3    0    0  0.78196842074E+01 -0.60270488337E+00  0.39120010528E+01  0.87643862750E+01  0.51100000000E-03 0. -1.
        -11    1    3    3    0    0 -0.10567403434E+01 -0.34715904777E+02 -0.21733364469E+02  0.40971329927E+02  0.51100000000E-03 0.  1.
         12    1    3    3    0    0 -0.75776531919E+01  0.34918988229E+02  0.18576164514E+02  0.40271956185E+02  0.00000000000E+00 0. -1.
</event>
<event>
 7    1  0.5158441E-015  0.9000771E+02  0.7816164E-02  0.1186339E+00
        -11   -1    0    0    0    0  0.00000000000E+00  0.00000000000E+00  0.45593999997E+02  0.45594000000E+02  0.51100000000E-03 0.  1.
         11   -1    0    0    0    0 -0.00000000000E+00 -0.00000000000E+00 -0.45593999997E+02  0.45594000000E+02  0.51100000000E-03 0. -1.
    9900012    2    1    2    0    0 -0.55186625152E+00 -0.98086174435E+00 -0.35557878835E+00  0.90007710885E+02  0.89999971868E+02 0.  0.
        -12    1    1    2    0    0  0.55186625152E+00  0.98086174435E+00  0.35557878835E+00  0.11802891154E+01  0.00000000000E+00 0.  1.
         11    1    3    3    0    0 -0.11696457363E+02 -0.12875966024E+02 -0.36833397783E+01  0.17781018196E+02  0.51100000000E-03 0. -1.
        -11    1    3    3    0    0  0.22130005302E+02 -0.16382930979E+02 -0.19938421710E+02  0.33995267651E+02  0.51100000000E-03 0.  1.
         12    1    3    3    0    0 -0.10985414191E+02  0.28278035258E+02  0.23266182700E+02  0.38231425038E+02  0.00000000000E+00 0. -1.
</event>
<event>
 7    1  0.5158441E-015  0.9000660E+02  0.7816164E-02  0.1186341E+00
        -11   -1    0    0    0    0  0.00000000000E+00  0.00000000000E+00  0.45593999997E+02  0.45594000000E+02  0.51100000000E-03 0.  1.
         11   -1    0    0    0    0 -0.00000000000E+00 -0.00000000000E+00 -0.45593999997E+02  0.45594000000E+02  0.51100000000E-03 0. -1.
    9900012    2    1    2    0    0 -0.26391284376E+00 -0.10308583218E+01 -0.51322077314E+00  0.90006596415E+02  0.89998842680E+02 0.  0.
        -12    1    1    2    0    0  0.26391284376E+00  0.10308583218E+01  0.51322077314E+00  0.11814035850E+01  0.00000000000E+00 0.  1.
         11    1    3    3    0    0  0.23156187439E+01  0.21797236604E+01 -0.30529416319E+01  0.44083713854E+01  0.51100000000E-03 0. -1.
        -11    1    3    3    0    0  0.28900889948E+02  0.17771024210E+02 -0.22062891281E+02  0.40470259614E+02  0.51100000000E-03 0.  1.
         12    1    3    3    0    0 -0.31480421535E+02 -0.20981606192E+02  0.24602612140E+02  0.45127965416E+02  0.00000000000E+00 0. -1.
</event>
<event>
 7    1  0.5158441E-015  0.9000764E+02  0.7816164E-02  0.1186339E+00
        -11   -1    0    0    0    0  0.00000000000E+00  0.00000000000E+00  0.45593999997E+02  0.45594000000E+02  0.51100000000E-03 0. -1.
         11   -1    0    0    0    0 -0.00000000000E+00 -0.00000000000E+00 -0.45593999997E+02  0.45594000000E+02  0.51100000000E-03 0.  1.
    9900012    2    1    2    0    0  0.11259472062E+01  0.24100078678E+00  0.25964749417E+00  0.90007637636E+02  0.89999897652E+02 0.  0.
        -12    1    1    2    0    0 -0.11259472062E+01 -0.24100078678E+00 -0.25964749417E+00  0.11803623645E+01  0.00000000000E+00 0.  1.
         11    1    3    3    0    0  0.30594715741E+02 -0.63265830759E+01 -0.18420400223E+01  0.31296252114E+02  0.51100000000E-03 0. -1.
        -11    1    3    3    0    0  0.80709691597E+01 -0.51759990516E+01 -0.13362845194E+02  0.16446797296E+02  0.51100000000E-03 0.  1.
        -12    1    3    3    0    0 -0.37539737695E+02  0.11743582914E+02  0.15464532711E+02  0.42264588225E+02  0.00000000000E+00 0.  1.
</event>
<event>
 7    1  0.5158441E-015  0.9000775E+02  0.7816164E-02  0.1186339E+00
        -11   -1    0    0    0    0  0.00000000000E+00  0.00000000000E+00  0.45593999997E+02  0.45594000000E+02  0.51100000000E-03 0.  1.
         11   -1    0    0    0    0 -0.00000000000E+00 -0.00000000000E+00 -0.45593999997E+02  0.45594000000E+02  0.51100000000E-03 0. -1.
    9900012    2    1    2    0    0  0.62729402917E+00 -0.71840402679E+00  0.69526795766E+00  0.90007745927E+02  0.90000007373E+02 0.  0.
        -12    1    1    2    0    0 -0.62729402917E+00  0.71840402679E+00 -0.69526795766E+00  0.11802540734E+01  0.00000000000E+00 0.  1.
         11    1    3    3    0    0 -0.67368796573E+01  0.90102748812E+01 -0.33861138451E+01  0.11748887955E+02  0.51100000000E-03 0. -1.
        -11    1    3    3    0    0 -0.23874800610E+02 -0.29168319874E+02  0.13904874562E+02  0.40176392636E+02  0.51100000000E-03 0.  1.
         12    1    3    3    0    0  0.31238974297E+02  0.19439640966E+02 -0.98234927591E+01  0.38082465335E+02  0.00000000000E+00 0. -1.
</event>
<event>
 7    1  0.5158441E-015  0.9000775E+02  0.7816164E-02  0.1186339E+00
        -11   -1    0    0    0    0  0.00000000000E+00  0.00000000000E+00  0.45593999997E+02  0.45594000000E+02  0.51100000000E-03 0. -1.
         11   -1    0    0    0    0 -0.00000000000E+00 -0.00000000000E+00 -0.45593999997E+02  0.45594000000E+02  0.51100000000E-03 0.  1.
    9900012    2    1    2    0    0  0.48626193769E+00  0.98844469656E+00  0.42368443178E+00  0.90007753378E+02  0.90000014923E+02 0.  0.
        -12    1    1    2    0    0 -0.48626193769E+00 -0.98844469656E+00 -0.42368443178E+00  0.11802466217E+01  0.00000000000E+00 0.  1.
         11    1    3    3    0    0  0.10153295928E+02 -0.17005045271E+00  0.15344204710E+01  0.10269994245E+02  0.51100000000E-03 0. -1.
        -11    1    3    3    0    0 -0.12607007469E+02 -0.33875879743E+02  0.17276490380E+02  0.40062313785E+02  0.51100000000E-03 0.  1.
         12    1    3    3    0    0  0.29399734791E+01  0.35034374892E+02 -0.18387226419E+02  0.39675445348E+02  0.00000000000E+00 0. -1.
</event>
<event>
 7    1  0.5158441E-015  0.9000771E+02  0.7816164E-02  0.1186339E+00
        -11   -1    0    0    0    0  0.00000000000E+00  0.00000000000E+00  0.45593999997E+02  0.45594000000E+02  0.51100000000E-03 0.  1.
         11   -1    0    0    0    0 -0.00000000000E+00 -0.00000000000E+00 -0.45593999997E+02  0.45594000000E+02  0.51100000000E-03 0. -1.
    9900012    2    1    2    0    0 -0.17570564594E+00  0.33582509151E+00  0.11177779389E+01  0.90007712541E+02  0.89999973546E+02 0.  0.
        -12    1    1    2    0    0  0.17570564594E+00 -0.33582509151E+00 -0.11177779389E+01  0.11802874594E+01  0.00000000000E+00 0.  1.
         11    1    3    3    0    0  0.22965299832E+02  0.57752729383E+01 -0.26241241740E+02  0.35346308749E+02  0.51100000000E-03 0. -1.
        -11    1    3    3    0    0 -0.17694988137E+01  0.16529907345E+02  0.84548607834E+01  0.18650834673E+02  0.51100000000E-03 0.  1.
        -12    1    3    3    0    0 -0.21371506665E+02 -0.21969355192E+02  0.18904158895E+02  0.36010569118E+02  0.00000000000E+00 0.  1.
</event>
<event>
 7    1  0.5158441E-015  0.9000774E+02  0.7816164E-02  0.1186339E+00
        -11   -1    0    0    0    0  0.00000000000E+00  0.00000000000E+00  0.45593999997E+02  0.45594000000E+02  0.51100000000E-03 0.  1.
         11   -1    0    0    0    0 -0.00000000000E+00 -0.00000000000E+00 -0.45593999997E+02  0.45594000000E+02  0.51100000000E-03 0. -1.
    9900012    2    1    2    0    0 -0.46440557193E+00  0.23368406872E+00 -0.10595912834E+01  0.90007739661E+02  0.90000001025E+02 0.  0.
        -12    1    1    2    0    0  0.46440557193E+00 -0.23368406872E+00  0.10595912834E+01  0.11802603387E+01  0.00000000000E+00 0.  1.
         11    1    3    3    0    0 -0.29730990217E+01 -0.60203226338E+01  0.62881271207E+01  0.91991382942E+01  0.51100000000E-03 0. -1.
        -11    1    3    3    0    0 -0.16292903925E+02  0.36551757300E+02  0.98611653884E+01  0.41215679821E+02  0.51100000000E-03 0.  1.
         12    1    3    3    0    0  0.18801597375E+02 -0.30297750598E+02 -0.17208883793E+02  0.39592921546E+02  0.00000000000E+00 0. -1.
</event>
<event>
 7    1  0.5158441E-015  0.9000756E+02  0.7816164E-02  0.1186339E+00
        -11   -1    0    0    0    0  0.00000000000E+00  0.00000000000E+00  0.45593999997E+02  0.45594000000E+02  0.51100000000E-03 0. -1.
         11   -1    0    0    0    0 -0.00000000000E+00 -0.00000000000E+00 -0.45593999997E+02  0.45594000000E+02  0.51100000000E-03 0.  1.
    9900012    2    1    2    0    0  0.70918624036E+00 -0.10274815006E+00  0.93805467077E+00  0.90007555647E+02  0.89999814581E+02 0.  0.
        -12    1    1    2    0    0 -0.70918624036E+00  0.10274815006E+00 -0.93805467077E+00  0.11804443533E+01  0.00000000000E+00 0.  1.
         11    1    3    3    0    0 -0.33918111107E+01  0.69726899021E+01 -0.51652899763E+01  0.93168131827E+01  0.51100000000E-03 0. -1.
        -11    1    3    3    0    0  0.10951636350E+02  0.20163074281E+02 -0.28200143581E+02  0.36355687333E+02  0.51100000000E-03 0.  1.
         12    1    3    3    0    0 -0.68506389993E+01 -0.27238512333E+02  0.34303488228E+02  0.44335055131E+02  0.00000000000E+00 0. -1.
</event>
<event>
 7    1  0.5158441E-015  0.9000784E+02  0.7816164E-02  0.1186339E+00
        -11   -1    0    0    0    0  0.00000000000E+00  0.00000000000E+00  0.45593999997E+02  0.45594000000E+02  0.51100000000E-03 0. -1.
         11   -1    0    0    0    0 -0.00000000000E+00 -0.00000000000E+00 -0.45593999997E+02  0.45594000000E+02  0.51100000000E-03 0.  1.
    9900012    2    1    2    0    0 -0.12019839610E+00  0.10556427059E+01  0.51374833152E+00  0.90007844703E+02  0.90000107453E+02 0.  0.
        -12    1    1    2    0    0  0.12019839610E+00 -0.10556427059E+01 -0.51374833152E+00  0.11801552970E+01  0.00000000000E+00 0.  1.
         11    1    3    3    0    0  0.20489574649E+01 -0.72946979939E+01  0.39567616476E+02  0.40286562516E+02  0.51100000000E-03 0. -1.
        -11    1    3    3    0    0 -0.29171547886E+01 -0.89846357641E+01 -0.33467796050E+01  0.10021696756E+02  0.51100000000E-03 0.  1.
        -12    1    3    3    0    0  0.74799892767E+00  0.17334976464E+02 -0.35707088540E+02  0.39699585431E+02  0.00000000000E+00 0.  1.
</event>
<event>
 7    1  0.5158441E-015  0.9000775E+02  0.7816164E-02  0.1186339E+00
        -11   -1    0    0    0    0  0.00000000000E+00  0.00000000000E+00  0.45593999997E+02  0.45594000000E+02  0.51100000000E-03 0. -1.
         11   -1    0    0    0    0 -0.00000000000E+00 -0.00000000000E+00 -0.45593999997E+02  0.45594000000E+02  0.51100000000E-03 0.  1.
    9900012    2    1    2    0    0 -0.59244719567E+00  0.76391637166E+00  0.67707530239E+00  0.90007748812E+02  0.90000010296E+02 0.  0.
        -12    1    1    2    0    0  0.59244719567E+00 -0.76391637166E+00 -0.67707530239E+00  0.11802511884E+01  0.00000000000E+00 0.  1.
         11    1    3    3    0    0 -0.18828300128E+02 -0.29483558029E+02  0.58516333415E+01  0.35468671991E+02  0.51100000000E-03 0. -1.
        -11    1    3    3    0    0  0.16074119711E+02 -0.57196832290E+01 -0.70445045794E+01  0.18458525016E+02  0.51100000000E-03 0.  1.
        -12    1    3    3    0    0  0.21617332215E+01  0.35967157630E+02  0.18699465403E+01  0.36080551805E+02  0.00000000000E+00 0.  1.
</event>
<event>
 7    1  0.5158441E-015  0.9000764E+02  0.7816164E-02  0.1186339E+00
        -11   -1    0    0    0    0  0.00000000000E+00  0.00000000000E+00  0.45593999997E+02  0.45594000000E+02  0.51100000000E-03 0. -1.
         11   -1    0    0    0    0 -0.00000000000E+00 -0.00000000000E+00 -0.45593999997E+02  0.45594000000E+02  0.51100000000E-03 0.  1.
    9900012    2    1    2    0    0  0.88785136830E+00  0.25275607718E+00  0.73558900471E+00  0.90007636975E+02  0.89999896983E+02 0.  0.
        -12    1    1    2    0    0 -0.88785136830E+00 -0.25275607718E+00 -0.73558900471E+00  0.11803630249E+01  0.00000000000E+00 0.  1.
         11    1    3    3    0    0 -0.27633717437E+01 -0.80397055035E+01 -0.19228143768E+01  0.87160945019E+01  0.51100000000E-03 0. -1.
        -11    1    3    3    0    0 -0.20270907048E+02 -0.18117041377E+02 -0.24414392893E+02  0.36540380969E+02  0.51100000000E-03 0.  1.
         12    1    3    3    0    0  0.23922130160E+02  0.26409502957E+02  0.27072796274E+02  0.44751161504E+02  0.00000000000E+00 0. -1.
</event>
<event>
 7    1  0.5158441E-015  0.9000775E+02  0.7816164E-02  0.1186339E+00
        -11   -1    0    0    0    0  0.00000000000E+00  0.00000000000E+00  0.45593999997E+02  0.45594000000E+02  0.51100000000E-03 0.  1.
         11   -1    0    0    0    0 -0.00000000000E+00 -0.00000000000E+00 -0.45593999997E+02  0.45594000000E+02  0.51100000000E-03 0. -1.
    9900012    2    1    2    0    0  0.11551583089E+00  0.70703877322E+00 -0.93794306983E+00  0.90007752172E+02  0.90000013700E+02 0.  0.
        -12    1    1    2    0    0 -0.11551583089E+00 -0.70703877322E+00  0.93794306983E+00  0.11802478283E+01  0.00000000000E+00 0.  1.
         11    1    3    3    0    0  0.24485824019E+01  0.19909303250E+01  0.80045499580E+01  0.86041954667E+01  0.51100000000E-03 0. -1.
        -11    1    3    3    0    0  0.28595658865E+02  0.13866141470E+02  0.19023720684E+02  0.37038946180E+02  0.51100000000E-03 0.  1.
         12    1    3    3    0    0 -0.30928725436E+02 -0.15150033022E+02 -0.27966213712E+02  0.44364610525E+02  0.00000000000E+00 0. -1.
</event>
<event>
 7    1  0.5158441E-015  0.9000774E+02  0.7816164E-02  0.1186339E+00
        -11   -1    0    0    0    0  0.00000000000E+00  0.00000000000E+00  0.45593999997E+02  0.45594000000E+02  0.51100000000E-03 0. -1.
         11   -1    0    0    0    0 -0.00000000000E+00 -0.00000000000E+00 -0.45593999997E+02  0.45594000000E+02  0.51100000000E-03 0.  1.
    9900012    2    1    2    0    0 -0.54707153399E+00  0.44192659272E+00  0.94785816721E+00  0.90007736690E+02  0.89999998014E+02 0.  0.
        -12    1    1    2    0    0  0.54707153399E+00 -0.44192659272E+00 -0.94785816721E+00  0.11802633104E+01  0.00000000000E+00 0.  1.
         11    1    3    3    0    0  0.27119486486E+02  0.27649741510E+01  0.19094603188E+02  0.33282360200E+02  0.51100000000E-03 0. -1.
        -11    1    3    3    0    0  0.32122319938E+01  0.99317936933E+01  0.90313164073E+01  0.13803029981E+02  0.51100000000E-03 0.  1.
        -12    1    3    3    0    0 -0.30878790014E+02 -0.12254841252E+02 -0.27178061428E+02  0.42922346509E+02  0.00000000000E+00 0.  1.
</event>
<event>
 7    1  0.5158441E-015  0.9000772E+02  0.7816164E-02  0.1186339E+00
        -11   -1    0    0    0    0  0.00000000000E+00  0.00000000000E+00  0.45593999997E+02  0.45594000000E+02  0.51100000000E-03 0.  1.
         11   -1    0    0    0    0 -0.00000000000E+00 -0.00000000000E+00 -0.45593999997E+02  0.45594000000E+02  0.51100000000E-03 0. -1.
    9900012    2    1    2    0    0  0.82392496885E+00 -0.77451538470E+00  0.33814202824E+00  0.90007717633E+02  0.89999978705E+02 0.  0.
        -12    1    1    2    0    0 -0.82392496885E+00  0.77451538470E+00 -0.33814202824E+00  0.11802823674E+01  0.00000000000E+00 0.  1.
         11    1    3    3    0    0 -0.17351286658E+02 -0.40225646161E+02 -0.54424772249E+01  0.44145105237E+02  0.51100000000E-03 0. -1.
        -11    1    3    3    0    0 -0.71281753375E+00  0.10308738385E+02  0.40270603610E+01  0.11090329632E+02  0.51100000000E-03 0.  1.
        -12    1    3    3    0    0  0.18888029161E+02  0.29142392391E+02  0.17535588921E+01  0.34772282764E+02  0.00000000000E+00 0.  1.
</event>
<event>
 7    1  0.5158441E-015  0.9000775E+02  0.7816164E-02  0.1186339E+00
        -11   -1    0    0    0    0  0.00000000000E+00  0.00000000000E+00  0.45593999997E+02  0.45594000000E+02  0.51100000000E-03 0. -1.
         11   -1    0    0    0    0 -0.00000000000E+00 -0.00000000000E+00 -0.45593999997E+02  0.45594000000E+02  0.51100000000E-03 0.  1.
    9900012    2    1    2    0    0 -0.10379767483E+01  0.42818243926E+00  0.36367552500E+00  0.90007747561E+02  0.90000009029E+02 0.  0.
        -12    1    1    2    0    0  0.10379767483E+01 -0.42818243926E+00 -0.36367552500E+00  0.11802524386E+01  0.00000000000E+00 0.  1.
         11    1    3    3    0    0  0.93489663788E+01 -0.22069922322E+01  0.45148288484E+01  0.10614031602E+02  0.51100000000E-03 0. -1.
        -11    1    3    3    0    0  0.33681279195E+02 -0.50816853854E+01  0.25413302872E+01  0.34157143535E+02  0.51100000000E-03 0.  1.
         12    1    3    3    0    0 -0.44068222322E+02  0.77168600569E+01 -0.66924836107E+01  0.45236572424E+02  0.00000000000E+00 0. -1.
</event>
<event>
 7    1  0.5239431E-015  0.9000782E+02  0.7816164E-02  0.1186339E+00
        -11   -1    0    0    0    0  0.00000000000E+00  0.00000000000E+00  0.45593999997E+02  0.45594000000E+02  0.51100000000E-03 0.  1.
         11   -1    0    0    0    0 -0.00000000000E+00 -0.00000000000E+00 -0.45593999997E+02  0.45594000000E+02  0.51100000000E-03 0. -1.
    9900012    2    1    2    0    0 -0.24400736329E+00  0.84648884530E+00 -0.78532581417E+00  0.90007822220E+02  0.90000084673E+02 0.  0.
        -12    1    1    2    0    0  0.24400736329E+00 -0.84648884530E+00  0.78532581417E+00  0.11801777802E+01  0.00000000000E+00 0.  1.
         11    1    3    3    0    0  0.40322647356E+00  0.27801696580E+02 -0.22759041549E+02  0.35931475016E+02  0.51100000000E-03 0. -1.
        -11    1    3    3    0    0  0.60404537852E+01  0.68169799043E+01 -0.49541138231E+01  0.10368294989E+02  0.51100000000E-03 0.  1.
        -12    1    3    3    0    0 -0.66876876220E+01 -0.33772187639E+02  0.26927829558E+02  0.43708052215E+02  0.00000000000E+00 0.  1.
</event>
<event>
 7    1  0.5158441E-015  0.9000771E+02  0.7816164E-02  0.1186339E+00
        -11   -1    0    0    0    0  0.00000000000E+00  0.00000000000E+00  0.45593999997E+02  0.45594000000E+02  0.51100000000E-03 0.  1.
         11   -1    0    0    0    0 -0.00000000000E+00 -0.00000000000E+00 -0.45593999997E+02  0.45594000000E+02  0.51100000000E-03 0. -1.
    9900012    2    1    2    0    0  0.47859997111E+00  0.10649239511E+01  0.17307770827E+00  0.90007713235E+02  0.89999974250E+02 0.  0.
        -12    1    1    2    0    0 -0.47859997111E+00 -0.10649239511E+01 -0.17307770827E+00  0.11802867648E+01  0.00000000000E+00 0.  1.
         11    1    3    3    0    0  0.37194771566E+01  0.13797316063E+02 -0.37429159911E+02  0.40064229093E+02  0.51100000000E-03 0. -1.
        -11    1    3    3    0    0  0.59966130815E+01 -0.10216556389E+02  0.75243135633E+00  0.11870279951E+02  0.51100000000E-03 0.  1.
        -12    1    3    3    0    0 -0.92374902669E+01 -0.25158357227E+01  0.36849806263E+02  0.38073204192E+02  0.00000000000E+00 0.  1.
</event>
<event>
 7    1  0.5158441E-015  0.9000760E+02  0.7816164E-02  0.1186339E+00
        -11   -1    0    0    0    0  0.00000000000E+00  0.00000000000E+00  0.45593999997E+02  0.45594000000E+02  0.51100000000E-03 0.  1.
         11   -1    0    0    0    0 -0.00000000000E+00 -0.00000000000E+00 -0.45593999997E+02  0.45594000000E+02  0.51100000000E-03 0. -1.
    9900012    2    1    2    0    0 -0.65325789110E+00 -0.93443091455E+00 -0.30565956773E+00  0.90007603974E+02  0.89999863547E+02 0.  0.
        -12    1    1    2    0    0  0.65325789110E+00  0.93443091455E+00  0.30565956773E+00  0.11803960258E+01  0.00000000000E+00 0.  1.
         11    1    3    3    0    0 -0.10348782527E+02 -0.86294974182E+01 -0.82027746813E+01  0.15775013097E+02  0.51100000000E-03 0.  1.
        -11    1    3    3    0    0 -0.23967193900E+02 -0.78823580253E+01 -0.16215561598E+02  0.29991705348E+02  0.51100000000E-03 0. -1.
         12    1    3    3    0    0  0.33662718536E+02  0.15577424529E+02  0.24112676712E+02  0.44240885529E+02  0.00000000000E+00 0. -1.
</event>
<event>
 7    1  0.5158441E-015  0.9000767E+02  0.7816164E-02  0.1186339E+00
        -11   -1    0    0    0    0  0.00000000000E+00  0.00000000000E+00  0.45593999997E+02  0.45594000000E+02  0.51100000000E-03 0. -1.
         11   -1    0    0    0    0 -0.00000000000E+00 -0.00000000000E+00 -0.45593999997E+02  0.45594000000E+02  0.51100000000E-03 0.  1.
    9900012    2    1    2    0    0  0.68656508291E+00 -0.86437185776E+00  0.41794215930E+00  0.90007667009E+02  0.89999927413E+02 0.  0.
        -12    1    1    2    0    0 -0.68656508291E+00  0.86437185776E+00 -0.41794215930E+00  0.11803329912E+01  0.00000000000E+00 0.  1.
         11    1    3    3    0    0 -0.71729611566E+01  0.20223374041E-01  0.46905223467E+01  0.85704597826E+01  0.51100000000E-03 0. -1.
        -11    1    3    3    0    0 -0.20243698727E+02  0.28720266804E+02 -0.16509336657E+02  0.38822921845E+02  0.51100000000E-03 0.  1.
         12    1    3    3    0    0  0.28103224967E+02 -0.29604862036E+02  0.12236756469E+02  0.42614285382E+02  0.00000000000E+00 0. -1.
</event>
<event>
 7    1  0.5158441E-015  0.9000776E+02  0.7816164E-02  0.1186339E+00
        -11   -1    0    0    0    0  0.00000000000E+00  0.00000000000E+00  0.45593999997E+02  0.45594000000E+02  0.51100000000E-03 0. -1.
         11   -1    0    0    0    0 -0.00000000000E+00 -0.00000000000E+00 -0.45593999997E+02  0.45594000000E+02  0.51100000000E-03 0.  1.
    9900012    2    1    2    0    0  0.10191491790E+01 -0.44189630465E+00 -0.39879293964E+00  0.90007757143E+02  0.90000018737E+02 0.  0.
        -12    1    1    2    0    0 -0.10191491790E+01  0.44189630465E+00  0.39879293964E+00  0.11802428572E+01  0.00000000000E+00 0.  1.
         11    1    3    3    0    0  0.14952442286E+02  0.89277002035E-01 -0.35891479667E+01  0.15377434249E+02  0.51100000000E-03 0. -1.
        -11    1    3    3    0    0 -0.46726552913E+01 -0.36437229308E+01 -0.34852710841E+02  0.35352819937E+02  0.51100000000E-03 0.  1.
         12    1    3    3    0    0 -0.92606378153E+01  0.31125496241E+01  0.38043065868E+02  0.39277502957E+02  0.00000000000E+00 0. -1.
</event>
<event>
 7    1  0.5158441E-015  0.9000774E+02  0.7816164E-02  0.1186339E+00
        -11   -1    0    0    0    0  0.00000000000E+00  0.00000000000E+00  0.45593999997E+02  0.45594000000E+02  0.51100000000E-03 0. -1.
         11   -1    0    0    0    0 -0.00000000000E+00 -0.00000000000E+00 -0.45593999997E+02  0.45594000000E+02  0.51100000000E-03 0.  1.
    9900012    2    1    2    0    0 -0.93736071945E+00  0.68247335153E+00 -0.22045234519E+00  0.90007739762E+02  0.90000001126E+02 0.  0.
        -12    1    1    2    0    0  0.93736071945E+00 -0.68247335153E+00  0.22045234519E+00  0.11802602384E+01  0.00000000000E+00 0.  1.
         11    1    3    3    0    0 -0.28238527982E+00  0.73768017250E+01 -0.70355274874E+01  0.10197822926E+02  0.51100000000E-03 0. -1.
        -11    1    3    3    0    0  0.37974425784E+02 -0.71526384454E+01 -0.60054161473E+01  0.39106038840E+02  0.51100000000E-03 0.  1.
         12    1    3    3    0    0 -0.38629401224E+02  0.45831007196E+00  0.12820491290E+02  0.40703877996E+02  0.00000000000E+00 0. -1.
</event>
<event>
 7    1  0.5158441E-015  0.9000780E+02  0.7816164E-02  0.1186339E+00
        -11   -1    0    0    0    0  0.00000000000E+00  0.00000000000E+00  0.45593999997E+02  0.45594000000E+02  0.51100000000E-03 0. -1.
         11   -1    0    0    0    0 -0.00000000000E+00 -0.00000000000E+00 -0.45593999997E+02  0.45594000000E+02  0.51100000000E-03 0.  1.
    9900012    2    1    2    0    0  0.30345512650E+00 -0.59731792723E+00  0.97159459734E+00  0.90007800957E+02  0.90000063129E+02 0.  0.
        -12    1    1    2    0    0 -0.30345512650E+00  0.59731792723E+00 -0.97159459734E+00  0.11801990432E+01  0.00000000000E+00 0.  1.
         11    1    3    3    0    0  0.50066958053E+00  0.45999110578E+01 -0.73695239200E+01  0.87017087309E+01  0.51100000000E-03 0. -1.
        -11    1    3    3    0    0  0.33828383721E+02  0.17437510106E+02 -0.48439412606E+01  0.38365219549E+02  0.51100000000E-03 0.  1.
         12    1    3    3    0    0 -0.34025598175E+02 -0.22634739091E+02  0.13185059778E+02  0.42940872677E+02  0.00000000000E+00 0. -1.
</event>
<event>
 7    1  0.5158441E-015  0.9000775E+02  0.7816164E-02  0.1186339E+00
        -11   -1    0    0    0    0  0.00000000000E+00  0.00000000000E+00  0.45593999997E+02  0.45594000000E+02  0.51100000000E-03 0. -1.
         11   -1    0    0    0    0 -0.00000000000E+00 -0.00000000000E+00 -0.45593999997E+02  0.45594000000E+02  0.51100000000E-03 0.  1.
    9900012    2    1    2    0    0  0.71573726953E+00 -0.65261433869E-02  0.93843878543E+00  0.90007750118E+02  0.90000011620E+02 0.  0.
        -12    1    1    2    0    0 -0.71573726953E+00  0.65261433869E-02 -0.93843878543E+00  0.11802498818E+01  0.00000000000E+00 0.  1.
         11    1    3    3    0    0  0.27794335780E+02  0.21988164142E+02  0.19976427044E+02  0.40682454467E+02  0.51100000000E-03 0. -1.
        -11    1    3    3    0    0  0.32825247655E+01 -0.11142677936E+02  0.49701922087E+00  0.11626747989E+02  0.51100000000E-03 0.  1.
        -12    1    3    3    0    0 -0.30361123276E+02 -0.10852012349E+02 -0.19535007480E+02  0.37698547662E+02  0.00000000000E+00 0.  1.
</event>
<event>
 7    1  0.5158441E-015  0.9000779E+02  0.7816164E-02  0.1186339E+00
        -11   -1    0    0    0    0  0.00000000000E+00  0.00000000000E+00  0.45593999997E+02  0.45594000000E+02  0.51100000000E-03 0.  1.
         11   -1    0    0    0    0 -0.00000000000E+00 -0.00000000000E+00 -0.45593999997E+02  0.45594000000E+02  0.51100000000E-03 0. -1.
    9900012    2    1    2    0    0  0.68978853478E+00 -0.31776279616E+00 -0.90339462626E+00  0.90007786770E+02  0.90000048755E+02 0.  0.
        -12    1    1    2    0    0 -0.68978853478E+00  0.31776279616E+00  0.90339462626E+00  0.11802132299E+01  0.00000000000E+00 0.  1.
         11    1    3    3    0    0  0.30712687599E+02  0.82183501211E+01 -0.24501287764E+02  0.40138803677E+02  0.51100000000E-03 0. -1.
        -11    1    3    3    0    0  0.47346619375E+01  0.39320341114E+01  0.71820254719E+01  0.94582982643E+01  0.51100000000E-03 0.  1.
        -12    1    3    3    0    0 -0.34757561001E+02 -0.12468147029E+02  0.16415867666E+02  0.40410684829E+02  0.00000000000E+00 0.  1.
</event>
<event>
 7    1  0.5158441E-015  0.9000778E+02  0.7816164E-02  0.1186339E+00
        -11   -1    0    0    0    0  0.00000000000E+00  0.00000000000E+00  0.45593999997E+02  0.45594000000E+02  0.51100000000E-03 0.  1.
         11   -1    0    0    0    0 -0.00000000000E+00 -0.00000000000E+00 -0.45593999997E+02  0.45594000000E+02  0.51100000000E-03 0. -1.
    9900012    2    1    2    0    0 -0.46555765320E+00  0.62636023588E+00 -0.88535823079E+00  0.90007775331E+02  0.90000037165E+02 0.  0.
        -12    1    1    2    0    0  0.46555765320E+00 -0.62636023588E+00  0.88535823079E+00  0.11802246694E+01  0.00000000000E+00 0.  1.
         11    1    3    3    0    0 -0.50424571563E+01  0.48060885214E+01 -0.65354701255E+01  0.95518182077E+01  0.51100000000E-03 0. -1.
        -11    1    3    3    0    0  0.85150325998E+01  0.37288189949E+02 -0.10690949273E+01  0.38263008952E+02  0.51100000000E-03 0.  1.
         12    1    3    3    0    0 -0.39381330967E+01 -0.41467918235E+02  0.67192068220E+01  0.42192948171E+02  0.00000000000E+00 0. -1.
</event>
<event>
 7    1  0.5158441E-015  0.9000791E+02  0.7816164E-02  0.1186339E+00
        -11   -1    0    0    0    0  0.00000000000E+00  0.00000000000E+00  0.45593999997E+02  0.45594000000E+02  0.51100000000E-03 0.  1.
         11   -1    0    0    0    0 -0.00000000000E+00 -0.00000000000E+00 -0.45593999997E+02  0.45594000000E+02  0.51100000000E-03 0. -1.
    9900012    2    1    2    0    0  0.35683666423E+00  0.63991040618E+00 -0.92508914072E+00  0.90007912015E+02  0.90000175654E+02 0.  0.
        -12    1    1    2    0    0 -0.35683666423E+00 -0.63991040618E+00  0.92508914072E+00  0.11800879845E+01  0.00000000000E+00 0.  1.
         11    1    3    3    0    0  0.12829220769E+02 -0.30488436070E+02 -0.19588131806E+02  0.38442535653E+02  0.51100000000E-03 0. -1.
        -11    1    3    3    0    0 -0.12137502236E+02  0.21020765841E+01 -0.57892613284E+01  0.13610776373E+02  0.51100000000E-03 0.  1.
        -12    1    3    3    0    0 -0.33488186843E+00  0.29026269892E+02  0.24452303994E+02  0.37954599989E+02  0.00000000000E+00 0.  1.
</event>
<event>
 7    1  0.5158441E-015  0.9000773E+02  0.7816164E-02  0.1186339E+00
        -11   -1    0    0    0    0  0.00000000000E+00  0.00000000000E+00  0.45593999997E+02  0.45594000000E+02  0.51100000000E-03 0. -1.
         11   -1    0    0    0    0 -0.00000000000E+00 -0.00000000000E+00 -0.45593999997E+02  0.45594000000E+02  0.51100000000E-03 0.  1.
    9900012    2    1    2    0    0  0.11363292766E+01  0.17491316883E+00 -0.26682036945E+00  0.90007732254E+02  0.89999993520E+02 0.  0.
        -12    1    1    2    0    0 -0.11363292766E+01 -0.17491316883E+00  0.26682036945E+00  0.11802677455E+01  0.00000000000E+00 0.  1.
         11    1    3    3    0    0  0.16762350842E+01 -0.57706503368E+01  0.71199366575E+01  0.93168485893E+01  0.51100000000E-03 0. -1.
        -11    1    3    3    0    0 -0.35065394734E+02 -0.16522272350E+02  0.42006970499E+00  0.38765240232E+02  0.51100000000E-03 0.  1.
         12    1    3    3    0    0  0.34525488926E+02  0.22467835855E+02 -0.78068267319E+01  0.41925643433E+02  0.00000000000E+00 0. -1.
</event>
<event>
 7    1  0.5158441E-015  0.9000769E+02  0.7816164E-02  0.1186339E+00
        -11   -1    0    0    0    0  0.00000000000E+00  0.00000000000E+00  0.45593999997E+02  0.45594000000E+02  0.51100000000E-03 0.  1.
         11   -1    0    0    0    0 -0.00000000000E+00 -0.00000000000E+00 -0.45593999997E+02  0.45594000000E+02  0.51100000000E-03 0. -1.
    9900012    2    1    2    0    0  0.57583985617E+00  0.10076145065E+01 -0.21508377992E+00  0.90007686666E+02  0.89999947330E+02 0.  0.
        -12    1    1    2    0    0 -0.57583985617E+00 -0.10076145065E+01  0.21508377992E+00  0.11803133338E+01  0.00000000000E+00 0.  1.
         11    1    3    3    0    0 -0.79482671889E+01  0.63226457049E+01  0.51030017258E+01  0.11366240666E+02  0.51100000000E-03 0. -1.
        -11    1    3    3    0    0 -0.16598661412E+02  0.30493266112E+02 -0.25419918325E+01  0.34811155706E+02  0.51100000000E-03 0.  1.
         12    1    3    3    0    0  0.25122768457E+02 -0.35808297310E+02 -0.27760936732E+01  0.43830290294E+02  0.00000000000E+00 0. -1.
</event>
<event>
 7    1  0.5158441E-015  0.9000773E+02  0.7816164E-02  0.1186339E+00
        -11   -1    0    0    0    0  0.00000000000E+00  0.00000000000E+00  0.45593999997E+02  0.45594000000E+02  0.51100000000E-03 0.  1.
         11   -1    0    0    0    0 -0.00000000000E+00 -0.00000000000E+00 -0.45593999997E+02  0.45594000000E+02  0.51100000000E-03 0. -1.
    9900012    2    1    2    0    0 -0.11362171622E+01 -0.31797537697E+00  0.30786453256E-01  0.90007726478E+02  0.89999987668E+02 0.  0.
        -12    1    1    2    0    0  0.11362171622E+01  0.31797537697E+00 -0.30786453256E-01  0.11802735216E+01  0.00000000000E+00 0.  1.
         11    1    3    3    0    0 -0.49969907316E+00 -0.24588829594E+02 -0.29262277531E+02  0.38224875755E+02  0.51100000000E-03 0. -1.
        -11    1    3    3    0    0  0.10789282802E+00  0.75046635911E+01 -0.79499375545E+01  0.10933120500E+02  0.51100000000E-03 0.  1.
        -12    1    3    3    0    0 -0.74441091708E+00  0.16766190626E+02  0.37243001539E+02  0.40849730223E+02  0.00000000000E+00 0.  1.
</event>
<event>
 7    1  0.5158441E-015  0.9000771E+02  0.7816164E-02  0.1186339E+00
        -11   -1    0    0    0    0  0.00000000000E+00  0.00000000000E+00  0.45593999997E+02  0.45594000000E+02  0.51100000000E-03 0. -1.
         11   -1    0    0    0    0 -0.00000000000E+00 -0.00000000000E+00 -0.45593999997E+02  0.45594000000E+02  0.51100000000E-03 0.  1.
    9900012    2    1    2    0    0  0.21400000811E+00 -0.86969411173E-01  0.11574644917E+01  0.90007710319E+02  0.89999971295E+02 0.  0.
        -12    1    1    2    0    0 -0.21400000811E+00  0.86969411173E-01 -0.11574644917E+01  0.11802896812E+01  0.00000000000E+00 0.  1.
         11    1    3    3    0    0  0.78754513947E+00  0.77375064882E+01  0.46689023422E+01  0.90712669095E+01  0.51100000000E-03 0. -1.
        -11    1    3    3    0    0 -0.27565156811E+02  0.23789441071E+02 -0.12330114475E+02  0.38442256693E+02  0.51100000000E-03 0.  1.
         12    1    3    3    0    0  0.26991611679E+02 -0.31613916970E+02  0.88186766245E+01  0.42494186716E+02  0.00000000000E+00 0. -1.
</event>
<event>
 7    1  0.5158441E-015  0.9000778E+02  0.7816164E-02  0.1186339E+00
        -11   -1    0    0    0    0  0.00000000000E+00  0.00000000000E+00  0.45593999997E+02  0.45594000000E+02  0.51100000000E-03 0.  1.
         11   -1    0    0    0    0 -0.00000000000E+00 -0.00000000000E+00 -0.45593999997E+02  0.45594000000E+02  0.51100000000E-03 0. -1.
    9900012    2    1    2    0    0 -0.87440956510E+00 -0.45437455872E+00 -0.64950902989E+00  0.90007783788E+02  0.90000045734E+02 0.  0.
        -12    1    1    2    0    0  0.87440956510E+00  0.45437455872E+00  0.64950902989E+00  0.11802162120E+01  0.00000000000E+00 0.  1.
         11    1    3    3    0    0  0.78011755651E+01 -0.38316522833E+02  0.72245216076E+01  0.39764405879E+02  0.51100000000E-03 0. -1.
        -11    1    3    3    0    0  0.35031800381E+01 -0.26460445246E+01 -0.65975763760E+01  0.79247609620E+01  0.51100000000E-03 0.  1.
        -12    1    3    3    0    0 -0.12178765168E+02  0.40508192799E+02 -0.12764542614E+01  0.42318616947E+02  0.00000000000E+00 0.  1.
</event>
<event>
 7    1  0.5158441E-015  0.9000774E+02  0.7816164E-02  0.1186339E+00
        -11   -1    0    0    0    0  0.00000000000E+00  0.00000000000E+00  0.45593999997E+02  0.45594000000E+02  0.51100000000E-03 0. -1.
         11   -1    0    0    0    0 -0.00000000000E+00 -0.00000000000E+00 -0.45593999997E+02  0.45594000000E+02  0.51100000000E-03 0.  1.
    9900012    2    1    2    0    0  0.11736354887E+01 -0.64835044282E-01 -0.10672745039E+00  0.90007739608E+02  0.90000000971E+02 0.  0.
        -12    1    1    2    0    0 -0.11736354887E+01  0.64835044282E-01  0.10672745039E+00  0.11802603916E+01  0.00000000000E+00 0.  1.
         11    1    3    3    0    0  0.15983376371E+01  0.12788164031E+01  0.95913618348E+01  0.98073582938E+01  0.51100000000E-03 0. -1.
        -11    1    3    3    0    0  0.19493915828E+02  0.23575536004E+02  0.20053725549E+02  0.36578279906E+02  0.51100000000E-03 0.  1.
         12    1    3    3    0    0 -0.19918617977E+02 -0.24919187452E+02 -0.29751814835E+02  0.43622101409E+02  0.00000000000E+00 0. -1.
</event>
<event>
 7    1  0.5158441E-015  0.9000775E+02  0.7816164E-02  0.1186339E+00
        -11   -1    0    0    0    0  0.00000000000E+00  0.00000000000E+00  0.45593999997E+02  0.45594000000E+02  0.51100000000E-03 0.  1.
         11   -1    0    0    0    0 -0.00000000000E+00 -0.00000000000E+00 -0.45593999997E+02  0.45594000000E+02  0.51100000000E-03 0. -1.
    9900012    2    1    2    0    0 -0.46079006474E+00 -0.91914295925E-01 -0.10826857753E+01  0.90007752479E+02  0.90000014012E+02 0.  0.
        -12    1    1    2    0    0  0.46079006474E+00  0.91914295925E-01  0.10826857753E+01  0.11802475205E+01  0.00000000000E+00 0.  1.
         11    1    3    3    0    0 -0.51696108189E+01 -0.72558883201E+01 -0.66299031384E+01  0.11105332378E+02  0.51100000000E-03 0. -1.
        -11    1    3    3    0    0 -0.96989249336E+01  0.28307238736E+02  0.30808162835E+02  0.42947780004E+02  0.51100000000E-03 0.  1.
         12    1    3    3    0    0  0.14407745688E+02 -0.21143264711E+02 -0.25260945472E+02  0.35954640098E+02  0.00000000000E+00 0. -1.
</event>
<event>
 7    1  0.5158441E-015  0.9000778E+02  0.7816164E-02  0.1186339E+00
        -11   -1    0    0    0    0  0.00000000000E+00  0.00000000000E+00  0.45593999997E+02  0.45594000000E+02  0.51100000000E-03 0.  1.
         11   -1    0    0    0    0 -0.00000000000E+00 -0.00000000000E+00 -0.45593999997E+02  0.45594000000E+02  0.51100000000E-03 0. -1.
    9900012    2    1    2    0    0 -0.44302418210E-01 -0.71919035217E+00 -0.93472948515E+00  0.90007781089E+02  0.90000043000E+02 0.  0.
        -12    1    1    2    0    0  0.44302418210E-01  0.71919035217E+00  0.93472948515E+00  0.11802189108E+01  0.00000000000E+00 0.  1.
         11    1    3    3    0    0 -0.36921315179E+01  0.56718607289E+01 -0.41316030977E+01  0.79291855629E+01  0.51100000000E-03 0. -1.
        -11    1    3    3    0    0 -0.17211915802E+02 -0.39313965811E+02 -0.58461752540E+00  0.42920621282E+02  0.51100000000E-03 0.  1.
         12    1    3    3    0    0  0.20859744902E+02  0.32922914730E+02  0.37814911379E+01  0.39157974244E+02  0.00000000000E+00 0. -1.
</event>
<event>
 7    1  0.5158441E-015  0.9000777E+02  0.7816164E-02  0.1186339E+00
        -11   -1    0    0    0    0  0.00000000000E+00  0.00000000000E+00  0.45593999997E+02  0.45594000000E+02  0.51100000000E-03 0.  1.
         11   -1    0    0    0    0 -0.00000000000E+00 -0.00000000000E+00 -0.45593999997E+02  0.45594000000E+02  0.51100000000E-03 0. -1.
    9900012    2    1    2    0    0  0.97028604103E+00  0.53942861479E+00  0.40062609093E+00  0.90007771422E+02  0.90000033205E+02 0.  0.
        -12    1    1    2    0    0 -0.97028604103E+00 -0.53942861479E+00 -0.40062609093E+00  0.11802285781E+01  0.00000000000E+00 0.  1.
         11    1    3    3    0    0 -0.64689634377E+01  0.68643040923E+00 -0.62187171474E+01  0.89995065357E+01  0.51100000000E-03 0. -1.
        -11    1    3    3    0    0 -0.29709777114E+02 -0.76681919840E+01  0.24342373286E+02  0.39166607740E+02  0.51100000000E-03 0.  1.
         12    1    3    3    0    0  0.37149026593E+02  0.75211901896E+01 -0.17723030047E+02  0.41841657146E+02  0.00000000000E+00 0. -1.
</event>
<event>
 7    1  0.5158441E-015  0.9000769E+02  0.7816164E-02  0.1186339E+00
        -11   -1    0    0    0    0  0.00000000000E+00  0.00000000000E+00  0.45593999997E+02  0.45594000000E+02  0.51100000000E-03 0.  1.
         11   -1    0    0    0    0 -0.00000000000E+00 -0.00000000000E+00 -0.45593999997E+02  0.45594000000E+02  0.51100000000E-03 0. -1.
    9900012    2    1    2    0    0  0.50386718310E+00 -0.70018035648E+00 -0.80560875178E+00  0.90007686427E+02  0.89999947088E+02 0.  0.
        -12    1    1    2    0    0 -0.50386718310E+00  0.70018035648E+00  0.80560875178E+00  0.11803135731E+01  0.00000000000E+00 0.  1.
         11    1    3    3    0    0  0.44734484965E+01 -0.11480281951E+02  0.23446441278E+02  0.26486680124E+02  0.51100000000E-03 0.  1.
        -11    1    3    3    0    0  0.19562792672E+02 -0.22863416528E+01 -0.30104823146E+02  0.35975416498E+02  0.51100000000E-03 0. -1.
         12    1    3    3    0    0 -0.23532373986E+02  0.13066443247E+02  0.58527731162E+01  0.27545589805E+02  0.00000000000E+00 0. -1.
</event>
<event>
 7    1  0.5158441E-015  0.9000780E+02  0.7816164E-02  0.1186339E+00
        -11   -1    0    0    0    0  0.00000000000E+00  0.00000000000E+00  0.45593999997E+02  0.45594000000E+02  0.51100000000E-03 0.  1.
         11   -1    0    0    0    0 -0.00000000000E+00 -0.00000000000E+00 -0.45593999997E+02  0.45594000000E+02  0.51100000000E-03 0. -1.
    9900012    2    1    2    0    0 -0.82300689974E+00 -0.81466070711E+00  0.22772802357E+00  0.90007799815E+02  0.90000061972E+02 0.  0.
        -12    1    1    2    0    0  0.82300689974E+00  0.81466070711E+00 -0.22772802357E+00  0.11802001853E+01  0.00000000000E+00 0.  1.
         11    1    3    3    0    0 -0.18426744394E+02 -0.24662938323E+01 -0.31824628805E+02  0.36856946605E+02  0.51100000000E-03 0. -1.
        -11    1    3    3    0    0 -0.47757130433E+01  0.81491271509E+01 -0.39716653591E+01  0.10246454722E+02  0.51100000000E-03 0.  1.
        -12    1    3    3    0    0  0.22379450537E+02 -0.64974940258E+01  0.36024022188E+02  0.42904398487E+02  0.00000000000E+00 0.  1.
</event>
<event>
 7    1  0.5158441E-015  0.9000775E+02  0.7816164E-02  0.1186339E+00
        -11   -1    0    0    0    0  0.00000000000E+00  0.00000000000E+00  0.45593999997E+02  0.45594000000E+02  0.51100000000E-03 0. -1.
         11   -1    0    0    0    0 -0.00000000000E+00 -0.00000000000E+00 -0.45593999997E+02  0.45594000000E+02  0.51100000000E-03 0.  1.
    9900012    2    1    2    0    0  0.58000434758E+00  0.18145795876E+00 -0.10117614834E+01  0.90007748614E+02  0.90000010096E+02 0.  0.
        -12    1    1    2    0    0 -0.58000434758E+00 -0.18145795876E+00  0.10117614834E+01  0.11802513856E+01  0.00000000000E+00 0.  1.
         11    1    3    3    0    0  0.41157906246E+02  0.48357077525E+01  0.24641137065E+01  0.41514204468E+02  0.51100000000E-03 0. -1.
        -11    1    3    3    0    0 -0.38072780088E+00 -0.77743520748E+01 -0.24582224190E+01  0.81626197733E+01  0.51100000000E-03 0.  1.
        -12    1    3    3    0    0 -0.40197174097E+02  0.31201022811E+01 -0.10176527709E+01  0.40330924373E+02  0.00000000000E+00 0.  1.
</event>
<event>
 7    1  0.5158441E-015  0.9000774E+02  0.7816164E-02  0.1186339E+00
        -11   -1    0    0    0    0  0.00000000000E+00  0.00000000000E+00  0.45593999997E+02  0.45594000000E+02  0.51100000000E-03 0. -1.
         11   -1    0    0    0    0 -0.00000000000E+00 -0.00000000000E+00 -0.45593999997E+02  0.45594000000E+02  0.51100000000E-03 0.  1.
    9900012    2    1    2    0    0  0.81232809363E+00  0.88620296449E-01  0.85163628736E+00  0.90007739497E+02  0.90000000859E+02 0.  0.
        -12    1    1    2    0    0 -0.81232809363E+00 -0.88620296449E-01 -0.85163628736E+00  0.11802605029E+01  0.00000000000E+00 0.  1.
         11    1    3    3    0    0 -0.17998280647E+02 -0.74940228935E+01  0.31692099004E+02  0.37208703617E+02  0.51100000000E-03 0. -1.
        -11    1    3    3    0    0 -0.21247695989E+01  0.15360683484E+02 -0.10171856661E+01  0.15540267368E+02  0.51100000000E-03 0.  1.
        -12    1    3    3    0    0  0.20935378339E+02 -0.77780402936E+01 -0.29823277050E+02  0.37258768512E+02  0.00000000000E+00 0.  1.
</event>
<event>
 7    1  0.5158441E-015  0.9000773E+02  0.7816164E-02  0.1186339E+00
        -11   -1    0    0    0    0  0.00000000000E+00  0.00000000000E+00  0.45593999997E+02  0.45594000000E+02  0.51100000000E-03 0. -1.
         11   -1    0    0    0    0 -0.00000000000E+00 -0.00000000000E+00 -0.45593999997E+02  0.45594000000E+02  0.51100000000E-03 0.  1.
    9900012    2    1    2    0    0 -0.26206453591E+00  0.99957021985E-01  0.11464621041E+01  0.90007726903E+02  0.89999988098E+02 0.  0.
        -12    1    1    2    0    0  0.26206453591E+00 -0.99957021985E-01 -0.11464621041E+01  0.11802730969E+01  0.00000000000E+00 0.  1.
         11    1    3    3    0    0 -0.67650324443E+01  0.16911657560E+01  0.62408906572E+01  0.93581206470E+01  0.51100000000E-03 0. -1.
        -11    1    3    3    0    0 -0.79731218015E+01 -0.19634509700E+02 -0.36163110113E+02  0.41914856265E+02  0.51100000000E-03 0.  1.
         12    1    3    3    0    0  0.14476089710E+02  0.18043300965E+02  0.31068681560E+02  0.38734749991E+02  0.00000000000E+00 0. -1.
</event>
<event>
 7    1  0.5158441E-015  0.9000777E+02  0.7816164E-02  0.1186339E+00
        -11   -1    0    0    0    0  0.00000000000E+00  0.00000000000E+00  0.45593999997E+02  0.45594000000E+02  0.51100000000E-03 0.  1.
         11   -1    0    0    0    0 -0.00000000000E+00 -0.00000000000E+00 -0.45593999997E+02  0.45594000000E+02  0.51100000000E-03 0. -1.
    9900012    2    1    2    0    0 -0.25298784961E+00  0.10852267593E+01 -0.38887831272E+00  0.90007768534E+02  0.90000030279E+02 0.  0.
        -12    1    1    2    0    0  0.25298784961E+00 -0.10852267593E+01  0.38887831272E+00  0.11802314660E+01  0.00000000000E+00 0.  1.
         11    1    3    3    0    0 -0.11959703884E+02  0.14502202192E+02 -0.35113293969E+02  0.39828278886E+02  0.51100000000E-03 0. -1.
        -11    1    3    3    0    0 -0.83162853571E+01  0.40555761596E+01  0.58967804019E+01  0.10971796548E+02  0.51100000000E-03 0.  1.
        -12    1    3    3    0    0  0.20023001392E+02 -0.17472551592E+02  0.28827635254E+02  0.39207693100E+02  0.00000000000E+00 0.  1.
</event>
<event>
 7    1  0.5158441E-015  0.9000776E+02  0.7816164E-02  0.1186339E+00
        -11   -1    0    0    0    0  0.00000000000E+00  0.00000000000E+00  0.45593999997E+02  0.45594000000E+02  0.51100000000E-03 0. -1.
         11   -1    0    0    0    0 -0.00000000000E+00 -0.00000000000E+00 -0.45593999997E+02  0.45594000000E+02  0.51100000000E-03 0.  1.
    9900012    2    1    2    0    0 -0.99183878264E+00  0.49181407669E+00 -0.40908155704E+00  0.90007757238E+02  0.90000018834E+02 0.  0.
        -12    1    1    2    0    0  0.99183878264E+00 -0.49181407669E+00  0.40908155704E+00  0.11802427619E+01  0.00000000000E+00 0.  1.
         11    1    3    3    0    0  0.22962255912E+02 -0.49338879730E+01 -0.41940580638E+01  0.23857882773E+02  0.51100000000E-03 0. -1.
        -11    1    3    3    0    0  0.51548758006E+01 -0.27607951160E+01 -0.24231817667E+02  0.24927409049E+02  0.51100000000E-03 0.  1.
         12    1    3    3    0    0 -0.29108970495E+02  0.81864971656E+01  0.28016794174E+02  0.41222465416E+02  0.00000000000E+00 0. -1.
</event>
<event>
 7    1  0.5158441E-015  0.9000759E+02  0.7816164E-02  0.1186339E+00
        -11   -1    0    0    0    0  0.00000000000E+00  0.00000000000E+00  0.45593999997E+02  0.45594000000E+02  0.51100000000E-03 0.  1.
         11   -1    0    0    0    0 -0.00000000000E+00 -0.00000000000E+00 -0.45593999997E+02  0.45594000000E+02  0.51100000000E-03 0. -1.
    9900012    2    1    2    0    0 -0.51663169508E+00 -0.27326492411E+00 -0.10255710411E+01  0.90007585671E+02  0.89999845002E+02 0.  0.
        -12    1    1    2    0    0  0.51663169508E+00  0.27326492411E+00  0.10255710411E+01  0.11804143287E+01  0.00000000000E+00 0.  1.
         11    1    3    3    0    0 -0.73638194527E+01  0.10445128011E+02 -0.95134799610E+00  0.12815287721E+02  0.51100000000E-03 0. -1.
        -11    1    3    3    0    0 -0.21629429764E+01  0.32698564282E+02 -0.17708169134E+01  0.32817833890E+02  0.51100000000E-03 0.  1.
         12    1    3    3    0    0  0.90101307340E+01 -0.43416957217E+02  0.16965938684E+01  0.44374464060E+02  0.00000000000E+00 0. -1.
</event>
<event>
 7    1  0.5158441E-015  0.9000771E+02  0.7816164E-02  0.1186339E+00
        -11   -1    0    0    0    0  0.00000000000E+00  0.00000000000E+00  0.45593999997E+02  0.45594000000E+02  0.51100000000E-03 0. -1.
         11   -1    0    0    0    0 -0.00000000000E+00 -0.00000000000E+00 -0.45593999997E+02  0.45594000000E+02  0.51100000000E-03 0.  1.
    9900012    2    1    2    0    0  0.80174032655E+00 -0.31872253624E+00  0.80542689580E+00  0.90007710167E+02  0.89999971141E+02 0.  0.
        -12    1    1    2    0    0 -0.80174032655E+00  0.31872253624E+00 -0.80542689580E+00  0.11802898334E+01  0.00000000000E+00 0.  1.
         11    1    3    3    0    0  0.12265157732E+02  0.40079255951E+02  0.89959387489E+01  0.42868493862E+02  0.51100000000E-03 0. -1.
        -11    1    3    3    0    0 -0.69175957616E+01 -0.64009574188E+01  0.46569058649E+01  0.10512476373E+02  0.51100000000E-03 0.  1.
        -12    1    3    3    0    0 -0.45458216442E+01 -0.33997021069E+02 -0.12847417718E+02  0.36626739931E+02  0.00000000000E+00 0.  1.
</event>
<event>
 7    1  0.5158441E-015  0.9000777E+02  0.7816164E-02  0.1186339E+00
        -11   -1    0    0    0    0  0.00000000000E+00  0.00000000000E+00  0.45593999997E+02  0.45594000000E+02  0.51100000000E-03 0.  1.
         11   -1    0    0    0    0 -0.00000000000E+00 -0.00000000000E+00 -0.45593999997E+02  0.45594000000E+02  0.51100000000E-03 0. -1.
    9900012    2    1    2    0    0  0.94625005809E+00 -0.34486501144E+00 -0.61531877972E+00  0.90007771950E+02  0.90000033740E+02 0.  0.
        -12    1    1    2    0    0 -0.94625005809E+00  0.34486501144E+00  0.61531877972E+00  0.11802280497E+01  0.00000000000E+00 0.  1.
         11    1    3    3    0    0  0.35165995286E+02  0.65822948808E+01 -0.22267913694E+02  0.42140643218E+02  0.51100000000E-03 0. -1.
        -11    1    3    3    0    0  0.11122275338E+01 -0.32581363797E+01  0.98522095350E+01  0.10436404349E+02  0.51100000000E-03 0.  1.
        -12    1    3    3    0    0 -0.35331972761E+02 -0.36690235125E+01  0.11800385379E+02  0.37430724383E+02  0.00000000000E+00 0.  1.
</event>
<event>
 7    1  0.5158441E-015  0.9000781E+02  0.7816164E-02  0.1186339E+00
        -11   -1    0    0    0    0  0.00000000000E+00  0.00000000000E+00  0.45593999997E+02  0.45594000000E+02  0.51100000000E-03 0.  1.
         11   -1    0    0    0    0 -0.00000000000E+00 -0.00000000000E+00 -0.45593999997E+02  0.45594000000E+02  0.51100000000E-03 0. -1.
    9900012    2    1    2    0    0  0.10769591739E-01  0.73788308470E+00 -0.92100717533E+00  0.90007812876E+02  0.90000075206E+02 0.  0.
        -12    1    1    2    0    0 -0.10769591739E-01 -0.73788308470E+00  0.92100717533E+00  0.11801871241E+01  0.00000000000E+00 0.  1.
         11    1    3    3    0    0 -0.35259641657E+02 -0.11357707293E+02  0.20345203546E+01  0.37099583799E+02  0.51100000000E-03 0. -1.
        -11    1    3    3    0    0 -0.58164279823E+01  0.25575369716E+01 -0.82332445483E+01  0.10399910860E+02  0.51100000000E-03 0.  1.
        -12    1    3    3    0    0  0.41086839231E+02  0.95380534058E+01  0.52777170184E+01  0.42508318217E+02  0.00000000000E+00 0.  1.
</event>
<event>
 7    1  0.5158441E-015  0.9000773E+02  0.7816164E-02  0.1186339E+00
        -11   -1    0    0    0    0  0.00000000000E+00  0.00000000000E+00  0.45593999997E+02  0.45594000000E+02  0.51100000000E-03 0.  1.
         11   -1    0    0    0    0 -0.00000000000E+00 -0.00000000000E+00 -0.45593999997E+02  0.45594000000E+02  0.51100000000E-03 0. -1.
    9900012    2    1    2    0    0 -0.42122070460E+00  0.43699696066E+00 -0.10122525198E+01  0.90007725291E+02  0.89999986464E+02 0.  0.
        -12    1    1    2    0    0  0.42122070460E+00 -0.43699696066E+00  0.10122525198E+01  0.11802747094E+01  0.00000000000E+00 0.  1.
         11    1    3    3    0    0 -0.38466115709E+00 -0.11398788108E+02  0.17481569980E-01  0.11405290018E+02  0.51100000000E-03 0. -1.
        -11    1    3    3    0    0  0.13918107399E+02 -0.27023373173E+02  0.15508439775E+02  0.34124596931E+02  0.51100000000E-03 0.  1.
         12    1    3    3    0    0 -0.13954666946E+02  0.38859158241E+02 -0.16538173864E+02  0.44477838342E+02  0.00000000000E+00 0. -1.
</event>
<event>
 7    1  0.5158441E-015  0.9000772E+02  0.7816164E-02  0.1186339E+00
        -11   -1    0    0    0    0  0.00000000000E+00  0.00000000000E+00  0.45593999997E+02  0.45594000000E+02  0.51100000000E-03 0. -1.
         11   -1    0    0    0    0 -0.00000000000E+00 -0.00000000000E+00 -0.45593999997E+02  0.45594000000E+02  0.51100000000E-03 0.  1.
    9900012    2    1    2    0    0  0.69002258431E+00 -0.95112552428E+00 -0.11087545679E+00  0.90007718552E+02  0.89999979637E+02 0.  0.
        -12    1    1    2    0    0 -0.69002258431E+00  0.95112552428E+00  0.11087545679E+00  0.11802814481E+01  0.00000000000E+00 0.  1.
         11    1    3    3    0    0  0.36716635864E+02 -0.39815254240E+00  0.10162382310E+02  0.38099132393E+02  0.51100000000E-03 0. -1.
        -11    1    3    3    0    0  0.42763143547E+01 -0.17369678407E+01  0.67209560591E+01  0.81532307921E+01  0.51100000000E-03 0.  1.
        -12    1    3    3    0    0 -0.40302927634E+02  0.11839948588E+01 -0.16994213826E+02  0.43755355367E+02  0.00000000000E+00 0.  1.
</event>
<event>
 7    1  0.5158441E-015  0.9000771E+02  0.7816164E-02  0.1186339E+00
        -11   -1    0    0    0    0  0.00000000000E+00  0.00000000000E+00  0.45593999997E+02  0.45594000000E+02  0.51100000000E-03 0.  1.
         11   -1    0    0    0    0 -0.00000000000E+00 -0.00000000000E+00 -0.45593999997E+02  0.45594000000E+02  0.51100000000E-03 0. -1.
    9900012    2    1    2    0    0  0.52966788913E+00  0.62938203189E+00 -0.84641474991E+00  0.90007708619E+02  0.89999969573E+02 0.  0.
        -12    1    1    2    0    0 -0.52966788913E+00 -0.62938203189E+00  0.84641474991E+00  0.11802913809E+01  0.00000000000E+00 0.  1.
         11    1    3    3    0    0  0.80017709863E+01  0.56063896198E+01 -0.36915698745E+02  0.38186761549E+02  0.51100000000E-03 0. -1.
        -11    1    3    3    0    0 -0.53750830370E+00  0.83741751260E+01 -0.37969012588E+01  0.92104388412E+01  0.51100000000E-03 0.  1.
        -12    1    3    3    0    0 -0.69345947935E+01 -0.13351182714E+02  0.39866185254E+02  0.42610508229E+02  0.00000000000E+00 0.  1.
</event>
<event>
 7    1  0.5158441E-015  0.9000784E+02  0.7816164E-02  0.1186339E+00
        -11   -1    0    0    0    0  0.00000000000E+00  0.00000000000E+00  0.45593999997E+02  0.45594000000E+02  0.51100000000E-03 0.  1.
         11   -1    0    0    0    0 -0.00000000000E+00 -0.00000000000E+00 -0.45593999997E+02  0.45594000000E+02  0.51100000000E-03 0. -1.
    9900012    2    1    2    0    0 -0.11689429573E+01 -0.15711723949E+00 -0.40775987152E-01  0.90007840627E+02  0.90000103323E+02 0.  0.
        -12    1    1    2    0    0  0.11689429573E+01  0.15711723949E+00  0.40775987152E-01  0.11801593729E+01  0.00000000000E+00 0.  1.
         11    1    3    3    0    0 -0.40996704130E+02 -0.15146953324E+02 -0.56041262248E+01  0.44063206596E+02  0.51100000000E-03 0. -1.
        -11    1    3    3    0    0  0.45606847201E+01  0.56609849825E+01  0.60554856473E+01  0.94612632758E+01  0.51100000000E-03 0.  1.
        -12    1    3    3    0    0  0.35267076453E+02  0.93288511017E+01 -0.49213540959E+00  0.36483370755E+02  0.00000000000E+00 0.  1.
</event>
<event>
 7    1  0.5158441E-015  0.9000775E+02  0.7816164E-02  0.1186339E+00
        -11   -1    0    0    0    0  0.00000000000E+00  0.00000000000E+00  0.45593999997E+02  0.45594000000E+02  0.51100000000E-03 0.  1.
         11   -1    0    0    0    0 -0.00000000000E+00 -0.00000000000E+00 -0.45593999997E+02  0.45594000000E+02  0.51100000000E-03 0. -1.
    9900012    2    1    2    0    0 -0.25242512071E+00 -0.50873154254E+00 -0.10346345425E+01  0.90007747967E+02  0.90000009441E+02 0.  0.
        -12    1    1    2    0    0  0.25242512071E+00  0.50873154254E+00  0.10346345425E+01  0.11802520327E+01  0.00000000000E+00 0.  1.
         11    1    3    3    0    0 -0.24306318872E+01  0.12813901575E+02 -0.28252890189E+01  0.13344898023E+02  0.51100000000E-03 0. -1.
        -11    1    3    3    0    0 -0.30051263221E+02 -0.46903649408E+01 -0.20372078087E+02  0.36607369617E+02  0.51100000000E-03 0.  1.
         12    1    3    3    0    0  0.32229469987E+02 -0.86322681769E+01  0.22162732564E+02  0.40055480327E+02  0.00000000000E+00 0. -1.
</event>
<event>
 7    1  0.5158441E-015  0.9000768E+02  0.7816164E-02  0.1186339E+00
        -11   -1    0    0    0    0  0.00000000000E+00  0.00000000000E+00  0.45593999997E+02  0.45594000000E+02  0.51100000000E-03 0.  1.
         11   -1    0    0    0    0 -0.00000000000E+00 -0.00000000000E+00 -0.45593999997E+02  0.45594000000E+02  0.51100000000E-03 0. -1.
    9900012    2    1    2    0    0 -0.73741326964E-02  0.11641909205E+01  0.19432381144E+00  0.90007679441E+02  0.89999940010E+02 0.  0.
        -12    1    1    2    0    0  0.73741326964E-02 -0.11641909205E+01 -0.19432381144E+00  0.11803205585E+01  0.00000000000E+00 0.  1.
         11    1    3    3    0    0 -0.24035699678E+02  0.17802659158E+02 -0.22266634887E+02  0.37288772594E+02  0.51100000000E-03 0. -1.
        -11    1    3    3    0    0 -0.80873385569E+01  0.94702589851E+00 -0.23672442349E+01  0.84797257335E+01  0.51100000000E-03 0.  1.
        -12    1    3    3    0    0  0.32115664103E+02 -0.17585494136E+02  0.24828202933E+02  0.44239181114E+02  0.00000000000E+00 0.  1.
</event>
<event>
 7    1  0.5158441E-015  0.9000825E+02  0.7816164E-02  0.1186338E+00
        -11   -1    0    0    0    0  0.00000000000E+00  0.00000000000E+00  0.45593999997E+02  0.45594000000E+02  0.51100000000E-03 0.  1.
         11   -1    0    0    0    0 -0.00000000000E+00 -0.00000000000E+00 -0.45593999997E+02  0.45594000000E+02  0.51100000000E-03 0. -1.
    9900012    2    1    2    0    0  0.10567732122E+01 -0.50674005457E+00 -0.13509388961E+00  0.90008251949E+02  0.90000520073E+02 0.  0.
        -12    1    1    2    0    0 -0.10567732122E+01  0.50674005457E+00  0.13509388961E+00  0.11797480510E+01  0.00000000000E+00 0.  1.
         11    1    3    3    0    0 -0.39215800686E+02 -0.21293583177E+01  0.42517630819E+01  0.39503046463E+02  0.51100000000E-03 0. -1.
        -11    1    3    3    0    0 -0.14484772016E+01  0.53353927067E+01 -0.65403985839E+01  0.85639544275E+01  0.51100000000E-03 0.  1.
        -12    1    3    3    0    0  0.41721051099E+02 -0.37127744436E+01  0.21535416123E+01  0.41941251059E+02  0.00000000000E+00 0.  1.
</event>
<event>
 7    1  0.5158441E-015  0.9000780E+02  0.7816164E-02  0.1186339E+00
        -11   -1    0    0    0    0  0.00000000000E+00  0.00000000000E+00  0.45593999997E+02  0.45594000000E+02  0.51100000000E-03 0.  1.
         11   -1    0    0    0    0 -0.00000000000E+00 -0.00000000000E+00 -0.45593999997E+02  0.45594000000E+02  0.51100000000E-03 0. -1.
    9900012    2    1    2    0    0 -0.68177378714E+00 -0.61833487374E+00 -0.73872581553E+00  0.90007801142E+02  0.90000063317E+02 0.  0.
        -12    1    1    2    0    0  0.68177378714E+00  0.61833487374E+00  0.73872581553E+00  0.11801988576E+01  0.00000000000E+00 0.  1.
         11    1    3    3    0    0  0.32025550707E+02  0.65167437245E+00  0.24280662034E+02  0.40194665400E+02  0.51100000000E-03 0. -1.
        -11    1    3    3    0    0 -0.57945084538E+01  0.78805408298E+01  0.26603981456E+01  0.10136911292E+02  0.51100000000E-03 0.  1.
        -12    1    3    3    0    0 -0.26912816040E+02 -0.91505500760E+01 -0.27679785995E+02  0.39676224450E+02  0.00000000000E+00 0.  1.
</event>
<event>
 7    1  0.5394859E-015  0.9000782E+02  0.7816164E-02  0.1186339E+00
        -11   -1    0    0    0    0  0.00000000000E+00  0.00000000000E+00  0.45593999997E+02  0.45594000000E+02  0.51100000000E-03 0. -1.
         11   -1    0    0    0    0 -0.00000000000E+00 -0.00000000000E+00 -0.45593999997E+02  0.45594000000E+02  0.51100000000E-03 0.  1.
    9900012    2    1    2    0    0  0.95215426382E+00  0.32733594514E+00  0.61569173388E+00  0.90007820830E+02  0.90000083265E+02 0.  0.
        -12    1    1    2    0    0 -0.95215426382E+00 -0.32733594514E+00 -0.61569173388E+00  0.11801791704E+01  0.00000000000E+00 0.  1.
         11    1    3    3    0    0  0.34408161828E+02 -0.23282000854E+02 -0.72376636345E+00  0.41551137194E+02  0.51100000000E-03 0. -1.
        -11    1    3    3    0    0 -0.69219078931E+01 -0.42673329954E+01  0.53936694830E+01  0.97577974219E+01  0.51100000000E-03 0.  1.
        -12    1    3    3    0    0 -0.26534099671E+02  0.27876669795E+02 -0.40542113857E+01  0.38698886213E+02  0.00000000000E+00 0.  1.
</event>
<event>
 7    1  0.5158441E-015  0.9000777E+02  0.7816164E-02  0.1186339E+00
        -11   -1    0    0    0    0  0.00000000000E+00  0.00000000000E+00  0.45593999997E+02  0.45594000000E+02  0.51100000000E-03 0. -1.
         11   -1    0    0    0    0 -0.00000000000E+00 -0.00000000000E+00 -0.45593999997E+02  0.45594000000E+02  0.51100000000E-03 0.  1.
    9900012    2    1    2    0    0 -0.75782847584E-01 -0.87644420747E-01  0.11745244594E+01  0.90007774475E+02  0.90000036298E+02 0.  0.
        -12    1    1    2    0    0  0.75782847584E-01  0.87644420747E-01 -0.11745244594E+01  0.11802255252E+01  0.00000000000E+00 0.  1.
         11    1    3    3    0    0  0.33335984072E+01 -0.10240420077E+02  0.61038434230E+01  0.12378852390E+02  0.51100000000E-03 0. -1.
        -11    1    3    3    0    0 -0.38317070200E+02  0.15877474249E+02 -0.75500806753E+01  0.42157985906E+02  0.51100000000E-03 0.  1.
         12    1    3    3    0    0  0.34907688945E+02 -0.57246985933E+01  0.26207617118E+01  0.35470936179E+02  0.00000000000E+00 0. -1.
</event>
<event>
 7    1  0.5158441E-015  0.9000777E+02  0.7816164E-02  0.1186339E+00
        -11   -1    0    0    0    0  0.00000000000E+00  0.00000000000E+00  0.45593999997E+02  0.45594000000E+02  0.51100000000E-03 0.  1.
         11   -1    0    0    0    0 -0.00000000000E+00 -0.00000000000E+00 -0.45593999997E+02  0.45594000000E+02  0.51100000000E-03 0. -1.
    9900012    2    1    2    0    0  0.42514903489E+00  0.10899140399E+01 -0.15580600020E+00  0.90007771282E+02  0.90000033063E+02 0.  0.
        -12    1    1    2    0    0 -0.42514903489E+00 -0.10899140399E+01  0.15580600020E+00  0.11802287176E+01  0.00000000000E+00 0.  1.
         11    1    3    3    0    0 -0.17678021911E+01  0.60647414739E+01  0.97432643782E+01  0.11611951375E+02  0.51100000000E-03 0. -1.
        -11    1    3    3    0    0 -0.59278936788E+01  0.20059289914E+02  0.26323229626E+02  0.33621830014E+02  0.51100000000E-03 0.  1.
         12    1    3    3    0    0  0.81208449048E+01 -0.25034117348E+02 -0.36222300004E+02  0.44773989893E+02  0.00000000000E+00 0. -1.
</event>
<event>
 7    1  0.5158441E-015  0.9000759E+02  0.7816164E-02  0.1186339E+00
        -11   -1    0    0    0    0  0.00000000000E+00  0.00000000000E+00  0.45593999997E+02  0.45594000000E+02  0.51100000000E-03 0.  1.
         11   -1    0    0    0    0 -0.00000000000E+00 -0.00000000000E+00 -0.45593999997E+02  0.45594000000E+02  0.51100000000E-03 0. -1.
    9900012    2    1    2    0    0  0.73124702102E+00 -0.81484416524E+00 -0.44120706967E+00  0.90007594605E+02  0.89999854053E+02 0.  0.
        -12    1    1    2    0    0 -0.73124702102E+00  0.81484416524E+00  0.44120706967E+00  0.11804053955E+01  0.00000000000E+00 0.  1.
         11    1    3    3    0    0 -0.39131610593E+01 -0.44320025111E+01 -0.60741838911E+01  0.84765078859E+01  0.51100000000E-03 0. -1.
        -11    1    3    3    0    0 -0.30275744416E+02 -0.22438025781E+02  0.44478333412E+01  0.37945604786E+02  0.51100000000E-03 0.  1.
         12    1    3    3    0    0  0.34920152496E+02  0.26055184127E+02  0.11851434803E+01  0.43585481933E+02  0.00000000000E+00 0. -1.
</event>
<event>
 7    1  0.5158441E-015  0.9000775E+02  0.7816164E-02  0.1186339E+00
        -11   -1    0    0    0    0  0.00000000000E+00  0.00000000000E+00  0.45593999997E+02  0.45594000000E+02  0.51100000000E-03 0. -1.
         11   -1    0    0    0    0 -0.00000000000E+00 -0.00000000000E+00 -0.45593999997E+02  0.45594000000E+02  0.51100000000E-03 0.  1.
    9900012    2    1    2    0    0 -0.10282382128E+01  0.10312908745E+00  0.57016729324E+00  0.90007745717E+02  0.90000007160E+02 0.  0.
        -12    1    1    2    0    0  0.10282382128E+01 -0.10312908745E+00 -0.57016729324E+00  0.11802542833E+01  0.00000000000E+00 0.  1.
         11    1    3    3    0    0 -0.16417776251E+02  0.17911088048E+02  0.22245725051E+02  0.32942719004E+02  0.51100000000E-03 0. -1.
        -11    1    3    3    0    0 -0.71902106922E+01  0.70233676061E+01  0.75423834014E+01  0.12566398448E+02  0.51100000000E-03 0.  1.
        -12    1    3    3    0    0  0.22579748731E+02 -0.24831326567E+02 -0.29217941159E+02  0.44498628264E+02  0.00000000000E+00 0.  1.
</event>
<event>
 7    1  0.5158441E-015  0.9000770E+02  0.7816164E-02  0.1186339E+00
        -11   -1    0    0    0    0  0.00000000000E+00  0.00000000000E+00  0.45593999997E+02  0.45594000000E+02  0.51100000000E-03 0.  1.
         11   -1    0    0    0    0 -0.00000000000E+00 -0.00000000000E+00 -0.45593999997E+02  0.45594000000E+02  0.51100000000E-03 0. -1.
    9900012    2    1    2    0    0 -0.11497104715E+01  0.25822346935E+00 -0.67827708161E-01  0.90007697443E+02  0.89999958249E+02 0.  0.
        -12    1    1    2    0    0  0.11497104715E+01 -0.25822346935E+00  0.67827708161E-01  0.11803025571E+01  0.00000000000E+00 0.  1.
         11    1    3    3    0    0 -0.30319156499E+02 -0.13720097075E+02 -0.20410660110E+02  0.39039561484E+02  0.51100000000E-03 0. -1.
        -11    1    3    3    0    0  0.89180094273E+00 -0.93896034155E+01  0.96536320411E+00  0.94811332444E+01  0.51100000000E-03 0.  1.
        -12    1    3    3    0    0  0.28277645084E+02  0.23367923960E+02  0.19377469197E+02  0.41487002714E+02  0.00000000000E+00 0.  1.
</event>
<event>
 7    1  0.5158441E-015  0.9000774E+02  0.7816164E-02  0.1186339E+00
        -11   -1    0    0    0    0  0.00000000000E+00  0.00000000000E+00  0.45593999997E+02  0.45594000000E+02  0.51100000000E-03 0.  1.
         11   -1    0    0    0    0 -0.00000000000E+00 -0.00000000000E+00 -0.45593999997E+02  0.45594000000E+02  0.51100000000E-03 0. -1.
    9900012    2    1    2    0    0  0.66427602581E+00  0.61559089426E+00 -0.75683943392E+00  0.90007737014E+02  0.89999998343E+02 0.  0.
        -12    1    1    2    0    0 -0.66427602581E+00 -0.61559089426E+00  0.75683943392E+00  0.11802629861E+01  0.00000000000E+00 0.  1.
         11    1    3    3    0    0 -0.24512997979E+01  0.76856591634E+01 -0.65672991504E+01  0.10402290414E+02  0.51100000000E-03 0. -1.
        -11    1    3    3    0    0  0.13379891685E+02  0.26619173184E+02  0.25536457975E+02  0.39239171355E+02  0.51100000000E-03 0.  1.
         12    1    3    3    0    0 -0.10264315861E+02 -0.33689241453E+02 -0.19725998258E+02  0.40366275244E+02  0.00000000000E+00 0. -1.
</event>
<event>
 7    1  0.5158441E-015  0.9000770E+02  0.7816164E-02  0.1186339E+00
        -11   -1    0    0    0    0  0.00000000000E+00  0.00000000000E+00  0.45593999997E+02  0.45594000000E+02  0.51100000000E-03 0.  1.
         11   -1    0    0    0    0 -0.00000000000E+00 -0.00000000000E+00 -0.45593999997E+02  0.45594000000E+02  0.51100000000E-03 0. -1.
    9900012    2    1    2    0    0  0.46480291837E+00 -0.45964955266E+00 -0.98274914509E+00  0.90007696926E+02  0.89999957725E+02 0.  0.
        -12    1    1    2    0    0 -0.46480291837E+00  0.45964955266E+00  0.98274914509E+00  0.11803030739E+01  0.00000000000E+00 0.  1.
         11    1    3    3    0    0 -0.22690875188E+02  0.30204124926E+02 -0.88161663140E+01  0.38792908734E+02  0.51100000000E-03 0. -1.
        -11    1    3    3    0    0  0.17795002215E+01  0.68481109599E+01 -0.99863545502E+00  0.71456642651E+01  0.51100000000E-03 0.  1.
        -12    1    3    3    0    0  0.21376177885E+02 -0.37511885439E+02  0.88320526239E+01  0.44069123927E+02  0.00000000000E+00 0.  1.
</event>
<event>
 7    1  0.5158441E-015  0.9000776E+02  0.7816164E-02  0.1186339E+00
        -11   -1    0    0    0    0  0.00000000000E+00  0.00000000000E+00  0.45593999997E+02  0.45594000000E+02  0.51100000000E-03 0.  1.
         11   -1    0    0    0    0 -0.00000000000E+00 -0.00000000000E+00 -0.45593999997E+02  0.45594000000E+02  0.51100000000E-03 0. -1.
    9900012    2    1    2    0    0  0.34902075289E-01  0.11422983033E+01 -0.29478657860E+00  0.90007761594E+02  0.90000023247E+02 0.  0.
        -12    1    1    2    0    0 -0.34902075289E-01 -0.11422983033E+01  0.29478657860E+00  0.11802384062E+01  0.00000000000E+00 0.  1.
         11    1    3    3    0    0  0.43021138820E+01 -0.12545219556E+01 -0.87321984275E+01  0.98149528184E+01  0.51100000000E-03 0. -1.
        -11    1    3    3    0    0  0.15189941441E+02  0.30065105226E+02  0.25557007580E+02  0.42282449195E+02  0.51100000000E-03 0.  1.
         12    1    3    3    0    0 -0.19457153248E+02 -0.27668284967E+02 -0.17119595731E+02  0.37910359580E+02  0.00000000000E+00 0. -1.
</event>
<event>
 7    1  0.5158441E-015  0.9000769E+02  0.7816164E-02  0.1186339E+00
        -11   -1    0    0    0    0  0.00000000000E+00  0.00000000000E+00  0.45593999997E+02  0.45594000000E+02  0.51100000000E-03 0.  1.
         11   -1    0    0    0    0 -0.00000000000E+00 -0.00000000000E+00 -0.45593999997E+02  0.45594000000E+02  0.51100000000E-03 0. -1.
    9900012    2    1    2    0    0 -0.91653217060E+00 -0.61887473196E+00 -0.41241763817E+00  0.90007692641E+02  0.89999953384E+02 0.  0.
        -12    1    1    2    0    0  0.91653217060E+00  0.61887473196E+00  0.41241763817E+00  0.11803073591E+01  0.00000000000E+00 0.  1.
         11    1    3    3    0    0 -0.13130104006E+02 -0.25659122101E+02  0.21768439508E+02  0.36120010203E+02  0.51100000000E-03 0. -1.
        -11    1    3    3    0    0  0.20240863453E+01 -0.86161820341E+01  0.43260122681E+01  0.98513908045E+01  0.51100000000E-03 0.  1.
        -12    1    3    3    0    0  0.10189485490E+02  0.33656429403E+02 -0.26506869414E+02  0.44036291634E+02  0.00000000000E+00 0.  1.
</event>
<event>
 7    1  0.5158441E-015  0.9000791E+02  0.7816164E-02  0.1186339E+00
        -11   -1    0    0    0    0  0.00000000000E+00  0.00000000000E+00  0.45593999997E+02  0.45594000000E+02  0.51100000000E-03 0.  1.
         11   -1    0    0    0    0 -0.00000000000E+00 -0.00000000000E+00 -0.45593999997E+02  0.45594000000E+02  0.51100000000E-03 0. -1.
    9900012    2    1    2    0    0 -0.56576035439E+00 -0.55740901680E+00 -0.87282407384E+00  0.90007910404E+02  0.90000174021E+02 0.  0.
        -12    1    1    2    0    0  0.56576035439E+00  0.55740901680E+00  0.87282407384E+00  0.11800895960E+01  0.00000000000E+00 0.  1.
         11    1    3    3    0    0 -0.17479362242E+02  0.19404255623E+02 -0.29363506453E+02  0.39297185041E+02  0.51100000000E-03 0. -1.
        -11    1    3    3    0    0 -0.94447566339E+01 -0.15642288597E+01  0.43723380733E+01  0.10524617821E+02  0.51100000000E-03 0.  1.
        -12    1    3    3    0    0  0.26358358522E+02 -0.18397435780E+02  0.24118344306E+02  0.40186107541E+02  0.00000000000E+00 0.  1.
</event>
<event>
 7    1  0.5158441E-015  0.9000778E+02  0.7816164E-02  0.1186339E+00
        -11   -1    0    0    0    0  0.00000000000E+00  0.00000000000E+00  0.45593999997E+02  0.45594000000E+02  0.51100000000E-03 0. -1.
         11   -1    0    0    0    0 -0.00000000000E+00 -0.00000000000E+00 -0.45593999997E+02  0.45594000000E+02  0.51100000000E-03 0.  1.
    9900012    2    1    2    0    0  0.11216698753E+00  0.10612300368E+01  0.50411851290E+00  0.90007777098E+02  0.90000038955E+02 0.  0.
        -12    1    1    2    0    0 -0.11216698753E+00 -0.10612300368E+01 -0.50411851290E+00  0.11802229023E+01  0.00000000000E+00 0.  1.
         11    1    3    3    0    0  0.75533183068E+01  0.57477429813E+01 -0.14634563134E+02  0.17443038876E+02  0.51100000000E-03 0. -1.
        -11    1    3    3    0    0  0.28322939448E+02  0.12782711260E+02  0.48109112385E+01  0.31444100772E+02  0.51100000000E-03 0.  1.
         12    1    3    3    0    0 -0.35764090767E+02 -0.17469224205E+02  0.10327770409E+02  0.41120637450E+02  0.00000000000E+00 0. -1.
</event>
<event>
 7    1  0.5158441E-015  0.9000777E+02  0.7816164E-02  0.1186339E+00
        -11   -1    0    0    0    0  0.00000000000E+00  0.00000000000E+00  0.45593999997E+02  0.45594000000E+02  0.51100000000E-03 0. -1.
         11   -1    0    0    0    0 -0.00000000000E+00 -0.00000000000E+00 -0.45593999997E+02  0.45594000000E+02  0.51100000000E-03 0.  1.
    9900012    2    1    2    0    0 -0.59790765325E+00  0.87222746352E-01  0.10138294403E+01  0.90007766335E+02  0.90000028051E+02 0.  0.
        -12    1    1    2    0    0  0.59790765325E+00 -0.87222746352E-01 -0.10138294403E+01  0.11802336647E+01  0.00000000000E+00 0.  1.
         11    1    3    3    0    0 -0.60241581230E+01 -0.23784821157E+02  0.23672664998E+02  0.34094035651E+02  0.51100000000E-03 0. -1.
        -11    1    3    3    0    0 -0.27938270692E+01 -0.22275696350E+01  0.11559913795E+02  0.12099551371E+02  0.51100000000E-03 0.  1.
        -12    1    3    3    0    0  0.82200775390E+01  0.26099613539E+02 -0.34218749353E+02  0.43814179313E+02  0.00000000000E+00 0.  1.
</event>
<event>
 7    1  0.5158441E-015  0.9000773E+02  0.7816164E-02  0.1186339E+00
        -11   -1    0    0    0    0  0.00000000000E+00  0.00000000000E+00  0.45593999997E+02  0.45594000000E+02  0.51100000000E-03 0.  1.
         11   -1    0    0    0    0 -0.00000000000E+00 -0.00000000000E+00 -0.45593999997E+02  0.45594000000E+02  0.51100000000E-03 0. -1.
    9900012    2    1    2    0    0  0.17478713649E+00 -0.11454384210E+01 -0.22460463754E+00  0.90007734368E+02  0.89999995661E+02 0.  0.
        -12    1    1    2    0    0 -0.17478713649E+00  0.11454384210E+01  0.22460463754E+00  0.11802656322E+01  0.00000000000E+00 0.  1.
         11    1    3    3    0    0 -0.27400571767E+02 -0.18424130586E+02 -0.16385692931E+02  0.36860966538E+02  0.51100000000E-03 0. -1.
        -11    1    3    3    0    0 -0.42760717409E+01  0.13606185839E+02 -0.45573941046E+01  0.14972739359E+02  0.51100000000E-03 0.  1.
        -12    1    3    3    0    0  0.31851430644E+02  0.36725063261E+01  0.20718482398E+02  0.38174028471E+02  0.00000000000E+00 0.  1.
</event>
<event>
 7    1  0.5158441E-015  0.9000772E+02  0.7816164E-02  0.1186339E+00
        -11   -1    0    0    0    0  0.00000000000E+00  0.00000000000E+00  0.45593999997E+02  0.45594000000E+02  0.51100000000E-03 0. -1.
         11   -1    0    0    0    0 -0.00000000000E+00 -0.00000000000E+00 -0.45593999997E+02  0.45594000000E+02  0.51100000000E-03 0.  1.
    9900012    2    1    2    0    0  0.38865686507E+00  0.11115804385E+00  0.11088949180E+01  0.90007721131E+02  0.89999982250E+02 0.  0.
        -12    1    1    2    0    0 -0.38865686507E+00 -0.11115804385E+00 -0.11088949180E+01  0.11802788690E+01  0.00000000000E+00 0.  1.
         11    1    3    3    0    0  0.88927409342E+01  0.21247578701E+01 -0.14571213021E+00  0.91442150902E+01  0.51100000000E-03 0. -1.
        -11    1    3    3    0    0  0.22360247704E+02 -0.95189387808E+01 -0.28420848466E+02  0.37394324445E+02  0.51100000000E-03 0.  1.
         12    1    3    3    0    0 -0.30864331773E+02  0.75053389546E+01  0.29675455514E+02  0.43469181596E+02  0.00000000000E+00 0. -1.
</event>
<event>
 7    1  0.5158441E-015  0.9000751E+02  0.7816164E-02  0.1186339E+00
        -11   -1    0    0    0    0  0.00000000000E+00  0.00000000000E+00  0.45593999997E+02  0.45594000000E+02  0.51100000000E-03 0.  1.
         11   -1    0    0    0    0 -0.00000000000E+00 -0.00000000000E+00 -0.45593999997E+02  0.45594000000E+02  0.51100000000E-03 0. -1.
    9900012    2    1    2    0    0  0.67281540386E+00 -0.88122609610E+00 -0.40534747406E+00  0.90007514263E+02  0.89999772651E+02 0.  0.
        -12    1    1    2    0    0 -0.67281540386E+00  0.88122609610E+00  0.40534747406E+00  0.11804857368E+01  0.00000000000E+00 0.  1.
         11    1    3    3    0    0  0.90367105435E+01 -0.25297651685E+00  0.39898399804E+01  0.98815463312E+01  0.51100000000E-03 0. -1.
        -11    1    3    3    0    0 -0.70721064242E+01 -0.13577429935E+02  0.35233302449E+02  0.38415451249E+02  0.51100000000E-03 0.  1.
         12    1    3    3    0    0 -0.12917887154E+01  0.12949180356E+02 -0.39628489903E+02  0.41710516683E+02  0.00000000000E+00 0. -1.
</event>
<event>
 7    1  0.5158441E-015  0.9000777E+02  0.7816164E-02  0.1186339E+00
        -11   -1    0    0    0    0  0.00000000000E+00  0.00000000000E+00  0.45593999997E+02  0.45594000000E+02  0.51100000000E-03 0. -1.
         11   -1    0    0    0    0 -0.00000000000E+00 -0.00000000000E+00 -0.45593999997E+02  0.45594000000E+02  0.51100000000E-03 0.  1.
    9900012    2    1    2    0    0 -0.96546620447E+00  0.32245860230E-01  0.67806201584E+00  0.90007774223E+02  0.90000036043E+02 0.  0.
        -12    1    1    2    0    0  0.96546620447E+00 -0.32245860230E-01 -0.67806201584E+00  0.11802257770E+01  0.00000000000E+00 0.  1.
         11    1    3    3    0    0 -0.25149009551E+02 -0.29437878230E+02  0.17156520646E+02  0.42348642918E+02  0.51100000000E-03 0. -1.
        -11    1    3    3    0    0  0.44918192638E+01  0.85643030846E+01  0.58308851016E+01  0.11292605942E+02  0.51100000000E-03 0.  1.
        -12    1    3    3    0    0  0.19691724082E+02  0.20905821006E+02 -0.22309343732E+02  0.36366525363E+02  0.00000000000E+00 0.  1.
</event>
<event>
 7    1  0.5158441E-015  0.9000776E+02  0.7816164E-02  0.1186339E+00
        -11   -1    0    0    0    0  0.00000000000E+00  0.00000000000E+00  0.45593999997E+02  0.45594000000E+02  0.51100000000E-03 0.  1.
         11   -1    0    0    0    0 -0.00000000000E+00 -0.00000000000E+00 -0.45593999997E+02  0.45594000000E+02  0.51100000000E-03 0. -1.
    9900012    2    1    2    0    0  0.93435118439E+00 -0.66597764476E+00 -0.27647533336E+00  0.90007755547E+02  0.90000017120E+02 0.  0.
        -12    1    1    2    0    0 -0.93435118439E+00  0.66597764476E+00  0.27647533336E+00  0.11802444531E+01  0.00000000000E+00 0.  1.
         11    1    3    3    0    0  0.35428446520E+02  0.23672339966E+01 -0.33068034068E+01  0.35661093206E+02  0.51100000000E-03 0. -1.
        -11    1    3    3    0    0  0.53767919301E+01 -0.10764659865E+02 -0.48538652519E+01  0.12974891199E+02  0.51100000000E-03 0.  1.
        -12    1    3    3    0    0 -0.39870887266E+02  0.77314482240E+01  0.78841933254E+01  0.41371771142E+02  0.00000000000E+00 0.  1.
</event>
<event>
 7    1  0.5158441E-015  0.9000769E+02  0.7816164E-02  0.1186339E+00
        -11   -1    0    0    0    0  0.00000000000E+00  0.00000000000E+00  0.45593999997E+02  0.45594000000E+02  0.51100000000E-03 0.  1.
         11   -1    0    0    0    0 -0.00000000000E+00 -0.00000000000E+00 -0.45593999997E+02  0.45594000000E+02  0.51100000000E-03 0. -1.
    9900012    2    1    2    0    0 -0.60472200205E+00 -0.34385813796E+00 -0.95351668952E+00  0.90007694448E+02  0.89999955215E+02 0.  0.
        -12    1    1    2    0    0  0.60472200205E+00  0.34385813796E+00  0.95351668952E+00  0.11803055520E+01  0.00000000000E+00 0.  1.
         11    1    3    3    0    0  0.12967172211E+02 -0.13091214721E+01 -0.45524589592E+01  0.13805297426E+02  0.51100000000E-03 0. -1.
        -11    1    3    3    0    0 -0.69830996037E+01  0.14558484742E+02  0.36547881435E+02  0.39955735455E+02  0.51100000000E-03 0.  1.
         12    1    3    3    0    0 -0.65887946094E+01 -0.13593221408E+02 -0.32948939165E+02  0.36246661567E+02  0.00000000000E+00 0. -1.
</event>
<event>
 7    1  0.5158441E-015  0.9000774E+02  0.7816164E-02  0.1186339E+00
        -11   -1    0    0    0    0  0.00000000000E+00  0.00000000000E+00  0.45593999997E+02  0.45594000000E+02  0.51100000000E-03 0.  1.
         11   -1    0    0    0    0 -0.00000000000E+00 -0.00000000000E+00 -0.45593999997E+02  0.45594000000E+02  0.51100000000E-03 0. -1.
    9900012    2    1    2    0    0  0.94675035571E+00 -0.69299294699E+00  0.12816587628E+00  0.90007744963E+02  0.90000006396E+02 0.  0.
        -12    1    1    2    0    0 -0.94675035571E+00  0.69299294699E+00 -0.12816587628E+00  0.11802550370E+01  0.00000000000E+00 0.  1.
         11    1    3    3    0    0  0.13987549347E+02  0.77004247391E+01 -0.24033392350E+02  0.28853977647E+02  0.51100000000E-03 0. -1.
        -11    1    3    3    0    0  0.16773894870E+02  0.64309279618E+01  0.21107389048E+02  0.27717183411E+02  0.51100000000E-03 0.  1.
        -12    1    3    3    0    0 -0.29814693861E+02 -0.14824345648E+02  0.30541691790E+01  0.33436583906E+02  0.00000000000E+00 0.  1.
</event>
<event>
 7    1  0.5158441E-015  0.9000776E+02  0.7816164E-02  0.1186339E+00
        -11   -1    0    0    0    0  0.00000000000E+00  0.00000000000E+00  0.45593999997E+02  0.45594000000E+02  0.51100000000E-03 0.  1.
         11   -1    0    0    0    0 -0.00000000000E+00 -0.00000000000E+00 -0.45593999997E+02  0.45594000000E+02  0.51100000000E-03 0. -1.
    9900012    2    1    2    0    0 -0.11439555994E+01 -0.28501667254E+00  0.55672805698E-01  0.90007759186E+02  0.90000020808E+02 0.  0.
        -12    1    1    2    0    0  0.11439555994E+01  0.28501667254E+00 -0.55672805698E-01  0.11802408137E+01  0.00000000000E+00 0.  1.
         11    1    3    3    0    0 -0.11456732150E+02  0.11664867172E+01 -0.39504933444E+02  0.41149206183E+02  0.51100000000E-03 0. -1.
        -11    1    3    3    0    0 -0.38269814045E+01 -0.10892828767E+02  0.13795979106E+02  0.17989678846E+02  0.51100000000E-03 0.  1.
        -12    1    3    3    0    0  0.14139757955E+02  0.94413253776E+01  0.25764627144E+02  0.30868874158E+02  0.00000000000E+00 0.  1.
</event>
<event>
 7    1  0.5158441E-015  0.9000775E+02  0.7816164E-02  0.1186339E+00
        -11   -1    0    0    0    0  0.00000000000E+00  0.00000000000E+00  0.45593999997E+02  0.45594000000E+02  0.51100000000E-03 0. -1.
         11   -1    0    0    0    0 -0.00000000000E+00 -0.00000000000E+00 -0.45593999997E+02  0.45594000000E+02  0.51100000000E-03 0.  1.
    9900012    2    1    2    0    0 -0.80441230732E+00 -0.79323568857E+00 -0.34160633378E+00  0.90007747101E+02  0.90000008563E+02 0.  0.
        -12    1    1    2    0    0  0.80441230732E+00  0.79323568857E+00  0.34160633378E+00  0.11802528988E+01  0.00000000000E+00 0.  1.
         11    1    3    3    0    0  0.23588262562E+02 -0.14085251852E+02  0.30069924556E+02  0.40730833695E+02  0.51100000000E-03 0. -1.
        -11    1    3    3    0    0  0.37737118662E+01  0.79312440656E+01 -0.22037468051E+01  0.90554974418E+01  0.51100000000E-03 0.  1.
        -12    1    3    3    0    0 -0.28166386735E+02  0.53607720981E+01 -0.28207784085E+02  0.40221415964E+02  0.00000000000E+00 0.  1.
</event>
<event>
 7    1  0.5158441E-015  0.9000775E+02  0.7816164E-02  0.1186339E+00
        -11   -1    0    0    0    0  0.00000000000E+00  0.00000000000E+00  0.45593999997E+02  0.45594000000E+02  0.51100000000E-03 0.  1.
         11   -1    0    0    0    0 -0.00000000000E+00 -0.00000000000E+00 -0.45593999997E+02  0.45594000000E+02  0.51100000000E-03 0. -1.
    9900012    2    1    2    0    0  0.97390249575E+00  0.65348432919E+00  0.13211776179E+00  0.90007753016E+02  0.90000014556E+02 0.  0.
        -12    1    1    2    0    0 -0.97390249575E+00 -0.65348432919E+00 -0.13211776179E+00  0.11802469838E+01  0.00000000000E+00 0.  1.
         11    1    3    3    0    0  0.32588596009E+01 -0.74265026695E+01  0.46122238023E+01  0.93298293908E+01  0.51100000000E-03 0. -1.
        -11    1    3    3    0    0 -0.86925142397E+01 -0.12952129491E+02  0.33409295568E+02  0.36871377690E+02  0.51100000000E-03 0.  1.
         12    1    3    3    0    0  0.64075571345E+01  0.21032116490E+02 -0.37889401609E+02  0.43806545935E+02  0.00000000000E+00 0. -1.
</event>
<event>
 7    1  0.5158441E-015  0.9000802E+02  0.7816164E-02  0.1186338E+00
        -11   -1    0    0    0    0  0.00000000000E+00  0.00000000000E+00  0.45593999997E+02  0.45594000000E+02  0.51100000000E-03 0. -1.
         11   -1    0    0    0    0 -0.00000000000E+00 -0.00000000000E+00 -0.45593999997E+02  0.45594000000E+02  0.51100000000E-03 0.  1.
    9900012    2    1    2    0    0 -0.71388748504E-01 -0.42861490730E+00  0.10970655182E+01  0.90008017016E+02  0.90000282040E+02 0.  0.
        -12    1    1    2    0    0  0.71388748504E-01  0.42861490730E+00 -0.10970655182E+01  0.11799829844E+01  0.00000000000E+00 0.  1.
         11    1    3    3    0    0 -0.11878289050E+01  0.28211078748E+02  0.20003795294E+02  0.34603868686E+02  0.51100000000E-03 0. -1.
        -11    1    3    3    0    0 -0.84271572204E+01  0.13805788940E+01  0.96501715100E+01  0.12885991903E+02  0.51100000000E-03 0.  1.
        -12    1    3    3    0    0  0.95435973769E+01 -0.30020272549E+02 -0.28556901286E+02  0.42518156426E+02  0.00000000000E+00 0.  1.
</event>
<event>
 7    1  0.5158441E-015  0.9000826E+02  0.7816164E-02  0.1186338E+00
        -11   -1    0    0    0    0  0.00000000000E+00  0.00000000000E+00  0.45593999997E+02  0.45594000000E+02  0.51100000000E-03 0. -1.
         11   -1    0    0    0    0 -0.00000000000E+00 -0.00000000000E+00 -0.45593999997E+02  0.45594000000E+02  0.51100000000E-03 0.  1.
    9900012    2    1    2    0    0 -0.25777120693E+00 -0.13029909036E+00  0.11438341652E+01  0.90008262552E+02  0.90000530816E+02 0.  0.
        -12    1    1    2    0    0  0.25777120693E+00  0.13029909036E+00 -0.11438341652E+01  0.11797374477E+01  0.00000000000E+00 0.  1.
         11    1    3    3    0    0 -0.70241095514E+01  0.84021451967E-02 -0.47287885050E+01  0.84675632016E+01  0.51100000000E-03 0. -1.
        -11    1    3    3    0    0 -0.54931857321E+01 -0.66761816220E+01 -0.36207943006E+02  0.37225819367E+02  0.51100000000E-03 0.  1.
         12    1    3    3    0    0  0.12259524077E+02  0.65374803865E+01  0.42080565676E+02  0.44314879984E+02  0.00000000000E+00 0. -1.
</event>
<event>
 7    1  0.5158441E-015  0.9000778E+02  0.7816164E-02  0.1186339E+00
        -11   -1    0    0    0    0  0.00000000000E+00  0.00000000000E+00  0.45593999997E+02  0.45594000000E+02  0.51100000000E-03 0.  1.
         11   -1    0    0    0    0 -0.00000000000E+00 -0.00000000000E+00 -0.45593999997E+02  0.45594000000E+02  0.51100000000E-03 0. -1.
    9900012    2    1    2    0    0  0.33659718823E+00  0.86372254301E+00 -0.73047741287E+00  0.90007783262E+02  0.90000045201E+02 0.  0.
        -12    1    1    2    0    0 -0.33659718823E+00 -0.86372254301E+00  0.73047741287E+00  0.11802167382E+01  0.00000000000E+00 0.  1.
         11    1    3    3    0    0 -0.48818755092E+01  0.23745738009E+02  0.25468162649E+02  0.35161343704E+02  0.51100000000E-03 0.  1.
        -11    1    3    3    0    0 -0.76538701149E+01  0.66550678454E+01  0.37922900242E+01  0.10828347965E+02  0.51100000000E-03 0. -1.
        -12    1    3    3    0    0  0.12872342812E+02 -0.29537083312E+02 -0.29990930086E+02  0.44018091593E+02  0.00000000000E+00 0.  1.
</event>
<event>
 7    1  0.5158441E-015  0.9000775E+02  0.7816164E-02  0.1186339E+00
        -11   -1    0    0    0    0  0.00000000000E+00  0.00000000000E+00  0.45593999997E+02  0.45594000000E+02  0.51100000000E-03 0. -1.
         11   -1    0    0    0    0 -0.00000000000E+00 -0.00000000000E+00 -0.45593999997E+02  0.45594000000E+02  0.51100000000E-03 0.  1.
    9900012    2    1    2    0    0  0.83960670791E+00  0.77600054833E+00 -0.29304610012E+00  0.90007749056E+02  0.90000010543E+02 0.  0.
        -12    1    1    2    0    0 -0.83960670791E+00 -0.77600054833E+00  0.29304610012E+00  0.11802509444E+01  0.00000000000E+00 0.  1.
         11    1    3    3    0    0  0.97993334719E+01 -0.26980271879E+02  0.22030444701E+02  0.36184285279E+02  0.51100000000E-03 0. -1.
        -11    1    3    3    0    0  0.73087943324E+01 -0.17722282429E+01  0.61341874328E+01  0.97050256703E+01  0.51100000000E-03 0.  1.
        -12    1    3    3    0    0 -0.16268521096E+02  0.29528500670E+02 -0.28457678234E+02  0.44118438106E+02  0.00000000000E+00 0.  1.
</event>
<event>
 7    1  0.5158441E-015  0.9000770E+02  0.7816164E-02  0.1186339E+00
        -11   -1    0    0    0    0  0.00000000000E+00  0.00000000000E+00  0.45593999997E+02  0.45594000000E+02  0.51100000000E-03 0.  1.
         11   -1    0    0    0    0 -0.00000000000E+00 -0.00000000000E+00 -0.45593999997E+02  0.45594000000E+02  0.51100000000E-03 0. -1.
    9900012    2    1    2    0    0 -0.90289816666E+00  0.14276469270E+00  0.74665776524E+00  0.90007701447E+02  0.89999962306E+02 0.  0.
        -12    1    1    2    0    0  0.90289816666E+00 -0.14276469270E+00 -0.74665776524E+00  0.11802985534E+01  0.00000000000E+00 0.  1.
         11    1    3    3    0    0 -0.13413700527E+02  0.40482609698E+00  0.28805368464E+01  0.13725477725E+02  0.51100000000E-03 0. -1.
        -11    1    3    3    0    0 -0.26889875700E+02  0.44428693553E+00  0.17669810694E+02  0.32178953001E+02  0.51100000000E-03 0.  1.
         12    1    3    3    0    0  0.39400678060E+02 -0.70634833981E+00 -0.19803689775E+02  0.44103270721E+02  0.00000000000E+00 0. -1.
</event>
<event>
 7    1  0.5158441E-015  0.9000832E+02  0.7816164E-02  0.1186338E+00
        -11   -1    0    0    0    0  0.00000000000E+00  0.00000000000E+00  0.45593999997E+02  0.45594000000E+02  0.51100000000E-03 0. -1.
         11   -1    0    0    0    0 -0.00000000000E+00 -0.00000000000E+00 -0.45593999997E+02  0.45594000000E+02  0.51100000000E-03 0.  1.
    9900012    2    1    2    0    0 -0.10630428071E+01  0.34907632390E+00 -0.37381746878E+00  0.90008316233E+02  0.90000585206E+02 0.  0.
        -12    1    1    2    0    0  0.10630428071E+01 -0.34907632390E+00  0.37381746878E+00  0.11796837668E+01  0.00000000000E+00 0.  1.
         11    1    3    3    0    0 -0.87735915115E+01 -0.30741011113E+02 -0.14258456211E+02  0.35004131842E+02  0.51100000000E-03 0. -1.
        -11    1    3    3    0    0  0.75869296580E+00 -0.58639949997E+01 -0.91596502070E+01  0.10902350414E+02  0.51100000000E-03 0.  1.
        -12    1    3    3    0    0  0.69518557386E+01  0.36954082437E+02  0.23044288949E+02  0.44101833977E+02  0.00000000000E+00 0.  1.
</event>
<event>
 7    1  0.5158441E-015  0.9000781E+02  0.7816164E-02  0.1186339E+00
        -11   -1    0    0    0    0  0.00000000000E+00  0.00000000000E+00  0.45593999997E+02  0.45594000000E+02  0.51100000000E-03 0.  1.
         11   -1    0    0    0    0 -0.00000000000E+00 -0.00000000000E+00 -0.45593999997E+02  0.45594000000E+02  0.51100000000E-03 0. -1.
    9900012    2    1    2    0    0  0.51140768459E+00 -0.37421693654E+00 -0.99562825857E+00  0.90007808590E+02  0.90000070863E+02 0.  0.
        -12    1    1    2    0    0 -0.51140768459E+00  0.37421693654E+00  0.99562825857E+00  0.11801914102E+01  0.00000000000E+00 0.  1.
         11    1    3    3    0    0  0.65737164014E+01  0.56613338375E+01  0.31472634689E+01  0.92287439963E+01  0.51100000000E-03 0. -1.
        -11    1    3    3    0    0  0.77203790795E+01  0.35647506065E+02  0.15617741137E+01  0.36507370220E+02  0.51100000000E-03 0.  1.
         12    1    3    3    0    0 -0.13782687796E+02 -0.41683056839E+02 -0.57046658411E+01  0.44271694373E+02  0.00000000000E+00 0. -1.
</event>
<event>
 7    1  0.5158441E-015  0.9000735E+02  0.7816164E-02  0.1186340E+00
        -11   -1    0    0    0    0  0.00000000000E+00  0.00000000000E+00  0.45593999997E+02  0.45594000000E+02  0.51100000000E-03 0.  1.
         11   -1    0    0    0    0 -0.00000000000E+00 -0.00000000000E+00 -0.45593999997E+02  0.45594000000E+02  0.51100000000E-03 0. -1.
    9900012    2    1    2    0    0 -0.36820206665E+00  0.74808447338E-01 -0.11192653650E+01  0.90007354404E+02  0.89999610681E+02 0.  0.
        -12    1    1    2    0    0  0.36820206665E+00 -0.74808447338E-01  0.11192653650E+01  0.11806455958E+01  0.00000000000E+00 0.  1.
         11    1    3    3    0    0  0.69758450603E-02 -0.45405191703E+00  0.72953854294E+01  0.73095048143E+01  0.51100000000E-03 0. -1.
        -11    1    3    3    0    0 -0.20581112374E+02 -0.35444664419E+02 -0.32342878151E+01  0.41114073506E+02  0.51100000000E-03 0.  1.
         12    1    3    3    0    0  0.20205934462E+02  0.35973524783E+02 -0.51803629793E+01  0.41583776084E+02  0.00000000000E+00 0. -1.
</event>
<event>
 7    1  0.5158441E-015  0.9000781E+02  0.7816164E-02  0.1186339E+00
        -11   -1    0    0    0    0  0.00000000000E+00  0.00000000000E+00  0.45593999997E+02  0.45594000000E+02  0.51100000000E-03 0.  1.
         11   -1    0    0    0    0 -0.00000000000E+00 -0.00000000000E+00 -0.45593999997E+02  0.45594000000E+02  0.51100000000E-03 0. -1.
    9900012    2    1    2    0    0 -0.81621399098E+00  0.49470991514E+00 -0.69419906673E+00  0.90007806997E+02  0.90000069250E+02 0.  0.
        -12    1    1    2    0    0  0.81621399098E+00 -0.49470991514E+00  0.69419906673E+00  0.11801930026E+01  0.00000000000E+00 0.  1.
         11    1    3    3    0    0 -0.36204867511E+02  0.19533155766E+02  0.51679313709E+01  0.41461356956E+02  0.51100000000E-03 0. -1.
        -11    1    3    3    0    0 -0.67514270945E+00 -0.11098942308E+02 -0.29515477830E+01  0.11504519660E+02  0.51100000000E-03 0.  1.
        -12    1    3    3    0    0  0.36063796230E+02 -0.79395035429E+01 -0.29105826546E+01  0.37041930382E+02  0.00000000000E+00 0.  1.
</event>
<event>
 7    1  0.5158441E-015  0.9000775E+02  0.7816164E-02  0.1186339E+00
        -11   -1    0    0    0    0  0.00000000000E+00  0.00000000000E+00  0.45593999997E+02  0.45594000000E+02  0.51100000000E-03 0. -1.
         11   -1    0    0    0    0 -0.00000000000E+00 -0.00000000000E+00 -0.45593999997E+02  0.45594000000E+02  0.51100000000E-03 0.  1.
    9900012    2    1    2    0    0  0.33137492042E+00 -0.10316672026E+01  0.46779557378E+00  0.90007754579E+02  0.90000016140E+02 0.  0.
        -12    1    1    2    0    0 -0.33137492042E+00  0.10316672026E+01 -0.46779557378E+00  0.11802454209E+01  0.00000000000E+00 0.  1.
         11    1    3    3    0    0 -0.16980482605E+02  0.31741849651E+02  0.16173263917E+02  0.39464620545E+02  0.51100000000E-03 0. -1.
        -11    1    3    3    0    0 -0.84856959949E+01 -0.39594490419E+01 -0.32441832125E+01  0.99100453183E+01  0.51100000000E-03 0.  1.
        -12    1    3    3    0    0  0.25797553521E+02 -0.28814067811E+02 -0.12461285131E+02  0.40633088716E+02  0.00000000000E+00 0.  1.
</event>
<event>
 7    1  0.5158441E-015  0.9000773E+02  0.7816164E-02  0.1186339E+00
        -11   -1    0    0    0    0  0.00000000000E+00  0.00000000000E+00  0.45593999997E+02  0.45594000000E+02  0.51100000000E-03 0. -1.
         11   -1    0    0    0    0 -0.00000000000E+00 -0.00000000000E+00 -0.45593999997E+02  0.45594000000E+02  0.51100000000E-03 0.  1.
    9900012    2    1    2    0    0 -0.53906420305E+00  0.77468268513E+00  0.70873960317E+00  0.90007730835E+02  0.89999992082E+02 0.  0.
        -12    1    1    2    0    0  0.53906420305E+00 -0.77468268513E+00 -0.70873960317E+00  0.11802691654E+01  0.00000000000E+00 0.  1.
         11    1    3    3    0    0  0.29852120879E+02  0.18082966427E+02 -0.11218483447E+02  0.36660566920E+02  0.51100000000E-03 0. -1.
        -11    1    3    3    0    0 -0.57512305943E-02  0.84130143335E+01 -0.53279596992E+01  0.99582125941E+01  0.51100000000E-03 0.  1.
        -12    1    3    3    0    0 -0.30385433852E+02 -0.25721298075E+02  0.17255182749E+02  0.43388951321E+02  0.00000000000E+00 0.  1.
</event>
<event>
 7    1  0.5215255E-015  0.9000772E+02  0.7816164E-02  0.1186339E+00
        -11   -1    0    0    0    0  0.00000000000E+00  0.00000000000E+00  0.45593999997E+02  0.45594000000E+02  0.51100000000E-03 0.  1.
         11   -1    0    0    0    0 -0.00000000000E+00 -0.00000000000E+00 -0.45593999997E+02  0.45594000000E+02  0.51100000000E-03 0. -1.
    9900012    2    1    2    0    0  0.35274251869E+00 -0.58408094782E+00 -0.96306061385E+00  0.90007718854E+02  0.89999979943E+02 0.  0.
        -12    1    1    2    0    0 -0.35274251869E+00  0.58408094782E+00  0.96306061385E+00  0.11802811462E+01  0.00000000000E+00 0.  1.
         11    1    3    3    0    0 -0.89065839060E+01  0.36024077738E+02 -0.44201095589E+01  0.37371095549E+02  0.51100000000E-03 0. -1.
        -11    1    3    3    0    0 -0.19471129112E+01  0.29136961587E+01 -0.90419380616E+01  0.96972943734E+01  0.51100000000E-03 0.  1.
        -12    1    3    3    0    0  0.11206439336E+02 -0.39521854844E+02  0.12498987007E+02  0.42939328932E+02  0.00000000000E+00 0.  1.
</event>
<event>
 7    1  0.5158441E-015  0.9000775E+02  0.7816164E-02  0.1186339E+00
        -11   -1    0    0    0    0  0.00000000000E+00  0.00000000000E+00  0.45593999997E+02  0.45594000000E+02  0.51100000000E-03 0. -1.
         11   -1    0    0    0    0 -0.00000000000E+00 -0.00000000000E+00 -0.45593999997E+02  0.45594000000E+02  0.51100000000E-03 0.  1.
    9900012    2    1    2    0    0  0.87221749519E+00  0.57222797086E+00 -0.55206688465E+00  0.90007751698E+02  0.90000013220E+02 0.  0.
        -12    1    1    2    0    0 -0.87221749519E+00 -0.57222797086E+00  0.55206688465E+00  0.11802483021E+01  0.00000000000E+00 0.  1.
         11    1    3    3    0    0 -0.63577086159E+01 -0.65390142223E+01 -0.36859939460E+01  0.98369567182E+01  0.51100000000E-03 0. -1.
        -11    1    3    3    0    0 -0.32919260662E+02 -0.12750407500E+02  0.21231651538E+01  0.35366063458E+02  0.51100000000E-03 0.  1.
         12    1    3    3    0    0  0.40149186773E+02  0.19861649693E+02  0.10107619076E+01  0.44804731522E+02  0.00000000000E+00 0. -1.
</event>
<event>
 7    1  0.5158441E-015  0.9000792E+02  0.7816164E-02  0.1186339E+00
        -11   -1    0    0    0    0  0.00000000000E+00  0.00000000000E+00  0.45593999997E+02  0.45594000000E+02  0.51100000000E-03 0. -1.
         11   -1    0    0    0    0 -0.00000000000E+00 -0.00000000000E+00 -0.45593999997E+02  0.45594000000E+02  0.51100000000E-03 0.  1.
    9900012    2    1    2    0    0 -0.71098632341E+00  0.71746492839E+00 -0.61019177291E+00  0.90007918869E+02  0.90000182598E+02 0.  0.
        -12    1    1    2    0    0  0.71098632341E+00 -0.71746492839E+00  0.61019177291E+00  0.11800811308E+01  0.00000000000E+00 0.  1.
         11    1    3    3    0    0 -0.68906001849E+01 -0.11930530698E+02 -0.37406531634E+01  0.14276218687E+02  0.51100000000E-03 0. -1.
        -11    1    3    3    0    0 -0.57113729417E+01 -0.10367572629E+02 -0.30826674606E+02  0.33021057079E+02  0.51100000000E-03 0.  1.
         12    1    3    3    0    0  0.11890986803E+02  0.23015568256E+02  0.33957135996E+02  0.42710643104E+02  0.00000000000E+00 0. -1.
</event>
<event>
 7    1  0.5158441E-015  0.9000785E+02  0.7816164E-02  0.1186339E+00
        -11   -1    0    0    0    0  0.00000000000E+00  0.00000000000E+00  0.45593999997E+02  0.45594000000E+02  0.51100000000E-03 0. -1.
         11   -1    0    0    0    0 -0.00000000000E+00 -0.00000000000E+00 -0.45593999997E+02  0.45594000000E+02  0.51100000000E-03 0.  1.
    9900012    2    1    2    0    0  0.81948387643E+00 -0.57624726587E+00  0.62381316345E+00  0.90007848485E+02  0.90000111285E+02 0.  0.
        -12    1    1    2    0    0 -0.81948387643E+00  0.57624726587E+00 -0.62381316345E+00  0.11801515149E+01  0.00000000000E+00 0.  1.
         11    1    3    3    0    0 -0.50170315208E+01  0.47992142022E+01 -0.87345312028E+01  0.11157737129E+02  0.51100000000E-03 0. -1.
        -11    1    3    3    0    0  0.59249939443E+00  0.31551739580E+02 -0.14337651274E+02  0.34661672931E+02  0.51100000000E-03 0.  1.
         12    1    3    3    0    0  0.52440160028E+01 -0.36927201048E+02  0.23695995640E+02  0.44188438425E+02  0.00000000000E+00 0. -1.
</event>
<event>
 7    1  0.5158441E-015  0.9000778E+02  0.7816164E-02  0.1186339E+00
        -11   -1    0    0    0    0  0.00000000000E+00  0.00000000000E+00  0.45593999997E+02  0.45594000000E+02  0.51100000000E-03 0.  1.
         11   -1    0    0    0    0 -0.00000000000E+00 -0.00000000000E+00 -0.45593999997E+02  0.45594000000E+02  0.51100000000E-03 0. -1.
    9900012    2    1    2    0    0  0.60802388112E+00  0.83291973548E+00 -0.57400537118E+00  0.90007775237E+02  0.90000037070E+02 0.  0.
        -12    1    1    2    0    0 -0.60802388112E+00 -0.83291973548E+00  0.57400537118E+00  0.11802247633E+01  0.00000000000E+00 0.  1.
         11    1    3    3    0    0  0.19136114164E+02 -0.25259306595E+02 -0.14655074434E+02  0.34914103767E+02  0.51100000000E-03 0. -1.
        -11    1    3    3    0    0  0.82701533651E+01 -0.68726445930E+01  0.21378572177E+01  0.10963535658E+02  0.51100000000E-03 0.  1.
        -12    1    3    3    0    0 -0.26798243648E+02  0.32964870923E+02  0.11943211845E+02  0.44130135812E+02  0.00000000000E+00 0.  1.
</event>
<event>
 7    1  0.5158441E-015  0.9000780E+02  0.7816164E-02  0.1186339E+00
        -11   -1    0    0    0    0  0.00000000000E+00  0.00000000000E+00  0.45593999997E+02  0.45594000000E+02  0.51100000000E-03 0.  1.
         11   -1    0    0    0    0 -0.00000000000E+00 -0.00000000000E+00 -0.45593999997E+02  0.45594000000E+02  0.51100000000E-03 0. -1.
    9900012    2    1    2    0    0  0.66540327491E-01 -0.53486273544E+00 -0.10499375973E+01  0.90007798865E+02  0.90000061010E+02 0.  0.
        -12    1    1    2    0    0 -0.66540327491E-01  0.53486273544E+00  0.10499375973E+01  0.11802011350E+01  0.00000000000E+00 0.  1.
         11    1    3    3    0    0  0.76044882434E+01  0.49792195788E+00  0.38063653462E+01  0.85184849082E+01  0.51100000000E-03 0. -1.
        -11    1    3    3    0    0 -0.43236414216E+02  0.58106875358E+00  0.70747249306E+01  0.43815258624E+02  0.51100000000E-03 0.  1.
         12    1    3    3    0    0  0.35698466300E+02 -0.16138534469E+01 -0.11931027874E+02  0.37674055333E+02  0.00000000000E+00 0. -1.
</event>
<event>
 7    1  0.5158441E-015  0.9000771E+02  0.7816164E-02  0.1186339E+00
        -11   -1    0    0    0    0  0.00000000000E+00  0.00000000000E+00  0.45593999997E+02  0.45594000000E+02  0.51100000000E-03 0.  1.
         11   -1    0    0    0    0 -0.00000000000E+00 -0.00000000000E+00 -0.45593999997E+02  0.45594000000E+02  0.51100000000E-03 0. -1.
    9900012    2    1    2    0    0 -0.69197670913E+00  0.89209087766E+00 -0.34412076966E+00  0.90007713169E+02  0.89999974183E+02 0.  0.
        -12    1    1    2    0    0  0.69197670913E+00 -0.89209087766E+00  0.34412076966E+00  0.11802868313E+01  0.00000000000E+00 0.  1.
         11    1    3    3    0    0 -0.36125341626E+01  0.54148064710E+01  0.67924260835E+01  0.94078469670E+01  0.51100000000E-03 0. -1.
        -11    1    3    3    0    0 -0.18799031733E+02  0.53521997604E+00  0.31094798011E+02  0.36339737453E+02  0.51100000000E-03 0.  1.
         12    1    3    3    0    0  0.21719589187E+02 -0.50579355694E+01 -0.38231344865E+02  0.44260128748E+02  0.00000000000E+00 0. -1.
</event>
<event>
 7    1  0.5158441E-015  0.9000770E+02  0.7816164E-02  0.1186339E+00
        -11   -1    0    0    0    0  0.00000000000E+00  0.00000000000E+00  0.45593999997E+02  0.45594000000E+02  0.51100000000E-03 0. -1.
         11   -1    0    0    0    0 -0.00000000000E+00 -0.00000000000E+00 -0.45593999997E+02  0.45594000000E+02  0.51100000000E-03 0.  1.
    9900012    2    1    2    0    0  0.10718368192E+00  0.80242972444E+00  0.85891293366E+00  0.90007697822E+02  0.89999958633E+02 0.  0.
        -12    1    1    2    0    0 -0.10718368192E+00 -0.80242972444E+00 -0.85891293366E+00  0.11803021782E+01  0.00000000000E+00 0.  1.
         11    1    3    3    0    0 -0.20314322674E+01  0.23723726980E+01 -0.84669975448E+01  0.90246837595E+01  0.51100000000E-03 0. -1.
        -11    1    3    3    0    0 -0.18890347907E+02 -0.21562979233E+02 -0.23574320618E+02  0.37115440322E+02  0.51100000000E-03 0.  1.
         12    1    3    3    0    0  0.21028963856E+02  0.19993036259E+02  0.32900231096E+02  0.43867573741E+02  0.00000000000E+00 0. -1.
</event>
<event>
 7    1  0.5158441E-015  0.9000764E+02  0.7816164E-02  0.1186339E+00
        -11   -1    0    0    0    0  0.00000000000E+00  0.00000000000E+00  0.45593999997E+02  0.45594000000E+02  0.51100000000E-03 0.  1.
         11   -1    0    0    0    0 -0.00000000000E+00 -0.00000000000E+00 -0.45593999997E+02  0.45594000000E+02  0.51100000000E-03 0. -1.
    9900012    2    1    2    0    0 -0.44170742755E+00 -0.74556497885E+00 -0.80142520571E+00  0.90007637789E+02  0.89999897808E+02 0.  0.
        -12    1    1    2    0    0  0.44170742755E+00  0.74556497885E+00  0.80142520571E+00  0.11803622112E+01  0.00000000000E+00 0.  1.
         11    1    3    3    0    0 -0.34120801117E+02 -0.13655959311E+02 -0.78332048603E+01  0.37577565011E+02  0.51100000000E-03 0. -1.
        -11    1    3    3    0    0 -0.32772137913E+01 -0.85526006290E+01  0.27991512897E+00  0.91632669116E+01  0.51100000000E-03 0.  1.
        -12    1    3    3    0    0  0.36956307480E+02  0.21462994961E+02  0.67518645256E+01  0.43266805866E+02  0.00000000000E+00 0.  1.
</event>
<event>
 7    1  0.5158441E-015  0.9000769E+02  0.7816164E-02  0.1186339E+00
        -11   -1    0    0    0    0  0.00000000000E+00  0.00000000000E+00  0.45593999997E+02  0.45594000000E+02  0.51100000000E-03 0. -1.
         11   -1    0    0    0    0 -0.00000000000E+00 -0.00000000000E+00 -0.45593999997E+02  0.45594000000E+02  0.51100000000E-03 0.  1.
    9900012    2    1    2    0    0  0.46030075287E+00  0.52941967043E+00  0.94919921205E+00  0.90007686010E+02  0.89999946665E+02 0.  0.
        -12    1    1    2    0    0 -0.46030075287E+00 -0.52941967043E+00 -0.94919921205E+00  0.11803139899E+01  0.00000000000E+00 0.  1.
         11    1    3    3    0    0  0.47572078385E+01  0.31598256740E+01  0.65595789914E+01  0.86973330116E+01  0.51100000000E-03 0. -1.
        -11    1    3    3    0    0  0.16406971639E+02 -0.33938374874E+02 -0.18014311611E+02  0.41779390021E+02  0.51100000000E-03 0.  1.
         12    1    3    3    0    0 -0.20703878724E+02  0.31307968871E+02  0.12403931832E+02  0.39530962977E+02  0.00000000000E+00 0. -1.
</event>
<event>
 7    1  0.5158441E-015  0.9000773E+02  0.7816164E-02  0.1186339E+00
        -11   -1    0    0    0    0  0.00000000000E+00  0.00000000000E+00  0.45593999997E+02  0.45594000000E+02  0.51100000000E-03 0. -1.
         11   -1    0    0    0    0 -0.00000000000E+00 -0.00000000000E+00 -0.45593999997E+02  0.45594000000E+02  0.51100000000E-03 0.  1.
    9900012    2    1    2    0    0  0.51773246898E+00  0.10541348199E+01  0.11743231359E+00  0.90007729914E+02  0.89999991149E+02 0.  0.
        -12    1    1    2    0    0 -0.51773246898E+00 -0.10541348199E+01 -0.11743231359E+00  0.11802700861E+01  0.00000000000E+00 0.  1.
         11    1    3    3    0    0  0.10719365848E+02  0.99789768312E+00 -0.69368682178E+01  0.12807058401E+02  0.51100000000E-03 0. -1.
        -11    1    3    3    0    0  0.21784900650E+02  0.30374790122E+01 -0.23975509827E+02  0.32536644677E+02  0.51100000000E-03 0.  1.
         12    1    3    3    0    0 -0.31986534029E+02 -0.29812418755E+01  0.31029810358E+02  0.44664026836E+02  0.00000000000E+00 0. -1.
</event>
<event>
 7    1  0.5158441E-015  0.9000774E+02  0.7816164E-02  0.1186339E+00
        -11   -1    0    0    0    0  0.00000000000E+00  0.00000000000E+00  0.45593999997E+02  0.45594000000E+02  0.51100000000E-03 0.  1.
         11   -1    0    0    0    0 -0.00000000000E+00 -0.00000000000E+00 -0.45593999997E+02  0.45594000000E+02  0.51100000000E-03 0. -1.
    9900012    2    1    2    0    0  0.42585436745E-01  0.99064083839E+00 -0.64018803173E+00  0.90007735832E+02  0.89999997145E+02 0.  0.
        -12    1    1    2    0    0 -0.42585436745E-01 -0.99064083839E+00  0.64018803173E+00  0.11802641679E+01  0.00000000000E+00 0.  1.
         11    1    3    3    0    0  0.98666131017E+01 -0.88790814181E+00 -0.69684314571E+01  0.12111873191E+02  0.51100000000E-03 0. -1.
        -11    1    3    3    0    0  0.30327246441E+02 -0.14973184391E+02  0.60006091919E+01  0.34350333891E+02  0.51100000000E-03 0.  1.
         12    1    3    3    0    0 -0.40151274106E+02  0.16851733371E+02  0.32763423344E+00  0.43545528750E+02  0.00000000000E+00 0. -1.
</event>
<event>
 7    1  0.5158441E-015  0.9000778E+02  0.7816164E-02  0.1186339E+00
        -11   -1    0    0    0    0  0.00000000000E+00  0.00000000000E+00  0.45593999997E+02  0.45594000000E+02  0.51100000000E-03 0. -1.
         11   -1    0    0    0    0 -0.00000000000E+00 -0.00000000000E+00 -0.45593999997E+02  0.45594000000E+02  0.51100000000E-03 0.  1.
    9900012    2    1    2    0    0 -0.56474188110E+00 -0.33679262518E+00  0.98008443770E+00  0.90007776221E+02  0.90000038067E+02 0.  0.
        -12    1    1    2    0    0  0.56474188110E+00  0.33679262518E+00 -0.98008443770E+00  0.11802237795E+01  0.00000000000E+00 0.  1.
         11    1    3    3    0    0  0.62622978677E+01  0.77550843327E+01 -0.76545371305E+00  0.99971809646E+01  0.51100000000E-03 0. -1.
        -11    1    3    3    0    0  0.35515143023E+02 -0.90769378267E+01 -0.54194335903E+01  0.37055181082E+02  0.51100000000E-03 0.  1.
         12    1    3    3    0    0 -0.42342182772E+02  0.98506086885E+00  0.71649717411E+01  0.42955414174E+02  0.00000000000E+00 0. -1.
</event>
<event>
 7    1  0.5158441E-015  0.9000757E+02  0.7816164E-02  0.1186339E+00
        -11   -1    0    0    0    0  0.00000000000E+00  0.00000000000E+00  0.45593999997E+02  0.45594000000E+02  0.51100000000E-03 0. -1.
         11   -1    0    0    0    0 -0.00000000000E+00 -0.00000000000E+00 -0.45593999997E+02  0.45594000000E+02  0.51100000000E-03 0.  1.
    9900012    2    1    2    0    0 -0.35158394819E+00  0.98362267897E+00  0.54980152548E+00  0.90007573567E+02  0.89999832738E+02 0.  0.
        -12    1    1    2    0    0  0.35158394819E+00 -0.98362267897E+00 -0.54980152548E+00  0.11804264334E+01  0.00000000000E+00 0.  1.
         11    1    3    3    0    0  0.15853218706E+01 -0.49859218348E+00  0.83022488085E+01  0.84669460337E+01  0.51100000000E-03 0. -1.
        -11    1    3    3    0    0  0.18089439578E+02 -0.26701351161E+02 -0.26918577393E+02  0.42009520197E+02  0.51100000000E-03 0.  1.
         12    1    3    3    0    0 -0.20026345397E+02  0.28183566024E+02  0.19166130111E+02  0.39531107335E+02  0.00000000000E+00 0. -1.
</event>
<event>
 7    1  0.5158441E-015  0.9000776E+02  0.7816164E-02  0.1186339E+00
        -11   -1    0    0    0    0  0.00000000000E+00  0.00000000000E+00  0.45593999997E+02  0.45594000000E+02  0.51100000000E-03 0.  1.
         11   -1    0    0    0    0 -0.00000000000E+00 -0.00000000000E+00 -0.45593999997E+02  0.45594000000E+02  0.51100000000E-03 0. -1.
    9900012    2    1    2    0    0  0.28742547655E+00 -0.10662695591E+00 -0.11397293879E+01  0.90007760283E+02  0.90000021919E+02 0.  0.
        -12    1    1    2    0    0 -0.28742547655E+00  0.10662695591E+00  0.11397293879E+01  0.11802397172E+01  0.00000000000E+00 0.  1.
         11    1    3    3    0    0 -0.36409505190E+02  0.15915839486E+02 -0.28454881169E+01  0.39837956996E+02  0.51100000000E-03 0. -1.
        -11    1    3    3    0    0  0.39377601782E+01  0.83555819902E+01 -0.70803520399E+00  0.92640714444E+01  0.51100000000E-03 0.  1.
        -12    1    3    3    0    0  0.32759170488E+02 -0.24378048432E+02  0.24137939329E+01  0.40905731843E+02  0.00000000000E+00 0.  1.
</event>
<event>
 7    1  0.5158441E-015  0.9000774E+02  0.7816164E-02  0.1186339E+00
        -11   -1    0    0    0    0  0.00000000000E+00  0.00000000000E+00  0.45593999997E+02  0.45594000000E+02  0.51100000000E-03 0.  1.
         11   -1    0    0    0    0 -0.00000000000E+00 -0.00000000000E+00 -0.45593999997E+02  0.45594000000E+02  0.51100000000E-03 0. -1.
    9900012    2    1    2    0    0 -0.38172282652E+00 -0.31625270841E+00 -0.10711159242E+01  0.90007738412E+02  0.89999999760E+02 0.  0.
        -12    1    1    2    0    0  0.38172282652E+00  0.31625270841E+00  0.10711159242E+01  0.11802615875E+01  0.00000000000E+00 0.  1.
         11    1    3    3    0    0  0.13785590215E+02  0.19122786765E+02 -0.28961678522E+02  0.37343035419E+02  0.51100000000E-03 0. -1.
        -11    1    3    3    0    0 -0.25427355490E+01  0.55841985898E+01 -0.62567470983E+01  0.87633134416E+01  0.51100000000E-03 0.  1.
        -12    1    3    3    0    0 -0.11624577492E+02 -0.25023238063E+02  0.34147309696E+02  0.43901389552E+02  0.00000000000E+00 0.  1.
</event>
<event>
 7    1  0.5158441E-015  0.9000778E+02  0.7816164E-02  0.1186339E+00
        -11   -1    0    0    0    0  0.00000000000E+00  0.00000000000E+00  0.45593999997E+02  0.45594000000E+02  0.51100000000E-03 0. -1.
         11   -1    0    0    0    0 -0.00000000000E+00 -0.00000000000E+00 -0.45593999997E+02  0.45594000000E+02  0.51100000000E-03 0.  1.
    9900012    2    1    2    0    0 -0.72092666551E+00 -0.59494835385E+00 -0.72057346185E+00  0.90007777599E+02  0.90000039464E+02 0.  0.
        -12    1    1    2    0    0  0.72092666551E+00  0.59494835385E+00  0.72057346185E+00  0.11802224005E+01  0.00000000000E+00 0.  1.
         11    1    3    3    0    0  0.32864377413E+02 -0.14989759671E+02 -0.22277749075E+02  0.42438877246E+02  0.51100000000E-03 0. -1.
        -11    1    3    3    0    0 -0.33378443541E+01 -0.52009172523E+01  0.47916303188E+01  0.78198763782E+01  0.51100000000E-03 0.  1.
        -12    1    3    3    0    0 -0.30247459725E+02  0.19595728569E+02  0.16765545295E+02  0.39749023975E+02  0.00000000000E+00 0.  1.
</event>
