<event>
 7    1  0.4008281E-015  0.9000854E+02  0.7816164E-02  0.1186337E+00
        -11   -1    0    0    0    0  0.00000000000E+00  0.00000000000E+00  0.45593999997E+02  0.45594000000E+02  0.51100000000E-03 0.  1.
         11   -1    0    0    0    0 -0.00000000000E+00 -0.00000000000E+00 -0.45593999997E+02  0.45594000000E+02  0.51100000000E-03 0. -1.
    9900012    2    1    2    0    0 -0.25726671109E+00  0.11113677328E+01 -0.29968625657E+00  0.90008535609E+02  0.90000807475E+02 0.  0.
         12    1    1    2    0    0  0.25726671109E+00 -0.11113677328E+01  0.29968625657E+00  0.11794643914E+01  0.00000000000E+00 0. -1.
         11    1    3    3    0    0  0.17295228158E+02  0.25686162881E+02 -0.20781686090E+02  0.37293194521E+02  0.51100000000E-03 0. -1.
        -11    1    3    3    0    0  0.79637380409E+01 -0.23505080009E+01 -0.55802356686E+01  0.10004251188E+02  0.51100000000E-03 0.  1.
        -12    1    3    3    0    0 -0.25516232910E+02 -0.22224287147E+02  0.26062235502E+02  0.42711089900E+02  0.00000000000E+00 0.  1.
</event>
<event>
 7    1  0.4739018E-015  0.9000782E+02  0.7816164E-02  0.1186339E+00
        -11   -1    0    0    0    0  0.00000000000E+00  0.00000000000E+00  0.45593999997E+02  0.45594000000E+02  0.51100000000E-03 0.  1.
         11   -1    0    0    0    0 -0.00000000000E+00 -0.00000000000E+00 -0.45593999997E+02  0.45594000000E+02  0.51100000000E-03 0. -1.
    9900012    2    1    2    0    0 -0.79921697660E+00 -0.61441249197E+00  0.61365814264E+00  0.90007819166E+02  0.90000081578E+02 0.  0.
         12    1    1    2    0    0  0.79921697660E+00  0.61441249197E+00 -0.61365814264E+00  0.11801808344E+01  0.00000000000E+00 0. -1.
         11    1    3    3    0    0  0.73475379601E+01 -0.18360154976E+02 -0.33640377443E+02  0.39022514009E+02  0.51100000000E-03 0. -1.
        -11    1    3    3    0    0 -0.38199733192E+01  0.58719806844E+01 -0.57309521038E+01  0.90507549738E+01  0.51100000000E-03 0.  1.
        -12    1    3    3    0    0 -0.43267816175E+01  0.11873761800E+02  0.39984987690E+02  0.41934550182E+02  0.00000000000E+00 0.  1.
</event>
<event>
 7    1  0.4008281E-015  0.9000802E+02  0.7816164E-02  0.1186338E+00
        -11   -1    0    0    0    0  0.00000000000E+00  0.00000000000E+00  0.45593999997E+02  0.45594000000E+02  0.51100000000E-03 0. -1.
         11   -1    0    0    0    0 -0.00000000000E+00 -0.00000000000E+00 -0.45593999997E+02  0.45594000000E+02  0.51100000000E-03 0.  1.
    9900012    2    1    2    0    0  0.48606112705E-03 -0.11794967048E+01 -0.33713576976E-01  0.90008021476E+02  0.90000286559E+02 0.  0.
         12    1    1    2    0    0 -0.48606112706E-03  0.11794967048E+01  0.33713576976E-01  0.11799785244E+01  0.00000000000E+00 0. -1.
         11    1    3    3    0    0  0.26592671730E+02 -0.43444826894E+01  0.25861832553E+02  0.37348080310E+02  0.51100000000E-03 0. -1.
        -11    1    3    3    0    0 -0.28141098616E+01  0.10122720716E+02  0.61344785975E+01  0.12166368272E+02  0.51100000000E-03 0.  1.
        -12    1    3    3    0    0 -0.23778075807E+02 -0.69577347310E+01 -0.32030024727E+02  0.40493572894E+02  0.00000000000E+00 0.  1.
</event>
<event>
 7    1  0.4008281E-015  0.9000770E+02  0.7816164E-02  0.1186339E+00
        -11   -1    0    0    0    0  0.00000000000E+00  0.00000000000E+00  0.45593999997E+02  0.45594000000E+02  0.51100000000E-03 0.  1.
         11   -1    0    0    0    0 -0.00000000000E+00 -0.00000000000E+00 -0.45593999997E+02  0.45594000000E+02  0.51100000000E-03 0. -1.
    9900012    2    1    2    0    0 -0.41427224102E+00 -0.10882523755E+01 -0.19287975689E+00  0.90007696089E+02  0.89999956877E+02 0.  0.
         12    1    1    2    0    0  0.41427224102E+00  0.10882523755E+01  0.19287975689E+00  0.11803039113E+01  0.00000000000E+00 0. -1.
         11    1    3    3    0    0 -0.23188560160E+01 -0.78976075369E+01 -0.32385602317E+01  0.88452004310E+01  0.51100000000E-03 0. -1.
        -11    1    3    3    0    0 -0.31006759911E+02 -0.20970091681E+02 -0.35184490252E+01  0.37597119426E+02  0.51100000000E-03 0.  1.
         12    1    3    3    0    0  0.32911343686E+02  0.27779446843E+02  0.65641295000E+01  0.43565376232E+02  0.00000000000E+00 0. -1.
</event>
<event>
 7    1  0.4008281E-015  0.9000792E+02  0.7816164E-02  0.1186339E+00
        -11   -1    0    0    0    0  0.00000000000E+00  0.00000000000E+00  0.45593999997E+02  0.45594000000E+02  0.51100000000E-03 0.  1.
         11   -1    0    0    0    0 -0.00000000000E+00 -0.00000000000E+00 -0.45593999997E+02  0.45594000000E+02  0.51100000000E-03 0. -1.
    9900012    2    1    2    0    0 -0.19085203105E+00 -0.11398682977E+01  0.23847145214E+00  0.90007918279E+02  0.90000182001E+02 0.  0.
         12    1    1    2    0    0  0.19085203105E+00  0.11398682977E+01 -0.23847145214E+00  0.11800817206E+01  0.00000000000E+00 0. -1.
         11    1    3    3    0    0 -0.10039868045E+02 -0.54980120499E+01 -0.40897039008E+02  0.42468751886E+02  0.51100000000E-03 0. -1.
        -11    1    3    3    0    0 -0.32896240839E+01 -0.61346163215E+01  0.10624482660E+02  0.12701762716E+02  0.51100000000E-03 0.  1.
        -12    1    3    3    0    0  0.13138640098E+02  0.10492760074E+02  0.30511027800E+02  0.34837403678E+02  0.00000000000E+00 0.  1.
</event>
<event>
 7    1  0.4008281E-015  0.9000772E+02  0.7816164E-02  0.1186339E+00
        -11   -1    0    0    0    0  0.00000000000E+00  0.00000000000E+00  0.45593999997E+02  0.45594000000E+02  0.51100000000E-03 0. -1.
         11   -1    0    0    0    0 -0.00000000000E+00 -0.00000000000E+00 -0.45593999997E+02  0.45594000000E+02  0.51100000000E-03 0.  1.
    9900012    2    1    2    0    0 -0.72047657393E+00  0.57921250090E+00  0.73381308270E+00  0.90007722382E+02  0.89999983518E+02 0.  0.
         12    1    1    2    0    0  0.72047657393E+00 -0.57921250090E+00 -0.73381308270E+00  0.11802776178E+01  0.00000000000E+00 0. -1.
         11    1    3    3    0    0  0.16623237688E+02 -0.58487567844E+01  0.35318589337E+02  0.39470783374E+02  0.51100000000E-03 0. -1.
        -11    1    3    3    0    0 -0.47234079202E+01 -0.31507595961E+01  0.52088621035E+01  0.77052003925E+01  0.51100000000E-03 0.  1.
        -12    1    3    3    0    0 -0.12620306342E+02  0.95787288814E+01 -0.39793638357E+02  0.42831738616E+02  0.00000000000E+00 0.  1.
</event>
<event>
 7    1  0.4008281E-015  0.9000778E+02  0.7816164E-02  0.1186339E+00
        -11   -1    0    0    0    0  0.00000000000E+00  0.00000000000E+00  0.45593999997E+02  0.45594000000E+02  0.51100000000E-03 0.  1.
         11   -1    0    0    0    0 -0.00000000000E+00 -0.00000000000E+00 -0.45593999997E+02  0.45594000000E+02  0.51100000000E-03 0. -1.
    9900012    2    1    2    0    0 -0.55398055799E+00 -0.96297849350E+00  0.39836539627E+00  0.90007780941E+02  0.90000042850E+02 0.  0.
         12    1    1    2    0    0  0.55398055799E+00  0.96297849350E+00 -0.39836539627E+00  0.11802190587E+01  0.00000000000E+00 0. -1.
         11    1    3    3    0    0 -0.37959243178E+01 -0.56307574640E+01 -0.38299151189E+02  0.38896522379E+02  0.51100000000E-03 0. -1.
        -11    1    3    3    0    0 -0.52617029327E+01 -0.89478159235E+01  0.13598102080E+01  0.10468906897E+02  0.51100000000E-03 0.  1.
        -12    1    3    3    0    0  0.85036466924E+01  0.13615594894E+02  0.37337706378E+02  0.40642351666E+02  0.00000000000E+00 0.  1.
</event>
<event>
 7    1  0.4008281E-015  0.9000760E+02  0.7816164E-02  0.1186339E+00
        -11   -1    0    0    0    0  0.00000000000E+00  0.00000000000E+00  0.45593999997E+02  0.45594000000E+02  0.51100000000E-03 0. -1.
         11   -1    0    0    0    0 -0.00000000000E+00 -0.00000000000E+00 -0.45593999997E+02  0.45594000000E+02  0.51100000000E-03 0.  1.
    9900012    2    1    2    0    0 -0.43268544750E+00  0.94716630631E+00 -0.55588619701E+00  0.90007597453E+02  0.89999856940E+02 0.  0.
         12    1    1    2    0    0  0.43268544750E+00 -0.94716630631E+00  0.55588619701E+00  0.11804025467E+01  0.00000000000E+00 0. -1.
         11    1    3    3    0    0  0.68297681474E+01 -0.12935088654E+01  0.10805551922E+02  0.12848301473E+02  0.51100000000E-03 0. -1.
        -11    1    3    3    0    0  0.24775949987E+02 -0.19660973473E+02 -0.19971381790E+02  0.37406652704E+02  0.51100000000E-03 0.  1.
         12    1    3    3    0    0 -0.32038403582E+02  0.21901648645E+02  0.86099436707E+01  0.39752643276E+02  0.00000000000E+00 0. -1.
</event>
<event>
 7    1  0.4008281E-015  0.9000775E+02  0.7816164E-02  0.1186339E+00
        -11   -1    0    0    0    0  0.00000000000E+00  0.00000000000E+00  0.45593999997E+02  0.45594000000E+02  0.51100000000E-03 0. -1.
         11   -1    0    0    0    0 -0.00000000000E+00 -0.00000000000E+00 -0.45593999997E+02  0.45594000000E+02  0.51100000000E-03 0.  1.
    9900012    2    1    2    0    0  0.11664773782E+01  0.17868172982E+00  0.20117917886E-01  0.90007745212E+02  0.90000006649E+02 0.  0.
         12    1    1    2    0    0 -0.11664773782E+01 -0.17868172982E+00 -0.20117917886E-01  0.11802547882E+01  0.00000000000E+00 0. -1.
         11    1    3    3    0    0 -0.46878025281E+01 -0.56957979625E+01 -0.37445889430E+01  0.82728201712E+01  0.51100000000E-03 0. -1.
        -11    1    3    3    0    0 -0.86079781246E+01 -0.23181167420E+02 -0.27281946040E+02  0.36820760317E+02  0.51100000000E-03 0.  1.
         12    1    3    3    0    0  0.14462258031E+02  0.29055647113E+02  0.31046652900E+02  0.44914164723E+02  0.00000000000E+00 0. -1.
</event>
<event>
 7    1  0.4008281E-015  0.9000774E+02  0.7816164E-02  0.1186339E+00
        -11   -1    0    0    0    0  0.00000000000E+00  0.00000000000E+00  0.45593999997E+02  0.45594000000E+02  0.51100000000E-03 0.  1.
         11   -1    0    0    0    0 -0.00000000000E+00 -0.00000000000E+00 -0.45593999997E+02  0.45594000000E+02  0.51100000000E-03 0. -1.
    9900012    2    1    2    0    0 -0.15107920137E-01  0.47654674215E+00  0.10796707878E+01  0.90007739835E+02  0.90000001201E+02 0.  0.
         12    1    1    2    0    0  0.15107920137E-01 -0.47654674215E+00 -0.10796707878E+01  0.11802601648E+01  0.00000000000E+00 0. -1.
         11    1    3    3    0    0  0.52276789939E+01  0.29520679738E+02  0.22141887326E+02  0.37270126569E+02  0.51100000000E-03 0. -1.
        -11    1    3    3    0    0  0.97981268385E+01  0.40595213855E+01  0.21737338714E+00  0.10608027850E+02  0.51100000000E-03 0.  1.
        -12    1    3    3    0    0 -0.15040913753E+02 -0.33103654382E+02 -0.21279589925E+02  0.42129585416E+02  0.00000000000E+00 0.  1.
</event>
<event>
 7    1  0.4008281E-015  0.9000765E+02  0.7816164E-02  0.1186339E+00
        -11   -1    0    0    0    0  0.00000000000E+00  0.00000000000E+00  0.45593999997E+02  0.45594000000E+02  0.51100000000E-03 0.  1.
         11   -1    0    0    0    0 -0.00000000000E+00 -0.00000000000E+00 -0.45593999997E+02  0.45594000000E+02  0.51100000000E-03 0. -1.
    9900012    2    1    2    0    0  0.42932828536E-01 -0.38018134368E+00  0.11166224061E+01  0.90007649764E+02  0.89999909941E+02 0.  0.
         12    1    1    2    0    0 -0.42932828536E-01  0.38018134368E+00 -0.11166224061E+01  0.11803502360E+01  0.00000000000E+00 0. -1.
         11    1    3    3    0    0 -0.84217332091E+01  0.40256455603E+01  0.88275244259E+00  0.93760687156E+01  0.51100000000E-03 0. -1.
        -11    1    3    3    0    0 -0.74555685029E+01  0.36197609791E+02  0.16674186999E+01  0.36995036716E+02  0.51100000000E-03 0.  1.
         12    1    3    3    0    0  0.15920234541E+02 -0.40603436695E+02 -0.14335487364E+01  0.43636544332E+02  0.00000000000E+00 0. -1.
</event>
<event>
 7    1  0.4008281E-015  0.9000765E+02  0.7816164E-02  0.1186339E+00
        -11   -1    0    0    0    0  0.00000000000E+00  0.00000000000E+00  0.45593999997E+02  0.45594000000E+02  0.51100000000E-03 0. -1.
         11   -1    0    0    0    0 -0.00000000000E+00 -0.00000000000E+00 -0.45593999997E+02  0.45594000000E+02  0.51100000000E-03 0.  1.
    9900012    2    1    2    0    0  0.82882299321E+00  0.79605335248E+00  0.26939286847E+00  0.90007652165E+02  0.89999912374E+02 0.  0.
         12    1    1    2    0    0 -0.82882299321E+00 -0.79605335248E+00 -0.26939286847E+00  0.11803478350E+01  0.00000000000E+00 0. -1.
         11    1    3    3    0    0  0.72981491865E+01  0.23166307344E+01  0.68841527392E+01  0.10296665417E+02  0.51100000000E-03 0. -1.
        -11    1    3    3    0    0  0.17683855136E+02  0.76641824789E+01 -0.35844015359E+02  0.40697074378E+02  0.51100000000E-03 0.  1.
         12    1    3    3    0    0 -0.24153181330E+02 -0.91847598608E+01  0.29229255489E+02  0.39013912371E+02  0.00000000000E+00 0. -1.
</event>
<event>
 7    1  0.4008281E-015  0.9000772E+02  0.7816164E-02  0.1186339E+00
        -11   -1    0    0    0    0  0.00000000000E+00  0.00000000000E+00  0.45593999997E+02  0.45594000000E+02  0.51100000000E-03 0.  1.
         11   -1    0    0    0    0 -0.00000000000E+00 -0.00000000000E+00 -0.45593999997E+02  0.45594000000E+02  0.51100000000E-03 0. -1.
    9900012    2    1    2    0    0  0.14188473691E+00  0.10716319973E+01  0.47385572068E+00  0.90007717974E+02  0.89999979052E+02 0.  0.
         12    1    1    2    0    0 -0.14188473691E+00 -0.10716319973E+01 -0.47385572068E+00  0.11802820257E+01  0.00000000000E+00 0. -1.
         11    1    3    3    0    0 -0.39733520133E+01 -0.62410554717E+01  0.45712326610E+01  0.86968079158E+01  0.51100000000E-03 0. -1.
        -11    1    3    3    0    0  0.40937498606E+02  0.13359553286E+02  0.35907456086E+01  0.43211687197E+02  0.51100000000E-03 0.  1.
         12    1    3    3    0    0 -0.36822261856E+02 -0.60468658165E+01 -0.76881225489E+01  0.38099222862E+02  0.00000000000E+00 0. -1.
</event>
<event>
 7    1  0.4008281E-015  0.9000829E+02  0.7816164E-02  0.1186338E+00
        -11   -1    0    0    0    0  0.00000000000E+00  0.00000000000E+00  0.45593999997E+02  0.45594000000E+02  0.51100000000E-03 0.  1.
         11   -1    0    0    0    0 -0.00000000000E+00 -0.00000000000E+00 -0.45593999997E+02  0.45594000000E+02  0.51100000000E-03 0. -1.
    9900012    2    1    2    0    0 -0.15102492704E+00  0.10646790326E+01  0.48515323035E+00  0.90008286633E+02  0.90000555215E+02 0.  0.
         12    1    1    2    0    0  0.15102492704E+00 -0.10646790326E+01 -0.48515323035E+00  0.11797133669E+01  0.00000000000E+00 0. -1.
         11    1    3    3    0    0  0.74372328292E+01  0.11922682264E+01 -0.79912545423E+01  0.10981533823E+02  0.51100000000E-03 0. -1.
        -11    1    3    3    0    0  0.30231643118E+02  0.17372649065E+02  0.12772064910E+02  0.37133365367E+02  0.51100000000E-03 0.  1.
         12    1    3    3    0    0 -0.37819900874E+02 -0.17500238259E+02 -0.42956571369E+01  0.41893387444E+02  0.00000000000E+00 0. -1.
</event>
<event>
 7    1  0.4008281E-015  0.9000777E+02  0.7816164E-02  0.1186339E+00
        -11   -1    0    0    0    0  0.00000000000E+00  0.00000000000E+00  0.45593999997E+02  0.45594000000E+02  0.51100000000E-03 0.  1.
         11   -1    0    0    0    0 -0.00000000000E+00 -0.00000000000E+00 -0.45593999997E+02  0.45594000000E+02  0.51100000000E-03 0. -1.
    9900012    2    1    2    0    0  0.19546329293E+00 -0.10886280514E+01  0.41186054037E+00  0.90007768651E+02  0.90000030397E+02 0.  0.
         12    1    1    2    0    0 -0.19546329293E+00  0.10886280514E+01 -0.41186054037E+00  0.11802313493E+01  0.00000000000E+00 0. -1.
         11    1    3    3    0    0  0.97703038443E+01  0.26780566394E+01 -0.13160372491E+02  0.16608017008E+02  0.51100000000E-03 0. -1.
        -11    1    3    3    0    0  0.71821579699E+01 -0.34408693344E+02 -0.18994371590E+01  0.35201554405E+02  0.51100000000E-03 0.  1.
        -12    1    3    3    0    0 -0.16756998521E+02  0.30642008653E+02  0.15471670190E+02  0.38198197238E+02  0.00000000000E+00 0.  1.
</event>
<event>
 7    1  0.4008281E-015  0.9000772E+02  0.7816164E-02  0.1186339E+00
        -11   -1    0    0    0    0  0.00000000000E+00  0.00000000000E+00  0.45593999997E+02  0.45594000000E+02  0.51100000000E-03 0. -1.
         11   -1    0    0    0    0 -0.00000000000E+00 -0.00000000000E+00 -0.45593999997E+02  0.45594000000E+02  0.51100000000E-03 0.  1.
    9900012    2    1    2    0    0 -0.93392986768E+00 -0.57250985622E+00 -0.43939083665E+00  0.90007721711E+02  0.89999982837E+02 0.  0.
         12    1    1    2    0    0  0.93392986768E+00  0.57250985622E+00  0.43939083665E+00  0.11802782894E+01  0.00000000000E+00 0. -1.
         11    1    3    3    0    0  0.74885656637E+00 -0.21671670162E+02  0.72334234537E+01  0.22859232027E+02  0.51100000000E-03 0. -1.
        -11    1    3    3    0    0 -0.45028234102E+01  0.17759987975E+02 -0.34983127046E+02  0.39490654207E+02  0.51100000000E-03 0.  1.
         12    1    3    3    0    0  0.28200369762E+01  0.33391723307E+01  0.27310312756E+02  0.27657835476E+02  0.00000000000E+00 0. -1.
</event>
<event>
 7    1  0.4008281E-015  0.9000760E+02  0.7816164E-02  0.1186339E+00
        -11   -1    0    0    0    0  0.00000000000E+00  0.00000000000E+00  0.45593999997E+02  0.45594000000E+02  0.51100000000E-03 0. -1.
         11   -1    0    0    0    0 -0.00000000000E+00 -0.00000000000E+00 -0.45593999997E+02  0.45594000000E+02  0.51100000000E-03 0.  1.
    9900012    2    1    2    0    0 -0.11143744103E+01  0.37039922876E+00 -0.11970102966E+00  0.90007595725E+02  0.89999855189E+02 0.  0.
         12    1    1    2    0    0  0.11143744103E+01 -0.37039922876E+00  0.11970102966E+00  0.11804042746E+01  0.00000000000E+00 0. -1.
         11    1    3    3    0    0 -0.22752228907E+02  0.23332669538E+02 -0.18371975627E+02  0.37411320168E+02  0.51100000000E-03 0. -1.
        -11    1    3    3    0    0 -0.57311983632E+01  0.67009964000E+01  0.17348140495E+01  0.89866327108E+01  0.51100000000E-03 0.  1.
        -12    1    3    3    0    0  0.27369052860E+02 -0.29663266709E+02  0.16517460548E+02  0.43609642847E+02  0.00000000000E+00 0.  1.
</event>
<event>
 7    1  0.4008281E-015  0.9000785E+02  0.7816164E-02  0.1186339E+00
        -11   -1    0    0    0    0  0.00000000000E+00  0.00000000000E+00  0.45593999997E+02  0.45594000000E+02  0.51100000000E-03 0.  1.
         11   -1    0    0    0    0 -0.00000000000E+00 -0.00000000000E+00 -0.45593999997E+02  0.45594000000E+02  0.51100000000E-03 0. -1.
    9900012    2    1    2    0    0 -0.54470827280E+00  0.67998853050E+00  0.79603015838E+00  0.90007849367E+02  0.90000112178E+02 0.  0.
         12    1    1    2    0    0  0.54470827280E+00 -0.67998853050E+00 -0.79603015838E+00  0.11801506332E+01  0.00000000000E+00 0. -1.
         11    1    3    3    0    0  0.16003109278E+02 -0.18764670595E+01  0.63870227507E+00  0.16125401578E+02  0.51100000000E-03 0. -1.
        -11    1    3    3    0    0  0.24121248267E+02  0.10855594666E+02  0.14253050658E+02  0.30047096479E+02  0.51100000000E-03 0.  1.
         12    1    3    3    0    0 -0.40669065818E+02 -0.82991390762E+01 -0.14095722774E+02  0.43835351310E+02  0.00000000000E+00 0. -1.
</event>
<event>
 7    1  0.4008281E-015  0.9000769E+02  0.7816164E-02  0.1186339E+00
        -11   -1    0    0    0    0  0.00000000000E+00  0.00000000000E+00  0.45593999997E+02  0.45594000000E+02  0.51100000000E-03 0. -1.
         11   -1    0    0    0    0 -0.00000000000E+00 -0.00000000000E+00 -0.45593999997E+02  0.45594000000E+02  0.51100000000E-03 0.  1.
    9900012    2    1    2    0    0  0.80691320119E+00 -0.28571909694E-01 -0.86093407337E+00  0.90007689555E+02  0.89999950257E+02 0.  0.
         12    1    1    2    0    0 -0.80691320119E+00  0.28571909694E-01  0.86093407337E+00  0.11803104452E+01  0.00000000000E+00 0. -1.
         11    1    3    3    0    0  0.58189554246E+01 -0.96300990476E+01  0.22219105445E+02  0.24905575620E+02  0.51100000000E-03 0. -1.
        -11    1    3    3    0    0 -0.20227275736E+02 -0.18166831375E+02 -0.24219169360E+01  0.27295459839E+02  0.51100000000E-03 0.  1.
         12    1    3    3    0    0  0.15215233513E+02  0.27768358512E+02 -0.20658122583E+02  0.37806654096E+02  0.00000000000E+00 0. -1.
</event>
<event>
 7    1  0.4008281E-015  0.9000778E+02  0.7816164E-02  0.1186339E+00
        -11   -1    0    0    0    0  0.00000000000E+00  0.00000000000E+00  0.45593999997E+02  0.45594000000E+02  0.51100000000E-03 0.  1.
         11   -1    0    0    0    0 -0.00000000000E+00 -0.00000000000E+00 -0.45593999997E+02  0.45594000000E+02  0.51100000000E-03 0. -1.
    9900012    2    1    2    0    0 -0.79377419408E-01  0.11774952227E+01 -0.10839652395E-01  0.90007782532E+02  0.90000044461E+02 0.  0.
         12    1    1    2    0    0  0.79377419408E-01 -0.11774952227E+01  0.10839652395E-01  0.11802174682E+01  0.00000000000E+00 0. -1.
         11    1    3    3    0    0 -0.91986862176E+00  0.22363575855E+01  0.11907896149E+02  0.12150944180E+02  0.51100000000E-03 0. -1.
        -11    1    3    3    0    0 -0.20332769217E+02 -0.31830711456E+02  0.24168360823E+01  0.37847810937E+02  0.51100000000E-03 0.  1.
         12    1    3    3    0    0  0.21173260419E+02  0.30771849093E+02 -0.14335571883E+02  0.40009027414E+02  0.00000000000E+00 0. -1.
</event>
<event>
 7    1  0.4008281E-015  0.9000690E+02  0.7816164E-02  0.1186341E+00
        -11   -1    0    0    0    0  0.00000000000E+00  0.00000000000E+00  0.45593999997E+02  0.45594000000E+02  0.51100000000E-03 0. -1.
         11   -1    0    0    0    0 -0.00000000000E+00 -0.00000000000E+00 -0.45593999997E+02  0.45594000000E+02  0.51100000000E-03 0.  1.
    9900012    2    1    2    0    0  0.90098168011E+00 -0.75790772953E+00  0.93874619255E-01  0.90006896889E+02  0.89999147124E+02 0.  0.
         12    1    1    2    0    0 -0.90098168011E+00  0.75790772953E+00 -0.93874619255E-01  0.11811031109E+01  0.00000000000E+00 0. -1.
         11    1    3    3    0    0 -0.95415490622E+01  0.17063358439E+01  0.34333721474E+01  0.10283033846E+02  0.51100000000E-03 0. -1.
        -11    1    3    3    0    0 -0.15143465026E+02  0.12202169672E+02  0.29659464719E+02  0.35466904649E+02  0.51100000000E-03 0.  1.
         12    1    3    3    0    0  0.25585995768E+02 -0.14666413245E+02 -0.32998962247E+02  0.44256958394E+02  0.00000000000E+00 0. -1.
</event>
<event>
 7    1  0.4008281E-015  0.9000775E+02  0.7816164E-02  0.1186339E+00
        -11   -1    0    0    0    0  0.00000000000E+00  0.00000000000E+00  0.45593999997E+02  0.45594000000E+02  0.51100000000E-03 0.  1.
         11   -1    0    0    0    0 -0.00000000000E+00 -0.00000000000E+00 -0.45593999997E+02  0.45594000000E+02  0.51100000000E-03 0. -1.
    9900012    2    1    2    0    0 -0.30075480269E+00 -0.58650338411E+00  0.97906093711E+00  0.90007745795E+02  0.90000007239E+02 0.  0.
         12    1    1    2    0    0  0.30075480269E+00  0.58650338411E+00 -0.97906093711E+00  0.11802542055E+01  0.00000000000E+00 0. -1.
         11    1    3    3    0    0  0.28044523684E+02  0.11685359386E+02 -0.17905302477E+02  0.35265319929E+02  0.51100000000E-03 0. -1.
        -11    1    3    3    0    0  0.10117946435E+02  0.14198131879E+01  0.63696030434E+01  0.12039956509E+02  0.51100000000E-03 0.  1.
        -12    1    3    3    0    0 -0.38463224922E+02 -0.13691675958E+02  0.12514760371E+02  0.42702469356E+02  0.00000000000E+00 0.  1.
</event>
<event>
 7    1  0.4008281E-015  0.9000810E+02  0.7816164E-02  0.1186338E+00
        -11   -1    0    0    0    0  0.00000000000E+00  0.00000000000E+00  0.45593999997E+02  0.45594000000E+02  0.51100000000E-03 0. -1.
         11   -1    0    0    0    0 -0.00000000000E+00 -0.00000000000E+00 -0.45593999997E+02  0.45594000000E+02  0.51100000000E-03 0.  1.
    9900012    2    1    2    0    0  0.36029898396E+00 -0.77064832934E+00  0.81759439436E+00  0.90008095428E+02  0.90000361487E+02 0.  0.
         12    1    1    2    0    0 -0.36029898396E+00  0.77064832934E+00 -0.81759439436E+00  0.11799045720E+01  0.00000000000E+00 0. -1.
         11    1    3    3    0    0 -0.17740970347E+02  0.35721875485E+02  0.12551920833E+02  0.41813217215E+02  0.51100000000E-03 0. -1.
        -11    1    3    3    0    0 -0.21055721919E+01 -0.87149648378E+01 -0.10521886412E+02  0.13823680419E+02  0.51100000000E-03 0.  1.
        -12    1    3    3    0    0  0.20206841523E+02 -0.27777558976E+02 -0.12124400259E+01  0.34371197795E+02  0.00000000000E+00 0.  1.
</event>
<event>
 7    1  0.4008281E-015  0.9000779E+02  0.7816164E-02  0.1186339E+00
        -11   -1    0    0    0    0  0.00000000000E+00  0.00000000000E+00  0.45593999997E+02  0.45594000000E+02  0.51100000000E-03 0.  1.
         11   -1    0    0    0    0 -0.00000000000E+00 -0.00000000000E+00 -0.45593999997E+02  0.45594000000E+02  0.51100000000E-03 0. -1.
    9900012    2    1    2    0    0  0.26594243497E+00  0.90980462537E+00  0.70316222016E+00  0.90007785213E+02  0.90000047178E+02 0.  0.
         12    1    1    2    0    0 -0.26594243497E+00 -0.90980462537E+00 -0.70316222016E+00  0.11802147868E+01  0.00000000000E+00 0. -1.
         11    1    3    3    0    0 -0.53081767429E+01  0.36593157403E+00  0.69192728147E+01  0.87285154979E+01  0.51100000000E-03 0. -1.
        -11    1    3    3    0    0 -0.20898143531E+02  0.33051032729E+02 -0.22193050961E+01  0.39166675668E+02  0.51100000000E-03 0.  1.
         12    1    3    3    0    0  0.26472262709E+02 -0.32507159678E+02 -0.39968054985E+01  0.42112594048E+02  0.00000000000E+00 0. -1.
</event>
<event>
 7    1  0.4008281E-015  0.9000768E+02  0.7816164E-02  0.1186339E+00
        -11   -1    0    0    0    0  0.00000000000E+00  0.00000000000E+00  0.45593999997E+02  0.45594000000E+02  0.51100000000E-03 0. -1.
         11   -1    0    0    0    0 -0.00000000000E+00 -0.00000000000E+00 -0.45593999997E+02  0.45594000000E+02  0.51100000000E-03 0.  1.
    9900012    2    1    2    0    0 -0.78727327385E+00  0.79084650798E+00  0.38459067779E+00  0.90007683349E+02  0.89999943969E+02 0.  0.
         12    1    1    2    0    0  0.78727327385E+00 -0.79084650798E+00 -0.38459067779E+00  0.11803166509E+01  0.00000000000E+00 0. -1.
         11    1    3    3    0    0 -0.60035165564E+01 -0.12466888990E+02 -0.10134811205E+02  0.17151674279E+02  0.51100000000E-03 0. -1.
        -11    1    3    3    0    0  0.13014523986E+02 -0.22762316332E+02 -0.12867438444E+02  0.29207393786E+02  0.51100000000E-03 0.  1.
         12    1    3    3    0    0 -0.77982807040E+01  0.36020051830E+02  0.23386840326E+02  0.43648615285E+02  0.00000000000E+00 0. -1.
</event>
<event>
 7    1  0.4008281E-015  0.9000773E+02  0.7816164E-02  0.1186339E+00
        -11   -1    0    0    0    0  0.00000000000E+00  0.00000000000E+00  0.45593999997E+02  0.45594000000E+02  0.51100000000E-03 0.  1.
         11   -1    0    0    0    0 -0.00000000000E+00 -0.00000000000E+00 -0.45593999997E+02  0.45594000000E+02  0.51100000000E-03 0. -1.
    9900012    2    1    2    0    0 -0.97361216379E+00 -0.55500934227E+00 -0.37024617237E+00  0.90007729589E+02  0.89999990819E+02 0.  0.
         12    1    1    2    0    0  0.97361216379E+00  0.55500934227E+00  0.37024617237E+00  0.11802704112E+01  0.00000000000E+00 0. -1.
         11    1    3    3    0    0 -0.17400961186E+01  0.22759228562E+02 -0.31049875142E+02  0.38537062236E+02  0.51100000000E-03 0. -1.
        -11    1    3    3    0    0 -0.48981638353E+01  0.75263791391E+01  0.25226603754E+01  0.93274973886E+01  0.51100000000E-03 0.  1.
        -12    1    3    3    0    0  0.56646477901E+01 -0.30840617043E+02  0.28156968594E+02  0.42143169964E+02  0.00000000000E+00 0.  1.
</event>
<event>
 7    1  0.4008281E-015  0.9000778E+02  0.7816164E-02  0.1186339E+00
        -11   -1    0    0    0    0  0.00000000000E+00  0.00000000000E+00  0.45593999997E+02  0.45594000000E+02  0.51100000000E-03 0. -1.
         11   -1    0    0    0    0 -0.00000000000E+00 -0.00000000000E+00 -0.45593999997E+02  0.45594000000E+02  0.51100000000E-03 0.  1.
    9900012    2    1    2    0    0  0.73013521252E+00  0.15119142670E-01 -0.92714100558E+00  0.90007781181E+02  0.90000043092E+02 0.  0.
         12    1    1    2    0    0 -0.73013521252E+00 -0.15119142670E-01  0.92714100558E+00  0.11802188192E+01  0.00000000000E+00 0. -1.
         11    1    3    3    0    0 -0.31047174899E+02 -0.18642613588E+01  0.29715249712E+02  0.43016259778E+02  0.51100000000E-03 0. -1.
        -11    1    3    3    0    0  0.46924591931E+01  0.23380789633E+01  0.10005247308E+01  0.53373061103E+01  0.51100000000E-03 0.  1.
        -12    1    3    3    0    0  0.27084850919E+02 -0.45869846175E+00 -0.31642915448E+02  0.41654215292E+02  0.00000000000E+00 0.  1.
</event>
<event>
 7    1  0.4008281E-015  0.9000781E+02  0.7816164E-02  0.1186339E+00
        -11   -1    0    0    0    0  0.00000000000E+00  0.00000000000E+00  0.45593999997E+02  0.45594000000E+02  0.51100000000E-03 0.  1.
         11   -1    0    0    0    0 -0.00000000000E+00 -0.00000000000E+00 -0.45593999997E+02  0.45594000000E+02  0.51100000000E-03 0. -1.
    9900012    2    1    2    0    0  0.79485264464E+00  0.25483028526E+00  0.83434301537E+00  0.90007806173E+02  0.90000068415E+02 0.  0.
         12    1    1    2    0    0 -0.79485264464E+00 -0.25483028526E+00 -0.83434301537E+00  0.11801938266E+01  0.00000000000E+00 0. -1.
         11    1    3    3    0    0  0.28423777706E+01  0.62711242664E+01  0.60451864317E+01  0.91624445543E+01  0.51100000000E-03 0. -1.
        -11    1    3    3    0    0  0.37288371324E+01  0.23614567191E+01  0.37082893770E+02  0.37344634351E+02  0.51100000000E-03 0.  1.
         12    1    3    3    0    0 -0.57763622584E+01 -0.83777507002E+01 -0.42293737186E+02  0.43500727268E+02  0.00000000000E+00 0. -1.
</event>
<event>
 7    1  0.4008281E-015  0.9000770E+02  0.7816164E-02  0.1186339E+00
        -11   -1    0    0    0    0  0.00000000000E+00  0.00000000000E+00  0.45593999997E+02  0.45594000000E+02  0.51100000000E-03 0.  1.
         11   -1    0    0    0    0 -0.00000000000E+00 -0.00000000000E+00 -0.45593999997E+02  0.45594000000E+02  0.51100000000E-03 0. -1.
    9900012    2    1    2    0    0  0.45959888145E+00  0.20004725806E+00  0.10685798199E+01  0.90007697976E+02  0.89999958789E+02 0.  0.
         12    1    1    2    0    0 -0.45959888145E+00 -0.20004725806E+00 -0.10685798199E+01  0.11803020244E+01  0.00000000000E+00 0. -1.
         11    1    3    3    0    0 -0.33655896757E+01  0.75255770426E+01  0.69195780763E+01  0.10762995155E+02  0.51100000000E-03 0. -1.
        -11    1    3    3    0    0 -0.13784868484E+02 -0.29529268500E+02  0.22151573230E+02  0.39404219242E+02  0.51100000000E-03 0.  1.
         12    1    3    3    0    0  0.17610057042E+02  0.22203738715E+02 -0.28002571486E+02  0.39840483579E+02  0.00000000000E+00 0. -1.
</event>
<event>
 7    1  0.4008281E-015  0.9000782E+02  0.7816164E-02  0.1186339E+00
        -11   -1    0    0    0    0  0.00000000000E+00  0.00000000000E+00  0.45593999997E+02  0.45594000000E+02  0.51100000000E-03 0. -1.
         11   -1    0    0    0    0 -0.00000000000E+00 -0.00000000000E+00 -0.45593999997E+02  0.45594000000E+02  0.51100000000E-03 0.  1.
    9900012    2    1    2    0    0  0.94326259076E-01 -0.10904527338E+01  0.44140604689E+00  0.90007820392E+02  0.90000082822E+02 0.  0.
         12    1    1    2    0    0 -0.94326259076E-01  0.10904527338E+01 -0.44140604689E+00  0.11801796076E+01  0.00000000000E+00 0. -1.
         11    1    3    3    0    0 -0.27807901523E+01 -0.90489518265E+01 -0.52523283560E+01  0.10826046206E+02  0.51100000000E-03 0. -1.
        -11    1    3    3    0    0 -0.12532047781E+02 -0.14025729002E+02 -0.29458428195E+02  0.34950998378E+02  0.51100000000E-03 0.  1.
         12    1    3    3    0    0  0.15407164192E+02  0.21984228094E+02  0.35152162598E+02  0.44230775809E+02  0.00000000000E+00 0. -1.
</event>
<event>
 7    1  0.4008281E-015  0.9000770E+02  0.7816164E-02  0.1186339E+00
        -11   -1    0    0    0    0  0.00000000000E+00  0.00000000000E+00  0.45593999997E+02  0.45594000000E+02  0.51100000000E-03 0.  1.
         11   -1    0    0    0    0 -0.00000000000E+00 -0.00000000000E+00 -0.45593999997E+02  0.45594000000E+02  0.51100000000E-03 0. -1.
    9900012    2    1    2    0    0 -0.92679637734E+00  0.15750444368E-01  0.73069182744E+00  0.90007699128E+02  0.89999959957E+02 0.  0.
         12    1    1    2    0    0  0.92679637734E+00 -0.15750444368E-01 -0.73069182744E+00  0.11803008719E+01  0.00000000000E+00 0. -1.
         11    1    3    3    0    0  0.61116648338E+01 -0.64598307636E+01 -0.33307168136E+01  0.94960799959E+01  0.51100000000E-03 0. -1.
        -11    1    3    3    0    0  0.24511307323E+02  0.26834206828E+02 -0.13871235443E+02  0.38901028467E+02  0.51100000000E-03 0.  1.
         12    1    3    3    0    0 -0.31549768534E+02 -0.20358625620E+02  0.17932644084E+02  0.41610590666E+02  0.00000000000E+00 0. -1.
</event>
<event>
 7    1  0.4008281E-015  0.9000772E+02  0.7816164E-02  0.1186339E+00
        -11   -1    0    0    0    0  0.00000000000E+00  0.00000000000E+00  0.45593999997E+02  0.45594000000E+02  0.51100000000E-03 0.  1.
         11   -1    0    0    0    0 -0.00000000000E+00 -0.00000000000E+00 -0.45593999997E+02  0.45594000000E+02  0.51100000000E-03 0. -1.
    9900012    2    1    2    0    0 -0.56618717469E+00 -0.10317493575E+01  0.89310019219E-01  0.90007724213E+02  0.89999985373E+02 0.  0.
         12    1    1    2    0    0  0.56618717469E+00  0.10317493575E+01 -0.89310019219E-01  0.11802757868E+01  0.00000000000E+00 0. -1.
         11    1    3    3    0    0 -0.33452307282E+02  0.18365217561E+01 -0.15540672171E+02  0.36931587651E+02  0.51100000000E-03 0. -1.
        -11    1    3    3    0    0 -0.85775463966E+01 -0.17206208394E+01  0.56454688039E+01  0.10411827723E+02  0.51100000000E-03 0.  1.
        -12    1    3    3    0    0  0.41463666504E+02 -0.11476502742E+01  0.99845133867E+01  0.42664308839E+02  0.00000000000E+00 0.  1.
</event>
<event>
 7    1  0.4008281E-015  0.9000779E+02  0.7816164E-02  0.1186339E+00
        -11   -1    0    0    0    0  0.00000000000E+00  0.00000000000E+00  0.45593999997E+02  0.45594000000E+02  0.51100000000E-03 0.  1.
         11   -1    0    0    0    0 -0.00000000000E+00 -0.00000000000E+00 -0.45593999997E+02  0.45594000000E+02  0.51100000000E-03 0. -1.
    9900012    2    1    2    0    0 -0.66170170363E+00  0.94677451786E+00  0.24219638189E+00  0.90007792298E+02  0.90000054356E+02 0.  0.
         12    1    1    2    0    0  0.66170170363E+00 -0.94677451786E+00 -0.24219638189E+00  0.11802077019E+01  0.00000000000E+00 0. -1.
         11    1    3    3    0    0 -0.34154930331E+02 -0.17514232765E+01 -0.10217340085E+02  0.35693427799E+02  0.51100000000E-03 0. -1.
        -11    1    3    3    0    0 -0.66338195276E+01 -0.92919030106E+01  0.21286204234E+01  0.11613700885E+02  0.51100000000E-03 0.  1.
        -12    1    3    3    0    0  0.40127048155E+02  0.11990100805E+02  0.83309160439E+01  0.42700663614E+02  0.00000000000E+00 0.  1.
</event>
<event>
 7    1  0.4008281E-015  0.9000769E+02  0.7816164E-02  0.1186339E+00
        -11   -1    0    0    0    0  0.00000000000E+00  0.00000000000E+00  0.45593999997E+02  0.45594000000E+02  0.51100000000E-03 0. -1.
         11   -1    0    0    0    0 -0.00000000000E+00 -0.00000000000E+00 -0.45593999997E+02  0.45594000000E+02  0.51100000000E-03 0.  1.
    9900012    2    1    2    0    0  0.25278376368E+00 -0.19758362876E+00 -0.11358629888E+01  0.90007693408E+02  0.89999954161E+02 0.  0.
         12    1    1    2    0    0 -0.25278376368E+00  0.19758362876E+00  0.11358629888E+01  0.11803065919E+01  0.00000000000E+00 0. -1.
         11    1    3    3    0    0 -0.17766743211E+02  0.21104953852E+02  0.22927934467E+01  0.27682722834E+02  0.51100000000E-03 0. -1.
        -11    1    3    3    0    0 -0.18137733723E+02 -0.63402921917E+00 -0.90835331176E+01  0.20295072106E+02  0.51100000000E-03 0.  1.
        -12    1    3    3    0    0  0.36157260698E+02 -0.20668508262E+02  0.56548766821E+01  0.42029898468E+02  0.00000000000E+00 0.  1.
</event>
<event>
 7    1  0.4008281E-015  0.9000772E+02  0.7816164E-02  0.1186339E+00
        -11   -1    0    0    0    0  0.00000000000E+00  0.00000000000E+00  0.45593999997E+02  0.45594000000E+02  0.51100000000E-03 0. -1.
         11   -1    0    0    0    0 -0.00000000000E+00 -0.00000000000E+00 -0.45593999997E+02  0.45594000000E+02  0.51100000000E-03 0.  1.
    9900012    2    1    2    0    0 -0.98112968096E+00  0.40966313049E+00 -0.51247486821E+00  0.90007716211E+02  0.89999977265E+02 0.  0.
         12    1    1    2    0    0  0.98112968096E+00 -0.40966313049E+00  0.51247486821E+00  0.11802837887E+01  0.00000000000E+00 0. -1.
         11    1    3    3    0    0 -0.42856903212E+01  0.43519452148E+01  0.68114982682E+01  0.91489386051E+01  0.51100000000E-03 0. -1.
        -11    1    3    3    0    0 -0.12365866026E+02 -0.35105148214E+01 -0.41400035664E+02  0.43349755595E+02  0.51100000000E-03 0.  1.
         12    1    3    3    0    0  0.15670426666E+02 -0.43176726287E+00  0.34076062528E+02  0.37509022011E+02  0.00000000000E+00 0. -1.
</event>
<event>
 7    1  0.4008281E-015  0.9000773E+02  0.7816164E-02  0.1186339E+00
        -11   -1    0    0    0    0  0.00000000000E+00  0.00000000000E+00  0.45593999997E+02  0.45594000000E+02  0.51100000000E-03 0. -1.
         11   -1    0    0    0    0 -0.00000000000E+00 -0.00000000000E+00 -0.45593999997E+02  0.45594000000E+02  0.51100000000E-03 0.  1.
    9900012    2    1    2    0    0 -0.70541250540E+00  0.78291793329E+00  0.53148719160E+00  0.90007726333E+02  0.89999987521E+02 0.  0.
         12    1    1    2    0    0  0.70541250540E+00 -0.78291793329E+00 -0.53148719160E+00  0.11802736665E+01  0.00000000000E+00 0. -1.
         11    1    3    3    0    0  0.39106098356E+01  0.45249146720E+00 -0.86209961564E+01  0.94772988137E+01  0.51100000000E-03 0. -1.
        -11    1    3    3    0    0  0.63820765601E+01  0.38311097917E+02 -0.35456106473E+01  0.39000544611E+02  0.51100000000E-03 0.  1.
         12    1    3    3    0    0 -0.10998098901E+02 -0.37980671451E+02  0.12698093995E+02  0.41529882909E+02  0.00000000000E+00 0. -1.
</event>
<event>
 7    1  0.4008281E-015  0.9000761E+02  0.7816164E-02  0.1186339E+00
        -11   -1    0    0    0    0  0.00000000000E+00  0.00000000000E+00  0.45593999997E+02  0.45594000000E+02  0.51100000000E-03 0. -1.
         11   -1    0    0    0    0 -0.00000000000E+00 -0.00000000000E+00 -0.45593999997E+02  0.45594000000E+02  0.51100000000E-03 0.  1.
    9900012    2    1    2    0    0  0.70621871889E+00  0.82672631946E+00 -0.45945914422E+00  0.90007608543E+02  0.89999868176E+02 0.  0.
         12    1    1    2    0    0 -0.70621871889E+00 -0.82672631946E+00  0.45945914422E+00  0.11803914568E+01  0.00000000000E+00 0. -1.
         11    1    3    3    0    0 -0.42165004078E+00 -0.84219534525E+01  0.36942868393E+00  0.84405904134E+01  0.51100000000E-03 0. -1.
        -11    1    3    3    0    0  0.15495217564E+02 -0.28826434631E+02 -0.18053369986E+02  0.37376319629E+02  0.51100000000E-03 0.  1.
         12    1    3    3    0    0 -0.14367348805E+02  0.38075114403E+02  0.17224482157E+02  0.44190698501E+02  0.00000000000E+00 0. -1.
</event>
<event>
 7    1  0.4008281E-015  0.9000774E+02  0.7816164E-02  0.1186339E+00
        -11   -1    0    0    0    0  0.00000000000E+00  0.00000000000E+00  0.45593999997E+02  0.45594000000E+02  0.51100000000E-03 0. -1.
         11   -1    0    0    0    0 -0.00000000000E+00 -0.00000000000E+00 -0.45593999997E+02  0.45594000000E+02  0.51100000000E-03 0.  1.
    9900012    2    1    2    0    0 -0.65881083217E-01  0.11700814620E+01  0.13990944245E+00  0.90007743419E+02  0.90000004832E+02 0.  0.
         12    1    1    2    0    0  0.65881083217E-01 -0.11700814620E+01 -0.13990944245E+00  0.11802565809E+01  0.00000000000E+00 0. -1.
         11    1    3    3    0    0  0.13948325233E+02  0.36620880464E+02  0.21020505501E+02  0.44469161388E+02  0.51100000000E-03 0. -1.
        -11    1    3    3    0    0  0.20153475284E+01 -0.91431263076E+01 -0.26016341796E+01  0.97173496903E+01  0.51100000000E-03 0.  1.
        -12    1    3    3    0    0 -0.16029553844E+02 -0.26307672694E+02 -0.18278961879E+02  0.35821232341E+02  0.00000000000E+00 0.  1.
</event>
<event>
 7    1  0.4008281E-015  0.9000806E+02  0.7816164E-02  0.1186338E+00
        -11   -1    0    0    0    0  0.00000000000E+00  0.00000000000E+00  0.45593999997E+02  0.45594000000E+02  0.51100000000E-03 0. -1.
         11   -1    0    0    0    0 -0.00000000000E+00 -0.00000000000E+00 -0.45593999997E+02  0.45594000000E+02  0.51100000000E-03 0.  1.
    9900012    2    1    2    0    0  0.69927654007E+00 -0.88157570615E+00 -0.35510318503E+00  0.90008058613E+02  0.90000324186E+02 0.  0.
         12    1    1    2    0    0 -0.69927654007E+00  0.88157570615E+00  0.35510318503E+00  0.11799413872E+01  0.00000000000E+00 0. -1.
         11    1    3    3    0    0  0.13635528625E+02 -0.23117503081E+01  0.31464750721E+02  0.34370079555E+02  0.51100000000E-03 0. -1.
        -11    1    3    3    0    0  0.81073185008E+01 -0.63475304977E+01  0.58137994448E+01  0.11824551617E+02  0.51100000000E-03 0.  1.
        -12    1    3    3    0    0 -0.21043570586E+02  0.77777050997E+01 -0.37633653351E+02  0.43813427441E+02  0.00000000000E+00 0.  1.
</event>
<event>
 7    1  0.4008281E-015  0.9000767E+02  0.7816164E-02  0.1186339E+00
        -11   -1    0    0    0    0  0.00000000000E+00  0.00000000000E+00  0.45593999997E+02  0.45594000000E+02  0.51100000000E-03 0. -1.
         11   -1    0    0    0    0 -0.00000000000E+00 -0.00000000000E+00 -0.45593999997E+02  0.45594000000E+02  0.51100000000E-03 0.  1.
    9900012    2    1    2    0    0 -0.70881736561E+00  0.28842557040E+00 -0.89864545769E+00  0.90007671645E+02  0.89999932110E+02 0.  0.
         12    1    1    2    0    0  0.70881736561E+00 -0.28842557040E+00  0.89864545769E+00  0.11803283552E+01  0.00000000000E+00 0. -1.
         11    1    3    3    0    0 -0.82755440234E+01  0.39970257596E+01  0.10987739538E+01  0.92557089556E+01  0.51100000000E-03 0. -1.
        -11    1    3    3    0    0  0.21703515706E+02 -0.23448412076E+02 -0.29903671322E+02  0.43761857612E+02  0.51100000000E-03 0.  1.
         12    1    3    3    0    0 -0.14136789048E+02  0.19739811886E+02  0.27906251911E+02  0.36990105077E+02  0.00000000000E+00 0. -1.
</event>
<event>
 7    1  0.4008281E-015  0.9000779E+02  0.7816164E-02  0.1186339E+00
        -11   -1    0    0    0    0  0.00000000000E+00  0.00000000000E+00  0.45593999997E+02  0.45594000000E+02  0.51100000000E-03 0.  1.
         11   -1    0    0    0    0 -0.00000000000E+00 -0.00000000000E+00 -0.45593999997E+02  0.45594000000E+02  0.51100000000E-03 0. -1.
    9900012    2    1    2    0    0 -0.71246706508E+00  0.16079681493E+00  0.92705910087E+00  0.90007786667E+02  0.90000048651E+02 0.  0.
         12    1    1    2    0    0  0.71246706508E+00 -0.16079681493E+00 -0.92705910087E+00  0.11802133328E+01  0.00000000000E+00 0. -1.
         11    1    3    3    0    0  0.53661744963E+01  0.22751684001E+01 -0.48623029920E+01  0.75904025335E+01  0.51100000000E-03 0. -1.
        -11    1    3    3    0    0  0.29429245480E+02  0.23360180919E+02  0.88756125662E+01  0.38607707013E+02  0.51100000000E-03 0.  1.
         12    1    3    3    0    0 -0.35507887042E+02 -0.25474552504E+02 -0.30862504734E+01  0.43809677121E+02  0.00000000000E+00 0. -1.
</event>
<event>
 7    1  0.4008281E-015  0.9000774E+02  0.7816164E-02  0.1186339E+00
        -11   -1    0    0    0    0  0.00000000000E+00  0.00000000000E+00  0.45593999997E+02  0.45594000000E+02  0.51100000000E-03 0. -1.
         11   -1    0    0    0    0 -0.00000000000E+00 -0.00000000000E+00 -0.45593999997E+02  0.45594000000E+02  0.51100000000E-03 0.  1.
    9900012    2    1    2    0    0  0.12074436540E-01  0.11248533349E+01 -0.35717614516E+00  0.90007739175E+02  0.90000000532E+02 0.  0.
         12    1    1    2    0    0 -0.12074436540E-01 -0.11248533349E+01  0.35717614516E+00  0.11802608253E+01  0.00000000000E+00 0. -1.
         11    1    3    3    0    0  0.34852220921E+01  0.68433348877E+01 -0.73203852111E+01  0.10609714667E+02  0.51100000000E-03 0. -1.
        -11    1    3    3    0    0  0.32553890741E+02 -0.89563507542E+00 -0.16121999563E+02  0.36338365879E+02  0.51100000000E-03 0.  1.
         12    1    3    3    0    0 -0.36027038397E+02 -0.48228464773E+01  0.23085208629E+02  0.43059658629E+02  0.00000000000E+00 0. -1.
</event>
<event>
 7    1  0.4008281E-015  0.9000776E+02  0.7816164E-02  0.1186339E+00
        -11   -1    0    0    0    0  0.00000000000E+00  0.00000000000E+00  0.45593999997E+02  0.45594000000E+02  0.51100000000E-03 0. -1.
         11   -1    0    0    0    0 -0.00000000000E+00 -0.00000000000E+00 -0.45593999997E+02  0.45594000000E+02  0.51100000000E-03 0.  1.
    9900012    2    1    2    0    0  0.65896155743E+00  0.69307394717E+00  0.69165772018E+00  0.90007757554E+02  0.90000019153E+02 0.  0.
         12    1    1    2    0    0 -0.65896155743E+00 -0.69307394717E+00 -0.69165772018E+00  0.11802424464E+01  0.00000000000E+00 0. -1.
         11    1    3    3    0    0 -0.60918167980E+01  0.25124651904E+02  0.24396534280E+02  0.35546437942E+02  0.51100000000E-03 0. -1.
        -11    1    3    3    0    0  0.33979201130E+01  0.50042936717E+01  0.86734140136E+01  0.10574352328E+02  0.51100000000E-03 0.  1.
        -12    1    3    3    0    0  0.33528582425E+01 -0.29435871629E+02 -0.32378290573E+02  0.43886967284E+02  0.00000000000E+00 0.  1.
</event>
<event>
 7    1  0.4008281E-015  0.9000777E+02  0.7816164E-02  0.1186339E+00
        -11   -1    0    0    0    0  0.00000000000E+00  0.00000000000E+00  0.45593999997E+02  0.45594000000E+02  0.51100000000E-03 0.  1.
         11   -1    0    0    0    0 -0.00000000000E+00 -0.00000000000E+00 -0.45593999997E+02  0.45594000000E+02  0.51100000000E-03 0. -1.
    9900012    2    1    2    0    0  0.55707942638E+00 -0.97467787800E+00  0.36416460188E+00  0.90007766841E+02  0.90000028563E+02 0.  0.
         12    1    1    2    0    0 -0.55707942638E+00  0.97467787800E+00 -0.36416460188E+00  0.11802331593E+01  0.00000000000E+00 0. -1.
         11    1    3    3    0    0  0.66386684762E+01  0.50494079521E+01  0.16906234428E+01  0.85103846970E+01  0.51100000000E-03 0. -1.
        -11    1    3    3    0    0  0.10173388236E+02  0.53315991533E+01  0.36784875321E+02  0.38536357254E+02  0.51100000000E-03 0.  1.
         12    1    3    3    0    0 -0.16254977285E+02 -0.11355684983E+02 -0.38111334162E+02  0.42961024890E+02  0.00000000000E+00 0. -1.
</event>
<event>
 7    1  0.4008281E-015  0.9000904E+02  0.7816164E-02  0.1186336E+00
        -11   -1    0    0    0    0  0.00000000000E+00  0.00000000000E+00  0.45593999997E+02  0.45594000000E+02  0.51100000000E-03 0.  1.
         11   -1    0    0    0    0 -0.00000000000E+00 -0.00000000000E+00 -0.45593999997E+02  0.45594000000E+02  0.51100000000E-03 0. -1.
    9900012    2    1    2    0    0  0.11588672684E+01 -0.36277197110E-01 -0.21370224269E+00  0.90009035187E+02  0.90001313642E+02 0.  0.
         12    1    1    2    0    0 -0.11588672684E+01  0.36277197110E-01  0.21370224269E+00  0.11789648126E+01  0.00000000000E+00 0. -1.
         11    1    3    3    0    0  0.34902958368E+02  0.60802356022E+01 -0.12221086000E+02  0.37477202551E+02  0.51100000000E-03 0. -1.
        -11    1    3    3    0    0  0.48184555456E+01 -0.50225382849E+01 -0.66967174929E+01  0.96586453558E+01  0.51100000000E-03 0.  1.
        -12    1    3    3    0    0 -0.38562546645E+02 -0.10939745144E+01  0.18704101250E+02  0.42873187280E+02  0.00000000000E+00 0.  1.
</event>
<event>
 7    1  0.4008281E-015  0.9000782E+02  0.7816164E-02  0.1186339E+00
        -11   -1    0    0    0    0  0.00000000000E+00  0.00000000000E+00  0.45593999997E+02  0.45594000000E+02  0.51100000000E-03 0. -1.
         11   -1    0    0    0    0 -0.00000000000E+00 -0.00000000000E+00 -0.45593999997E+02  0.45594000000E+02  0.51100000000E-03 0.  1.
    9900012    2    1    2    0    0  0.53518881373E+00 -0.50716688748E+00 -0.92150687034E+00  0.90007821950E+02  0.90000084399E+02 0.  0.
         12    1    1    2    0    0 -0.53518881373E+00  0.50716688748E+00  0.92150687034E+00  0.11801780502E+01  0.00000000000E+00 0. -1.
         11    1    3    3    0    0  0.20617651403E+02  0.21836193032E+02 -0.13193084962E+02  0.32801895778E+02  0.51100000000E-03 0. -1.
        -11    1    3    3    0    0  0.57468516570E+01  0.11753490101E+02  0.23069697090E+01  0.13285064660E+02  0.51100000000E-03 0.  1.
        -12    1    3    3    0    0 -0.25829314247E+02 -0.34096850020E+02  0.99646083824E+01  0.43920861512E+02  0.00000000000E+00 0.  1.
</event>
<event>
 7    1  0.4401475E-015  0.9000776E+02  0.7816164E-02  0.1186339E+00
        -11   -1    0    0    0    0  0.00000000000E+00  0.00000000000E+00  0.45593999997E+02  0.45594000000E+02  0.51100000000E-03 0.  1.
         11   -1    0    0    0    0 -0.00000000000E+00 -0.00000000000E+00 -0.45593999997E+02  0.45594000000E+02  0.51100000000E-03 0. -1.
    9900012    2    1    2    0    0 -0.27831761469E-02  0.11452490611E+01  0.28523173392E+00  0.90007762609E+02  0.90000024275E+02 0.  0.
         12    1    1    2    0    0  0.27831761469E-02 -0.11452490611E+01 -0.28523173392E+00  0.11802373914E+01  0.00000000000E+00 0. -1.
         11    1    3    3    0    0  0.35586528040E+00 -0.48683104284E+01  0.79681139231E+01  0.93444061490E+01  0.51100000000E-03 0. -1.
        -11    1    3    3    0    0 -0.19998858844E+02 -0.98954106683E+01  0.28705832300E+02  0.36357919573E+02  0.51100000000E-03 0.  1.
         12    1    3    3    0    0  0.19640210387E+02  0.15908970158E+02 -0.36388714490E+02  0.44305436887E+02  0.00000000000E+00 0. -1.
</event>
<event>
 7    1  0.4008281E-015  0.9000773E+02  0.7816164E-02  0.1186339E+00
        -11   -1    0    0    0    0  0.00000000000E+00  0.00000000000E+00  0.45593999997E+02  0.45594000000E+02  0.51100000000E-03 0.  1.
         11   -1    0    0    0    0 -0.00000000000E+00 -0.00000000000E+00 -0.45593999997E+02  0.45594000000E+02  0.51100000000E-03 0. -1.
    9900012    2    1    2    0    0 -0.39939029882E+00  0.93071809054E+00  0.60604267971E+00  0.90007730326E+02  0.89999991566E+02 0.  0.
         12    1    1    2    0    0  0.39939029882E+00 -0.93071809054E+00 -0.60604267971E+00  0.11802696745E+01  0.00000000000E+00 0. -1.
         11    1    3    3    0    0  0.18409515579E+01 -0.53118141275E+01  0.77727400284E+01  0.95927034653E+01  0.51100000000E-03 0. -1.
        -11    1    3    3    0    0 -0.22131272648E+02 -0.81655995264E+01  0.28571126314E+02  0.37051039172E+02  0.51100000000E-03 0.  1.
         12    1    3    3    0    0  0.19890930791E+02  0.14408131744E+02 -0.35737823662E+02  0.43363987688E+02  0.00000000000E+00 0. -1.
</event>
<event>
 7    1  0.4008281E-015  0.9000788E+02  0.7816164E-02  0.1186339E+00
        -11   -1    0    0    0    0  0.00000000000E+00  0.00000000000E+00  0.45593999997E+02  0.45594000000E+02  0.51100000000E-03 0. -1.
         11   -1    0    0    0    0 -0.00000000000E+00 -0.00000000000E+00 -0.45593999997E+02  0.45594000000E+02  0.51100000000E-03 0.  1.
    9900012    2    1    2    0    0  0.62604552932E+00 -0.59437194170E-01 -0.99861215427E+00  0.90007876269E+02  0.90000139436E+02 0.  0.
         12    1    1    2    0    0 -0.62604552932E+00  0.59437194170E-01  0.99861215427E+00  0.11801237306E+01  0.00000000000E+00 0. -1.
         11    1    3    3    0    0 -0.11306368221E+01 -0.25583707387E+01  0.67097328293E+01  0.72693958045E+01  0.51100000000E-03 0. -1.
        -11    1    3    3    0    0  0.10233229098E+01  0.17670618865E+02  0.34010375438E+02  0.38340625954E+02  0.51100000000E-03 0.  1.
         12    1    3    3    0    0  0.73335944163E+00 -0.15171685320E+02 -0.41718720422E+02  0.44397854511E+02  0.00000000000E+00 0. -1.
</event>
<event>
 7    1  0.4008281E-015  0.9000769E+02  0.7816164E-02  0.1186339E+00
        -11   -1    0    0    0    0  0.00000000000E+00  0.00000000000E+00  0.45593999997E+02  0.45594000000E+02  0.51100000000E-03 0.  1.
         11   -1    0    0    0    0 -0.00000000000E+00 -0.00000000000E+00 -0.45593999997E+02  0.45594000000E+02  0.51100000000E-03 0. -1.
    9900012    2    1    2    0    0 -0.92391360968E+00 -0.68895968447E+00  0.25464981735E+00  0.90007691424E+02  0.89999952151E+02 0.  0.
         12    1    1    2    0    0  0.92391360968E+00  0.68895968447E+00 -0.25464981735E+00  0.11803085759E+01  0.00000000000E+00 0. -1.
         11    1    3    3    0    0  0.32929665780E+01  0.13583137909E+02 -0.16636215871E+01  0.14075258484E+02  0.51100000000E-03 0. -1.
        -11    1    3    3    0    0 -0.16463284382E+02 -0.23692349867E+02 -0.29287567415E+02  0.41111175855E+02  0.51100000000E-03 0.  1.
         12    1    3    3    0    0  0.12246404194E+02  0.94202522731E+01  0.31205838819E+02  0.34821257085E+02  0.00000000000E+00 0. -1.
</event>
<event>
 7    1  0.4008281E-015  0.9000708E+02  0.7816164E-02  0.1186340E+00
        -11   -1    0    0    0    0  0.00000000000E+00  0.00000000000E+00  0.45593999997E+02  0.45594000000E+02  0.51100000000E-03 0.  1.
         11   -1    0    0    0    0 -0.00000000000E+00 -0.00000000000E+00 -0.45593999997E+02  0.45594000000E+02  0.51100000000E-03 0. -1.
    9900012    2    1    2    0    0 -0.35470380420E+00  0.88231694879E+00  0.70019022530E+00  0.90007083264E+02  0.89999335960E+02 0.  0.
         12    1    1    2    0    0  0.35470380420E+00 -0.88231694879E+00 -0.70019022530E+00  0.11809167365E+01  0.00000000000E+00 0. -1.
         11    1    3    3    0    0  0.58441444386E+01 -0.75994036706E+01 -0.18673291935E+01  0.97668766218E+01  0.51100000000E-03 0. -1.
        -11    1    3    3    0    0 -0.33561098711E+02 -0.19873860288E+02 -0.71522832196E+01  0.39654417471E+02  0.51100000000E-03 0.  1.
         12    1    3    3    0    0  0.27362250469E+02  0.28355580907E+02  0.97198026384E+01  0.40585789171E+02  0.00000000000E+00 0. -1.
</event>
<event>
 7    1  0.5618383E-015  0.9000770E+02  0.7816164E-02  0.1186339E+00
        -11   -1    0    0    0    0  0.00000000000E+00  0.00000000000E+00  0.45593999997E+02  0.45594000000E+02  0.51100000000E-03 0.  1.
         11   -1    0    0    0    0 -0.00000000000E+00 -0.00000000000E+00 -0.45593999997E+02  0.45594000000E+02  0.51100000000E-03 0. -1.
    9900012    2    1    2    0    0  0.80149614899E+00 -0.79827965184E+00  0.33682356827E+00  0.90007704869E+02  0.89999965774E+02 0.  0.
         12    1    1    2    0    0 -0.80149614899E+00  0.79827965184E+00 -0.33682356827E+00  0.11802951307E+01  0.00000000000E+00 0. -1.
         11    1    3    3    0    0 -0.26576633204E+01  0.47298746394E+01  0.76113397566E+01  0.93470520262E+01  0.51100000000E-03 0. -1.
        -11    1    3    3    0    0  0.15891949159E+02 -0.14967525773E+02  0.31806351844E+02  0.38577517983E+02  0.51100000000E-03 0.  1.
         12    1    3    3    0    0 -0.12432789690E+02  0.94393714817E+01 -0.39080868033E+02  0.42083134860E+02  0.00000000000E+00 0. -1.
</event>
<event>
 7    1  0.4008281E-015  0.9000777E+02  0.7816164E-02  0.1186339E+00
        -11   -1    0    0    0    0  0.00000000000E+00  0.00000000000E+00  0.45593999997E+02  0.45594000000E+02  0.51100000000E-03 0.  1.
         11   -1    0    0    0    0 -0.00000000000E+00 -0.00000000000E+00 -0.45593999997E+02  0.45594000000E+02  0.51100000000E-03 0. -1.
    9900012    2    1    2    0    0 -0.73417763055E+00 -0.19089246901E+00  0.90415563435E+00  0.90007765219E+02  0.90000026920E+02 0.  0.
         12    1    1    2    0    0  0.73417763055E+00  0.19089246901E+00 -0.90415563435E+00  0.11802347813E+01  0.00000000000E+00 0. -1.
         11    1    3    3    0    0  0.31845828894E+02 -0.20797484518E+01 -0.19148885249E+02  0.37217764282E+02  0.51100000000E-03 0. -1.
        -11    1    3    3    0    0  0.34824979001E+01 -0.78349763142E+01 -0.27796945210E+01  0.90133982138E+01  0.51100000000E-03 0.  1.
        -12    1    3    3    0    0 -0.36062504425E+02  0.97238322970E+01  0.22832735404E+02  0.43776602723E+02  0.00000000000E+00 0.  1.
</event>
<event>
 7    1  0.4008281E-015  0.9000775E+02  0.7816164E-02  0.1186339E+00
        -11   -1    0    0    0    0  0.00000000000E+00  0.00000000000E+00  0.45593999997E+02  0.45594000000E+02  0.51100000000E-03 0.  1.
         11   -1    0    0    0    0 -0.00000000000E+00 -0.00000000000E+00 -0.45593999997E+02  0.45594000000E+02  0.51100000000E-03 0. -1.
    9900012    2    1    2    0    0 -0.44650245544E+00 -0.10587151192E+01  0.26973743302E+00  0.90007745608E+02  0.90000007050E+02 0.  0.
         12    1    1    2    0    0  0.44650245544E+00  0.10587151192E+01 -0.26973743302E+00  0.11802543917E+01  0.00000000000E+00 0. -1.
         11    1    3    3    0    0 -0.39353964080E+02 -0.16632490512E+02  0.89536841131E+00  0.42733779546E+02  0.51100000000E-03 0. -1.
        -11    1    3    3    0    0  0.14619123885E+01  0.83661364556E+01  0.29097112056E+01  0.89775189549E+01  0.51100000000E-03 0.  1.
        -12    1    3    3    0    0  0.37445549236E+02  0.72076389377E+01 -0.35353421839E+01  0.38296447107E+02  0.00000000000E+00 0.  1.
</event>
<event>
 7    1  0.4008281E-015  0.9000771E+02  0.7816164E-02  0.1186339E+00
        -11   -1    0    0    0    0  0.00000000000E+00  0.00000000000E+00  0.45593999997E+02  0.45594000000E+02  0.51100000000E-03 0. -1.
         11   -1    0    0    0    0 -0.00000000000E+00 -0.00000000000E+00 -0.45593999997E+02  0.45594000000E+02  0.51100000000E-03 0.  1.
    9900012    2    1    2    0    0 -0.15239713510E+00  0.55559403947E+00 -0.10301327940E+01  0.90007710545E+02  0.89999971525E+02 0.  0.
         12    1    1    2    0    0  0.15239713510E+00 -0.55559403947E+00  0.10301327940E+01  0.11802894546E+01  0.00000000000E+00 0. -1.
         11    1    3    3    0    0  0.75489790341E+01  0.52580422777E+01 -0.58086507069E+01  0.10880005347E+02  0.51100000000E-03 0. -1.
        -11    1    3    3    0    0  0.41746719817E+01 -0.28093430442E+02 -0.26125886919E+02  0.38590551794E+02  0.51100000000E-03 0.  1.
         12    1    3    3    0    0 -0.11876048151E+02  0.23390982204E+02  0.30904404832E+02  0.40537153405E+02  0.00000000000E+00 0. -1.
</event>
<event>
 7    1  0.4008281E-015  0.9000774E+02  0.7816164E-02  0.1186339E+00
        -11   -1    0    0    0    0  0.00000000000E+00  0.00000000000E+00  0.45593999997E+02  0.45594000000E+02  0.51100000000E-03 0.  1.
         11   -1    0    0    0    0 -0.00000000000E+00 -0.00000000000E+00 -0.45593999997E+02  0.45594000000E+02  0.51100000000E-03 0. -1.
    9900012    2    1    2    0    0 -0.12721367152E+00  0.68727797602E+00  0.95103662619E+00  0.90007743672E+02  0.90000005089E+02 0.  0.
         12    1    1    2    0    0  0.12721367152E+00 -0.68727797602E+00 -0.95103662619E+00  0.11802563276E+01  0.00000000000E+00 0. -1.
         11    1    3    3    0    0 -0.24229936050E+01  0.16161847394E+02 -0.36233008918E+02  0.39748045797E+02  0.51100000000E-03 0. -1.
        -11    1    3    3    0    0  0.49969039954E+01  0.32477453680E+01 -0.23712537321E+01  0.64140271311E+01  0.51100000000E-03 0.  1.
        -12    1    3    3    0    0 -0.27011240620E+01 -0.18722314786E+02  0.39555299276E+02  0.43845670744E+02  0.00000000000E+00 0.  1.
</event>
<event>
 7    1  0.4008281E-015  0.9000775E+02  0.7816164E-02  0.1186339E+00
        -11   -1    0    0    0    0  0.00000000000E+00  0.00000000000E+00  0.45593999997E+02  0.45594000000E+02  0.51100000000E-03 0.  1.
         11   -1    0    0    0    0 -0.00000000000E+00 -0.00000000000E+00 -0.45593999997E+02  0.45594000000E+02  0.51100000000E-03 0. -1.
    9900012    2    1    2    0    0 -0.21105849765E+00  0.11271907546E+01 -0.27905988369E+00  0.90007754642E+02  0.90000016203E+02 0.  0.
         12    1    1    2    0    0  0.21105849765E+00 -0.11271907546E+01  0.27905988369E+00  0.11802453582E+01  0.00000000000E+00 0. -1.
         11    1    3    3    0    0 -0.27032271119E+02  0.30604201793E+01  0.24650269817E+02  0.36711655585E+02  0.51100000000E-03 0. -1.
        -11    1    3    3    0    0 -0.42933770842E+00 -0.59817963818E+01  0.82314038910E+01  0.10184411083E+02  0.51100000000E-03 0.  1.
        -12    1    3    3    0    0  0.27250550330E+02  0.40485669571E+01 -0.33160733591E+02  0.43111687974E+02  0.00000000000E+00 0.  1.
</event>
<event>
 7    1  0.4008281E-015  0.9000771E+02  0.7816164E-02  0.1186339E+00
        -11   -1    0    0    0    0  0.00000000000E+00  0.00000000000E+00  0.45593999997E+02  0.45594000000E+02  0.51100000000E-03 0.  1.
         11   -1    0    0    0    0 -0.00000000000E+00 -0.00000000000E+00 -0.45593999997E+02  0.45594000000E+02  0.51100000000E-03 0. -1.
    9900012    2    1    2    0    0  0.16223154574E+00 -0.11588443268E+01 -0.15442507781E+00  0.90007709208E+02  0.89999970170E+02 0.  0.
         12    1    1    2    0    0 -0.16223154574E+00  0.11588443268E+01  0.15442507781E+00  0.11802907917E+01  0.00000000000E+00 0. -1.
         11    1    3    3    0    0  0.11388629258E+02  0.30398179551E+02 -0.28023886805E+02  0.42884594301E+02  0.51100000000E-03 0. -1.
        -11    1    3    3    0    0  0.47451273843E+01 -0.43229819091E+01  0.50635237803E+01  0.81757984205E+01  0.51100000000E-03 0.  1.
        -12    1    3    3    0    0 -0.15971525097E+02 -0.27234041969E+02  0.22805937947E+02  0.38947316487E+02  0.00000000000E+00 0.  1.
</event>
<event>
 7    1  0.4008281E-015  0.9000784E+02  0.7816164E-02  0.1186339E+00
        -11   -1    0    0    0    0  0.00000000000E+00  0.00000000000E+00  0.45593999997E+02  0.45594000000E+02  0.51100000000E-03 0.  1.
         11   -1    0    0    0    0 -0.00000000000E+00 -0.00000000000E+00 -0.45593999997E+02  0.45594000000E+02  0.51100000000E-03 0. -1.
    9900012    2    1    2    0    0  0.74749893155E+00 -0.15520906059E+00  0.89996719461E+00  0.90007836682E+02  0.90000099326E+02 0.  0.
         12    1    1    2    0    0 -0.74749893155E+00  0.15520906059E+00 -0.89996719461E+00  0.11801633177E+01  0.00000000000E+00 0. -1.
         11    1    3    3    0    0 -0.78847621444E+01  0.41340362026E+02 -0.93114429312E+01  0.43103340662E+02  0.51100000000E-03 0. -1.
        -11    1    3    3    0    0  0.21589666887E+01 -0.77384731031E+01 -0.48422145175E+01  0.93804128281E+01  0.51100000000E-03 0.  1.
        -12    1    3    3    0    0  0.64732943873E+01 -0.33757097984E+02  0.15053624643E+02  0.37524083192E+02  0.00000000000E+00 0.  1.
</event>
<event>
 7    1  0.4008281E-015  0.9000772E+02  0.7816164E-02  0.1186339E+00
        -11   -1    0    0    0    0  0.00000000000E+00  0.00000000000E+00  0.45593999997E+02  0.45594000000E+02  0.51100000000E-03 0. -1.
         11   -1    0    0    0    0 -0.00000000000E+00 -0.00000000000E+00 -0.45593999997E+02  0.45594000000E+02  0.51100000000E-03 0.  1.
    9900012    2    1    2    0    0 -0.57293223532E+00 -0.72338877370E+00 -0.73587565954E+00  0.90007722215E+02  0.89999983348E+02 0.  0.
         12    1    1    2    0    0  0.57293223532E+00  0.72338877370E+00  0.73587565954E+00  0.11802777853E+01  0.00000000000E+00 0. -1.
         11    1    3    3    0    0 -0.17016854463E+02  0.16713384040E+02  0.23657631666E+02  0.33594554293E+02  0.51100000000E-03 0. -1.
        -11    1    3    3    0    0  0.72030439235E+01  0.10526855217E+02  0.59960243854E+01  0.14094354587E+02  0.51100000000E-03 0.  1.
        -12    1    3    3    0    0  0.92408783039E+01 -0.27963628031E+02 -0.30389531710E+02  0.42318813335E+02  0.00000000000E+00 0.  1.
</event>
<event>
 7    1  0.4008281E-015  0.9000772E+02  0.7816164E-02  0.1186339E+00
        -11   -1    0    0    0    0  0.00000000000E+00  0.00000000000E+00  0.45593999997E+02  0.45594000000E+02  0.51100000000E-03 0. -1.
         11   -1    0    0    0    0 -0.00000000000E+00 -0.00000000000E+00 -0.45593999997E+02  0.45594000000E+02  0.51100000000E-03 0.  1.
    9900012    2    1    2    0    0 -0.52173469152E+00  0.83624294973E+00 -0.64927723122E+00  0.90007716016E+02  0.89999977068E+02 0.  0.
         12    1    1    2    0    0  0.52173469152E+00 -0.83624294973E+00  0.64927723122E+00  0.11802839837E+01  0.00000000000E+00 0. -1.
         11    1    3    3    0    0  0.56792132491E+01 -0.39014137104E+01 -0.65360127942E+01  0.94970498354E+01  0.51100000000E-03 0. -1.
        -11    1    3    3    0    0 -0.47800602717E+01 -0.80933981581E+01 -0.35725811527E+02  0.36941652365E+02  0.51100000000E-03 0.  1.
         12    1    3    3    0    0 -0.14208876689E+01  0.12831054818E+02  0.41612547090E+02  0.43569013815E+02  0.00000000000E+00 0. -1.
</event>
<event>
 7    1  0.4008281E-015  0.9000777E+02  0.7816164E-02  0.1186339E+00
        -11   -1    0    0    0    0  0.00000000000E+00  0.00000000000E+00  0.45593999997E+02  0.45594000000E+02  0.51100000000E-03 0.  1.
         11   -1    0    0    0    0 -0.00000000000E+00 -0.00000000000E+00 -0.45593999997E+02  0.45594000000E+02  0.51100000000E-03 0. -1.
    9900012    2    1    2    0    0  0.94708089959E+00  0.11972058383E+00  0.69400413172E+00  0.90007772487E+02  0.90000034283E+02 0.  0.
         12    1    1    2    0    0 -0.94708089959E+00 -0.11972058383E+00 -0.69400413172E+00  0.11802275134E+01  0.00000000000E+00 0. -1.
         11    1    3    3    0    0 -0.29675551327E+01 -0.80591829081E+01 -0.57903320498E+01  0.10357835590E+02  0.51100000000E-03 0. -1.
        -11    1    3    3    0    0 -0.26133837947E+02 -0.21659308489E+02  0.13864544980E+02  0.36665088815E+02  0.51100000000E-03 0.  1.
         12    1    3    3    0    0  0.30048473979E+02  0.29838211980E+02 -0.73802087984E+01  0.42984848081E+02  0.00000000000E+00 0. -1.
</event>
<event>
 7    1  0.4008281E-015  0.9000772E+02  0.7816164E-02  0.1186339E+00
        -11   -1    0    0    0    0  0.00000000000E+00  0.00000000000E+00  0.45593999997E+02  0.45594000000E+02  0.51100000000E-03 0.  1.
         11   -1    0    0    0    0 -0.00000000000E+00 -0.00000000000E+00 -0.45593999997E+02  0.45594000000E+02  0.51100000000E-03 0. -1.
    9900012    2    1    2    0    0 -0.66966103537E+00 -0.55615526688E+00  0.79705672659E+00  0.90007722910E+02  0.89999984053E+02 0.  0.
         12    1    1    2    0    0  0.66966103537E+00  0.55615526688E+00 -0.79705672659E+00  0.11802770897E+01  0.00000000000E+00 0. -1.
         11    1    3    3    0    0  0.14464413562E+02 -0.31931220132E+02  0.36114850499E+01  0.35240103623E+02  0.51100000000E-03 0. -1.
        -11    1    3    3    0    0 -0.61359747390E+01 -0.52638016348E+01  0.11803847724E+02  0.14306942895E+02  0.51100000000E-03 0.  1.
        -12    1    3    3    0    0 -0.89980998579E+01  0.36638866500E+02 -0.14618276048E+02  0.40460676392E+02  0.00000000000E+00 0.  1.
</event>
<event>
 7    1  0.4008281E-015  0.9000779E+02  0.7816164E-02  0.1186339E+00
        -11   -1    0    0    0    0  0.00000000000E+00  0.00000000000E+00  0.45593999997E+02  0.45594000000E+02  0.51100000000E-03 0. -1.
         11   -1    0    0    0    0 -0.00000000000E+00 -0.00000000000E+00 -0.45593999997E+02  0.45594000000E+02  0.51100000000E-03 0.  1.
    9900012    2    1    2    0    0  0.80193823846E+00 -0.24137240085E+00 -0.83157704843E+00  0.90007794102E+02  0.90000056184E+02 0.  0.
         12    1    1    2    0    0 -0.80193823846E+00  0.24137240085E+00  0.83157704843E+00  0.11802058980E+01  0.00000000000E+00 0. -1.
         11    1    3    3    0    0 -0.63008444206E+01 -0.26000001208E+01  0.41996048299E+01  0.80060803162E+01  0.51100000000E-03 0. -1.
        -11    1    3    3    0    0 -0.29797141972E+02 -0.22487435421E+02 -0.34324731626E+01  0.37487815271E+02  0.51100000000E-03 0.  1.
         12    1    3    3    0    0  0.36899924631E+02  0.24846063141E+02 -0.15987087158E+01  0.44513898515E+02  0.00000000000E+00 0. -1.
</event>
<event>
 7    1  0.4008281E-015  0.9000778E+02  0.7816164E-02  0.1186339E+00
        -11   -1    0    0    0    0  0.00000000000E+00  0.00000000000E+00  0.45593999997E+02  0.45594000000E+02  0.51100000000E-03 0.  1.
         11   -1    0    0    0    0 -0.00000000000E+00 -0.00000000000E+00 -0.45593999997E+02  0.45594000000E+02  0.51100000000E-03 0. -1.
    9900012    2    1    2    0    0  0.10310443601E+01 -0.26389634689E+00  0.51011987015E+00  0.90007781361E+02  0.90000043275E+02 0.  0.
         12    1    1    2    0    0 -0.10310443601E+01  0.26389634689E+00 -0.51011987015E+00  0.11802186392E+01  0.00000000000E+00 0. -1.
         11    1    3    3    0    0  0.71443044525E+00  0.33283395255E+01  0.94383175342E+01  0.10033448709E+02  0.51100000000E-03 0. -1.
        -11    1    3    3    0    0 -0.35572761288E+02  0.15001119404E+02 -0.86024655719E+01  0.39553221654E+02  0.51100000000E-03 0.  1.
         12    1    3    3    0    0  0.35889375203E+02 -0.18593355277E+02 -0.32573209219E+00  0.40421110998E+02  0.00000000000E+00 0. -1.
</event>
<event>
 7    1  0.4008281E-015  0.9000774E+02  0.7816164E-02  0.1186339E+00
        -11   -1    0    0    0    0  0.00000000000E+00  0.00000000000E+00  0.45593999997E+02  0.45594000000E+02  0.51100000000E-03 0. -1.
         11   -1    0    0    0    0 -0.00000000000E+00 -0.00000000000E+00 -0.45593999997E+02  0.45594000000E+02  0.51100000000E-03 0.  1.
    9900012    2    1    2    0    0  0.68265233453E+00 -0.88461041795E+00 -0.38009201524E+00  0.90007737427E+02  0.89999998761E+02 0.  0.
         12    1    1    2    0    0 -0.68265233453E+00  0.88461041795E+00  0.38009201524E+00  0.11802625731E+01  0.00000000000E+00 0. -1.
         11    1    3    3    0    0 -0.94225115417E+01 -0.12078593907E+01  0.10965069801E+02  0.14507770471E+02  0.51100000000E-03 0. -1.
        -11    1    3    3    0    0 -0.30549819110E+02 -0.76557913446E+01  0.30452518518E+01  0.31641367667E+02  0.51100000000E-03 0.  1.
         12    1    3    3    0    0  0.40654982986E+02  0.79790403173E+01 -0.14390413668E+02  0.43858599288E+02  0.00000000000E+00 0. -1.
</event>
<event>
 7    1  0.4008281E-015  0.9000775E+02  0.7816164E-02  0.1186339E+00
        -11   -1    0    0    0    0  0.00000000000E+00  0.00000000000E+00  0.45593999997E+02  0.45594000000E+02  0.51100000000E-03 0.  1.
         11   -1    0    0    0    0 -0.00000000000E+00 -0.00000000000E+00 -0.45593999997E+02  0.45594000000E+02  0.51100000000E-03 0. -1.
    9900012    2    1    2    0    0  0.25108274081E+00 -0.31178959312E-01  0.11528143652E+01  0.90007747641E+02  0.90000009110E+02 0.  0.
         12    1    1    2    0    0 -0.25108274081E+00  0.31178959312E-01 -0.11528143652E+01  0.11802523589E+01  0.00000000000E+00 0. -1.
         11    1    3    3    0    0 -0.46949200538E+01  0.11905950213E+02  0.59345867916E+01  0.14107205443E+02  0.51100000000E-03 0. -1.
        -11    1    3    3    0    0 -0.20335041481E+02 -0.16163443379E+02  0.25381223292E+02  0.36317727213E+02  0.51100000000E-03 0.  1.
         12    1    3    3    0    0  0.25281044275E+02  0.42263142068E+01 -0.30162995718E+02  0.39582814985E+02  0.00000000000E+00 0. -1.
</event>
<event>
 7    1  0.4008281E-015  0.9000771E+02  0.7816164E-02  0.1186339E+00
        -11   -1    0    0    0    0  0.00000000000E+00  0.00000000000E+00  0.45593999997E+02  0.45594000000E+02  0.51100000000E-03 0.  1.
         11   -1    0    0    0    0 -0.00000000000E+00 -0.00000000000E+00 -0.45593999997E+02  0.45594000000E+02  0.51100000000E-03 0. -1.
    9900012    2    1    2    0    0 -0.32156555311E+00  0.51943821333E+00  0.10098804996E+01  0.90007712287E+02  0.89999973289E+02 0.  0.
         12    1    1    2    0    0  0.32156555311E+00 -0.51943821333E+00 -0.10098804996E+01  0.11802877132E+01  0.00000000000E+00 0. -1.
         11    1    3    3    0    0  0.48110974837E+01  0.11062531934E+02  0.17898303170E+01  0.12195481320E+02  0.51100000000E-03 0. -1.
        -11    1    3    3    0    0 -0.35512973189E+02  0.82589706792E+01  0.14123473577E+02  0.39100567356E+02  0.51100000000E-03 0.  1.
         12    1    3    3    0    0  0.30380310153E+02 -0.18802064400E+02 -0.14903423394E+02  0.38711663611E+02  0.00000000000E+00 0. -1.
</event>
<event>
 7    1  0.4008281E-015  0.9000778E+02  0.7816164E-02  0.1186339E+00
        -11   -1    0    0    0    0  0.00000000000E+00  0.00000000000E+00  0.45593999997E+02  0.45594000000E+02  0.51100000000E-03 0.  1.
         11   -1    0    0    0    0 -0.00000000000E+00 -0.00000000000E+00 -0.45593999997E+02  0.45594000000E+02  0.51100000000E-03 0. -1.
    9900012    2    1    2    0    0 -0.10806639879E+01 -0.41424742096E-01 -0.47263078987E+00  0.90007775222E+02  0.90000037054E+02 0.  0.
         12    1    1    2    0    0  0.10806639879E+01  0.41424742096E-01  0.47263078987E+00  0.11802247784E+01  0.00000000000E+00 0. -1.
         11    1    3    3    0    0  0.20048926200E+02 -0.23139894765E+02 -0.17992310562E+02  0.35512496549E+02  0.51100000000E-03 0. -1.
        -11    1    3    3    0    0  0.45346582640E+01 -0.89446400202E+01  0.46284983461E+00  0.10039120524E+02  0.51100000000E-03 0.  1.
        -12    1    3    3    0    0 -0.25664248452E+02  0.32043110043E+02  0.17056829938E+02  0.44456158149E+02  0.00000000000E+00 0.  1.
</event>
<event>
 7    1  0.4008281E-015  0.9000784E+02  0.7816164E-02  0.1186339E+00
        -11   -1    0    0    0    0  0.00000000000E+00  0.00000000000E+00  0.45593999997E+02  0.45594000000E+02  0.51100000000E-03 0.  1.
         11   -1    0    0    0    0 -0.00000000000E+00 -0.00000000000E+00 -0.45593999997E+02  0.45594000000E+02  0.51100000000E-03 0. -1.
    9900012    2    1    2    0    0 -0.83495894617E+00 -0.35321972533E+00 -0.75554642652E+00  0.90007842799E+02  0.90000105524E+02 0.  0.
         12    1    1    2    0    0  0.83495894617E+00  0.35321972533E+00  0.75554642652E+00  0.11801572009E+01  0.00000000000E+00 0. -1.
         11    1    3    3    0    0  0.11757627588E+00  0.91739123939E+00 -0.84524209452E+01  0.85028731005E+01  0.51100000000E-03 0. -1.
        -11    1    3    3    0    0  0.37692246910E+02 -0.14061781997E+02  0.93635314557E+00  0.40240724987E+02  0.51100000000E-03 0.  1.
         12    1    3    3    0    0 -0.38644782132E+02  0.12791171032E+02  0.67605213731E+01  0.41264244711E+02  0.00000000000E+00 0. -1.
</event>
<event>
 7    1  0.4008281E-015  0.9000762E+02  0.7816164E-02  0.1186339E+00
        -11   -1    0    0    0    0  0.00000000000E+00  0.00000000000E+00  0.45593999997E+02  0.45594000000E+02  0.51100000000E-03 0. -1.
         11   -1    0    0    0    0 -0.00000000000E+00 -0.00000000000E+00 -0.45593999997E+02  0.45594000000E+02  0.51100000000E-03 0.  1.
    9900012    2    1    2    0    0  0.62233640038E+00 -0.44928058095E+00 -0.89673383328E+00  0.90007624126E+02  0.89999883965E+02 0.  0.
         12    1    1    2    0    0 -0.62233640038E+00  0.44928058095E+00  0.89673383328E+00  0.11803758738E+01  0.00000000000E+00 0. -1.
         11    1    3    3    0    0 -0.15588659901E+02  0.31074424265E+02  0.17159721808E+02  0.38769604250E+02  0.51100000000E-03 0. -1.
        -11    1    3    3    0    0 -0.29728989877E+01  0.48121735824E+01 -0.63707434767E+01  0.85194786041E+01  0.51100000000E-03 0.  1.
        -12    1    3    3    0    0  0.19183895289E+02 -0.36335878429E+02 -0.11685712164E+02  0.42718541272E+02  0.00000000000E+00 0.  1.
</event>
<event>
 7    1  0.4008281E-015  0.9000773E+02  0.7816164E-02  0.1186339E+00
        -11   -1    0    0    0    0  0.00000000000E+00  0.00000000000E+00  0.45593999997E+02  0.45594000000E+02  0.51100000000E-03 0.  1.
         11   -1    0    0    0    0 -0.00000000000E+00 -0.00000000000E+00 -0.45593999997E+02  0.45594000000E+02  0.51100000000E-03 0. -1.
    9900012    2    1    2    0    0 -0.47347776767E+00 -0.22523325143E+00  0.10574189637E+01  0.90007726270E+02  0.89999987456E+02 0.  0.
         12    1    1    2    0    0  0.47347776767E+00  0.22523325143E+00 -0.10574189637E+01  0.11802737305E+01  0.00000000000E+00 0. -1.
         11    1    3    3    0    0  0.18523360518E+02 -0.27695422382E+02 -0.12148492074E+02  0.35464590308E+02  0.51100000000E-03 0. -1.
        -11    1    3    3    0    0  0.27560004347E+01 -0.52266947591E+01 -0.79735529492E+01  0.99242845281E+01  0.51100000000E-03 0.  1.
        -12    1    3    3    0    0 -0.21752838721E+02  0.32696883889E+02  0.21179463987E+02  0.44618851433E+02  0.00000000000E+00 0.  1.
</event>
<event>
 7    1  0.4008281E-015  0.9000772E+02  0.7816164E-02  0.1186339E+00
        -11   -1    0    0    0    0  0.00000000000E+00  0.00000000000E+00  0.45593999997E+02  0.45594000000E+02  0.51100000000E-03 0. -1.
         11   -1    0    0    0    0 -0.00000000000E+00 -0.00000000000E+00 -0.45593999997E+02  0.45594000000E+02  0.51100000000E-03 0.  1.
    9900012    2    1    2    0    0 -0.69338558555E-01  0.11374076450E+01 -0.30749090414E+00  0.90007722642E+02  0.89999983780E+02 0.  0.
         12    1    1    2    0    0  0.69338558555E-01 -0.11374076450E+01  0.30749090414E+00  0.11802773584E+01  0.00000000000E+00 0. -1.
         11    1    3    3    0    0  0.11348624383E+02 -0.21505735150E+02  0.22055800292E+02  0.32829045775E+02  0.51100000000E-03 0. -1.
        -11    1    3    3    0    0  0.12693939291E+02  0.27195893313E+01  0.65881762168E+01  0.14558033074E+02  0.51100000000E-03 0.  1.
        -12    1    3    3    0    0 -0.24111902233E+02  0.19923553464E+02 -0.28951467413E+02  0.42620643792E+02  0.00000000000E+00 0.  1.
</event>
<event>
 7    1  0.4008281E-015  0.9000790E+02  0.7816164E-02  0.1186339E+00
        -11   -1    0    0    0    0  0.00000000000E+00  0.00000000000E+00  0.45593999997E+02  0.45594000000E+02  0.51100000000E-03 0.  1.
         11   -1    0    0    0    0 -0.00000000000E+00 -0.00000000000E+00 -0.45593999997E+02  0.45594000000E+02  0.51100000000E-03 0. -1.
    9900012    2    1    2    0    0  0.55661993733E+00  0.98664435304E+00  0.33065730925E+00  0.90007903779E+02  0.90000167309E+02 0.  0.
         12    1    1    2    0    0 -0.55661993733E+00 -0.98664435304E+00 -0.33065730925E+00  0.11800962207E+01  0.00000000000E+00 0. -1.
         11    1    3    3    0    0 -0.32338071190E+01 -0.53313500539E+01  0.39818352376E+01  0.73983656304E+01  0.51100000000E-03 0. -1.
        -11    1    3    3    0    0  0.11186898803E+02 -0.17365705302E+01  0.37946112016E+02  0.39598861087E+02  0.51100000000E-03 0.  1.
         12    1    3    3    0    0 -0.73964717468E+01  0.80545649371E+01 -0.41597289944E+02  0.43010677062E+02  0.00000000000E+00 0. -1.
</event>
<event>
 7    1  0.4008281E-015  0.9000762E+02  0.7816164E-02  0.1186339E+00
        -11   -1    0    0    0    0  0.00000000000E+00  0.00000000000E+00  0.45593999997E+02  0.45594000000E+02  0.51100000000E-03 0. -1.
         11   -1    0    0    0    0 -0.00000000000E+00 -0.00000000000E+00 -0.45593999997E+02  0.45594000000E+02  0.51100000000E-03 0.  1.
    9900012    2    1    2    0    0 -0.10191767145E+01  0.39523947264E+00 -0.44538026042E+00  0.90007619132E+02  0.89999878905E+02 0.  0.
         12    1    1    2    0    0  0.10191767145E+01 -0.39523947264E+00  0.44538026042E+00  0.11803808675E+01  0.00000000000E+00 0. -1.
         11    1    3    3    0    0  0.14522415995E+02 -0.32461988746E+02 -0.12844259522E+02  0.37810795847E+02  0.51100000000E-03 0. -1.
        -11    1    3    3    0    0  0.53565699752E+01 -0.37564836384E+01  0.71853460986E+01  0.97176751357E+01  0.51100000000E-03 0.  1.
        -12    1    3    3    0    0 -0.20898162684E+02  0.36613711857E+02  0.52135331625E+01  0.42479148150E+02  0.00000000000E+00 0.  1.
</event>
<event>
 7    1  0.4008281E-015  0.9000713E+02  0.7816164E-02  0.1186340E+00
        -11   -1    0    0    0    0  0.00000000000E+00  0.00000000000E+00  0.45593999997E+02  0.45594000000E+02  0.51100000000E-03 0.  1.
         11   -1    0    0    0    0 -0.00000000000E+00 -0.00000000000E+00 -0.45593999997E+02  0.45594000000E+02  0.51100000000E-03 0. -1.
    9900012    2    1    2    0    0 -0.77523882973E-01 -0.60486154147E+00  0.10112337704E+01  0.90007126944E+02  0.89999380217E+02 0.  0.
         12    1    1    2    0    0  0.77523882973E-01  0.60486154147E+00 -0.10112337704E+01  0.11808730564E+01  0.00000000000E+00 0. -1.
         11    1    3    3    0    0  0.43550536133E+00  0.33815256423E+02 -0.88998983290E+01  0.34969549931E+02  0.51100000000E-03 0. -1.
        -11    1    3    3    0    0 -0.25248679101E+01  0.53626129918E+01 -0.91313090699E+01  0.10886385151E+02  0.51100000000E-03 0.  1.
        -12    1    3    3    0    0  0.20118386658E+01 -0.39782730956E+02  0.19042441169E+02  0.44151191862E+02  0.00000000000E+00 0.  1.
</event>
<event>
 7    1  0.4008281E-015  0.9000771E+02  0.7816164E-02  0.1186339E+00
        -11   -1    0    0    0    0  0.00000000000E+00  0.00000000000E+00  0.45593999997E+02  0.45594000000E+02  0.51100000000E-03 0. -1.
         11   -1    0    0    0    0 -0.00000000000E+00 -0.00000000000E+00 -0.45593999997E+02  0.45594000000E+02  0.51100000000E-03 0.  1.
    9900012    2    1    2    0    0 -0.18754451223E+00  0.10032770263E+01 -0.59273537300E+00  0.90007714883E+02  0.89999975919E+02 0.  0.
         12    1    1    2    0    0  0.18754451223E+00 -0.10032770263E+01  0.59273537300E+00  0.11802851173E+01  0.00000000000E+00 0. -1.
         11    1    3    3    0    0 -0.24022833589E+02  0.80009582367E+01  0.35045511554E+02  0.43235399232E+02  0.51100000000E-03 0. -1.
        -11    1    3    3    0    0  0.59433284443E+01 -0.77146767783E+01 -0.42284410012E+01  0.10616925372E+02  0.51100000000E-03 0.  1.
        -12    1    3    3    0    0  0.17891960633E+02  0.71699556793E+00 -0.31409805926E+02  0.36155390279E+02  0.00000000000E+00 0.  1.
</event>
<event>
 7    1  0.4008281E-015  0.9000778E+02  0.7816164E-02  0.1186339E+00
        -11   -1    0    0    0    0  0.00000000000E+00  0.00000000000E+00  0.45593999997E+02  0.45594000000E+02  0.51100000000E-03 0.  1.
         11   -1    0    0    0    0 -0.00000000000E+00 -0.00000000000E+00 -0.45593999997E+02  0.45594000000E+02  0.51100000000E-03 0. -1.
    9900012    2    1    2    0    0  0.30042912750E+00 -0.10309045899E+01  0.48979608207E+00  0.90007778777E+02  0.90000040656E+02 0.  0.
         12    1    1    2    0    0 -0.30042912750E+00  0.10309045899E+01 -0.48979608207E+00  0.11802212234E+01  0.00000000000E+00 0. -1.
         11    1    3    3    0    0  0.59660630143E+00 -0.49368143706E+01  0.77954659061E+01  0.92464784736E+01  0.51100000000E-03 0. -1.
        -11    1    3    3    0    0 -0.39295843341E+02  0.10916212010E+02 -0.27706080645E+01  0.40877906720E+02  0.51100000000E-03 0.  1.
         12    1    3    3    0    0  0.38999666167E+02 -0.70103022297E+01 -0.45350617595E+01  0.39883393583E+02  0.00000000000E+00 0. -1.
</event>
<event>
 7    1  0.4008281E-015  0.9000781E+02  0.7816164E-02  0.1186339E+00
        -11   -1    0    0    0    0  0.00000000000E+00  0.00000000000E+00  0.45593999997E+02  0.45594000000E+02  0.51100000000E-03 0. -1.
         11   -1    0    0    0    0 -0.00000000000E+00 -0.00000000000E+00 -0.45593999997E+02  0.45594000000E+02  0.51100000000E-03 0.  1.
    9900012    2    1    2    0    0  0.48231129457E+00 -0.87392035108E+00 -0.62966545135E+00  0.90007813767E+02  0.90000076108E+02 0.  0.
         12    1    1    2    0    0 -0.48231129457E+00  0.87392035108E+00  0.62966545135E+00  0.11801862334E+01  0.00000000000E+00 0. -1.
         11    1    3    3    0    0  0.46140444054E+00 -0.78304820822E+01  0.55100106456E+00  0.78633927875E+01  0.51100000000E-03 0. -1.
        -11    1    3    3    0    0 -0.15319432640E+02 -0.27544922050E+02 -0.22553856510E+02  0.38756730911E+02  0.51100000000E-03 0.  1.
         12    1    3    3    0    0  0.15340339494E+02  0.34501483781E+02  0.21373189994E+02  0.43387690068E+02  0.00000000000E+00 0. -1.
</event>
<event>
 7    1  0.4008281E-015  0.9000772E+02  0.7816164E-02  0.1186339E+00
        -11   -1    0    0    0    0  0.00000000000E+00  0.00000000000E+00  0.45593999997E+02  0.45594000000E+02  0.51100000000E-03 0.  1.
         11   -1    0    0    0    0 -0.00000000000E+00 -0.00000000000E+00 -0.45593999997E+02  0.45594000000E+02  0.51100000000E-03 0. -1.
    9900012    2    1    2    0    0 -0.11975274904E+00  0.37934303724E+00  0.11112221323E+01  0.90007721860E+02  0.89999982988E+02 0.  0.
         12    1    1    2    0    0  0.11975274904E+00 -0.37934303724E+00 -0.11112221323E+01  0.11802781401E+01  0.00000000000E+00 0. -1.
         11    1    3    3    0    0  0.38343851661E+02  0.13055227957E+02 -0.86167968085E+01  0.41411823489E+02  0.51100000000E-03 0. -1.
        -11    1    3    3    0    0 -0.31983424421E+01  0.37925473399E+01  0.82743939118E+01  0.96477149922E+01  0.51100000000E-03 0.  1.
        -12    1    3    3    0    0 -0.35265261968E+02 -0.16468432260E+02  0.14536250290E+01  0.38948183378E+02  0.00000000000E+00 0.  1.
</event>
<event>
 7    1  0.4738799E-015  0.9000774E+02  0.7816164E-02  0.1186339E+00
        -11   -1    0    0    0    0  0.00000000000E+00  0.00000000000E+00  0.45593999997E+02  0.45594000000E+02  0.51100000000E-03 0. -1.
         11   -1    0    0    0    0 -0.00000000000E+00 -0.00000000000E+00 -0.45593999997E+02  0.45594000000E+02  0.51100000000E-03 0.  1.
    9900012    2    1    2    0    0  0.10385999961E+01  0.47820234866E+00 -0.29266241730E+00  0.90007737856E+02  0.89999999196E+02 0.  0.
         12    1    1    2    0    0 -0.10385999961E+01 -0.47820234866E+00  0.29266241730E+00  0.11802621440E+01  0.00000000000E+00 0. -1.
         11    1    3    3    0    0  0.56730700116E+01 -0.35229102778E+01  0.76554870671E+01  0.10158794352E+02  0.51100000000E-03 0. -1.
        -11    1    3    3    0    0 -0.36783585261E+02 -0.14634900558E+02  0.62314849363E+01  0.40075477088E+02  0.51100000000E-03 0.  1.
         12    1    3    3    0    0  0.32149115246E+02  0.18636013185E+02 -0.14179634421E+02  0.39773466417E+02  0.00000000000E+00 0. -1.
</event>
<event>
 7    1  0.4008281E-015  0.9000775E+02  0.7816164E-02  0.1186339E+00
        -11   -1    0    0    0    0  0.00000000000E+00  0.00000000000E+00  0.45593999997E+02  0.45594000000E+02  0.51100000000E-03 0.  1.
         11   -1    0    0    0    0 -0.00000000000E+00 -0.00000000000E+00 -0.45593999997E+02  0.45594000000E+02  0.51100000000E-03 0. -1.
    9900012    2    1    2    0    0 -0.10130864965E+01  0.11155183584E+00  0.59514758651E+00  0.90007750572E+02  0.90000012080E+02 0.  0.
         12    1    1    2    0    0  0.10130864965E+01 -0.11155183584E+00 -0.59514758651E+00  0.11802494275E+01  0.00000000000E+00 0. -1.
         11    1    3    3    0    0  0.62948865366E+01  0.20680318536E+01  0.46953706825E+01  0.81208902445E+01  0.51100000000E-03 0. -1.
        -11    1    3    3    0    0 -0.24006286094E+02 -0.35713691509E+02 -0.88324859821E+01  0.43929287977E+02  0.51100000000E-03 0.  1.
         12    1    3    3    0    0  0.16698313061E+02  0.33757211492E+02  0.47322628861E+01  0.37957572351E+02  0.00000000000E+00 0. -1.
</event>
<event>
 7    1  0.4008281E-015  0.9000782E+02  0.7816164E-02  0.1186339E+00
        -11   -1    0    0    0    0  0.00000000000E+00  0.00000000000E+00  0.45593999997E+02  0.45594000000E+02  0.51100000000E-03 0.  1.
         11   -1    0    0    0    0 -0.00000000000E+00 -0.00000000000E+00 -0.45593999997E+02  0.45594000000E+02  0.51100000000E-03 0. -1.
    9900012    2    1    2    0    0  0.89618880730E+00 -0.26429878622E-02  0.76789936209E+00  0.90007817474E+02  0.90000079865E+02 0.  0.
         12    1    1    2    0    0 -0.89618880730E+00  0.26429878622E-02 -0.76789936209E+00  0.11801825257E+01  0.00000000000E+00 0. -1.
         11    1    3    3    0    0 -0.91549698972E-01  0.86882284831E+01  0.30557845164E+00  0.86940826987E+01  0.51100000000E-03 0. -1.
        -11    1    3    3    0    0 -0.26647131880E+01 -0.20344287960E+02  0.37263623258E+02  0.42539021704E+02  0.51100000000E-03 0.  1.
         12    1    3    3    0    0  0.36524516943E+01  0.11653416489E+02 -0.36801302348E+02  0.38774713071E+02  0.00000000000E+00 0. -1.
</event>
<event>
 7    1  0.4008281E-015  0.9000774E+02  0.7816164E-02  0.1186339E+00
        -11   -1    0    0    0    0  0.00000000000E+00  0.00000000000E+00  0.45593999997E+02  0.45594000000E+02  0.51100000000E-03 0.  1.
         11   -1    0    0    0    0 -0.00000000000E+00 -0.00000000000E+00 -0.45593999997E+02  0.45594000000E+02  0.51100000000E-03 0. -1.
    9900012    2    1    2    0    0 -0.67881435172E+00  0.45374815384E+00  0.85224896155E+00  0.90007743840E+02  0.90000005258E+02 0.  0.
         12    1    1    2    0    0  0.67881435172E+00 -0.45374815384E+00 -0.85224896155E+00  0.11802561602E+01  0.00000000000E+00 0. -1.
         11    1    3    3    0    0  0.30004322267E+02 -0.26459869085E+01 -0.24863125774E+02  0.39056825587E+02  0.51100000000E-03 0. -1.
        -11    1    3    3    0    0  0.33032426183E+01  0.89109971229E+01  0.57684395620E+01  0.11117201840E+02  0.51100000000E-03 0.  1.
        -12    1    3    3    0    0 -0.33986379237E+02 -0.58112620605E+01  0.19946935173E+02  0.39833716412E+02  0.00000000000E+00 0.  1.
</event>
<event>
 7    1  0.4008281E-015  0.9000765E+02  0.7816164E-02  0.1186339E+00
        -11   -1    0    0    0    0  0.00000000000E+00  0.00000000000E+00  0.45593999997E+02  0.45594000000E+02  0.51100000000E-03 0. -1.
         11   -1    0    0    0    0 -0.00000000000E+00 -0.00000000000E+00 -0.45593999997E+02  0.45594000000E+02  0.51100000000E-03 0.  1.
    9900012    2    1    2    0    0  0.11184871351E+01  0.11535647061E+00 -0.35902389114E+00  0.90007653127E+02  0.89999913348E+02 0.  0.
         12    1    1    2    0    0 -0.11184871351E+01 -0.11535647061E+00  0.35902389114E+00  0.11803468732E+01  0.00000000000E+00 0. -1.
         11    1    3    3    0    0  0.10300593690E+02 -0.13668893106E+02  0.38280131309E+02  0.41932199113E+02  0.51100000000E-03 0. -1.
        -11    1    3    3    0    0  0.68735426035E+01  0.47470073744E+01 -0.50394599695E+01  0.97558097552E+01  0.51100000000E-03 0.  1.
        -12    1    3    3    0    0 -0.16055649158E+02  0.90372422021E+01 -0.33599695231E+02  0.38319644259E+02  0.00000000000E+00 0.  1.
</event>
<event>
 7    1  0.4008281E-015  0.9000768E+02  0.7816164E-02  0.1186339E+00
        -11   -1    0    0    0    0  0.00000000000E+00  0.00000000000E+00  0.45593999997E+02  0.45594000000E+02  0.51100000000E-03 0. -1.
         11   -1    0    0    0    0 -0.00000000000E+00 -0.00000000000E+00 -0.45593999997E+02  0.45594000000E+02  0.51100000000E-03 0.  1.
    9900012    2    1    2    0    0 -0.80340760051E+00  0.86428759131E+00 -0.26210558731E-01  0.90007684870E+02  0.89999945510E+02 0.  0.
         12    1    1    2    0    0  0.80340760051E+00 -0.86428759131E+00  0.26210558731E-01  0.11803151301E+01  0.00000000000E+00 0. -1.
         11    1    3    3    0    0  0.26945384527E+01 -0.70037829974E+01 -0.65324101114E+01  0.99491655868E+01  0.51100000000E-03 0. -1.
        -11    1    3    3    0    0  0.36536608832E+02  0.39805540326E+01 -0.74175961734E+01  0.37493857212E+02  0.51100000000E-03 0.  1.
         12    1    3    3    0    0 -0.40034554885E+02  0.38875165561E+01  0.13923795726E+02  0.42564662071E+02  0.00000000000E+00 0. -1.
</event>
<event>
 7    1  0.4008281E-015  0.9000739E+02  0.7816164E-02  0.1186340E+00
        -11   -1    0    0    0    0  0.00000000000E+00  0.00000000000E+00  0.45593999997E+02  0.45594000000E+02  0.51100000000E-03 0.  1.
         11   -1    0    0    0    0 -0.00000000000E+00 -0.00000000000E+00 -0.45593999997E+02  0.45594000000E+02  0.51100000000E-03 0. -1.
    9900012    2    1    2    0    0 -0.50125006574E-02  0.11775485558E+01  0.84888287069E-01  0.90007385013E+02  0.89999641694E+02 0.  0.
         12    1    1    2    0    0  0.50125006574E-02 -0.11775485558E+01 -0.84888287069E-01  0.11806149871E+01  0.00000000000E+00 0. -1.
         11    1    3    3    0    0  0.23958720707E+01  0.79333701662E+01 -0.21444362709E+01  0.85602086630E+01  0.51100000000E-03 0. -1.
        -11    1    3    3    0    0  0.29519173347E+02  0.16004741276E+02  0.19253084451E+02  0.38706777179E+02  0.51100000000E-03 0.  1.
         12    1    3    3    0    0 -0.31920057919E+02 -0.22760562886E+02 -0.17023759893E+02  0.42740399171E+02  0.00000000000E+00 0. -1.
</event>
<event>
 7    1  0.4008281E-015  0.9000780E+02  0.7816164E-02  0.1186339E+00
        -11   -1    0    0    0    0  0.00000000000E+00  0.00000000000E+00  0.45593999997E+02  0.45594000000E+02  0.51100000000E-03 0.  1.
         11   -1    0    0    0    0 -0.00000000000E+00 -0.00000000000E+00 -0.45593999997E+02  0.45594000000E+02  0.51100000000E-03 0. -1.
    9900012    2    1    2    0    0 -0.95522000910E+00 -0.58386760238E+00 -0.37352070961E+00  0.90007803252E+02  0.90000065455E+02 0.  0.
         12    1    1    2    0    0  0.95522000910E+00  0.58386760238E+00  0.37352070961E+00  0.11801967478E+01  0.00000000000E+00 0. -1.
         11    1    3    3    0    0  0.70097687217E+01  0.68149086907E+01 -0.43700729789E+01  0.10708752313E+02  0.51100000000E-03 0. -1.
        -11    1    3    3    0    0  0.20944167510E+01 -0.32836450884E+01  0.40768713914E+02  0.40954327501E+02  0.51100000000E-03 0.  1.
         12    1    3    3    0    0 -0.10059405482E+02 -0.41151312048E+01 -0.36772161645E+02  0.38344723438E+02  0.00000000000E+00 0. -1.
</event>
<event>
 7    1  0.4008281E-015  0.9000770E+02  0.7816164E-02  0.1186339E+00
        -11   -1    0    0    0    0  0.00000000000E+00  0.00000000000E+00  0.45593999997E+02  0.45594000000E+02  0.51100000000E-03 0.  1.
         11   -1    0    0    0    0 -0.00000000000E+00 -0.00000000000E+00 -0.45593999997E+02  0.45594000000E+02  0.51100000000E-03 0. -1.
    9900012    2    1    2    0    0 -0.70861983962E+00 -0.61740617153E+00  0.71397875148E+00  0.90007704225E+02  0.89999965121E+02 0.  0.
         12    1    1    2    0    0  0.70861983962E+00  0.61740617153E+00 -0.71397875148E+00  0.11802957745E+01  0.00000000000E+00 0. -1.
         11    1    3    3    0    0 -0.27877199418E+02 -0.17841764012E+02  0.10745244741E+02  0.34798377480E+02  0.51100000000E-03 0. -1.
        -11    1    3    3    0    0  0.22024442340E+02 -0.10784590185E+02 -0.10624555218E+02  0.26725729544E+02  0.51100000000E-03 0.  1.
        -12    1    3    3    0    0  0.51441372384E+01  0.28008948025E+02  0.59328922873E+00  0.28483597201E+02  0.00000000000E+00 0.  1.
</event>
<event>
 7    1  0.4008281E-015  0.9000784E+02  0.7816164E-02  0.1186339E+00
        -11   -1    0    0    0    0  0.00000000000E+00  0.00000000000E+00  0.45593999997E+02  0.45594000000E+02  0.51100000000E-03 0.  1.
         11   -1    0    0    0    0 -0.00000000000E+00 -0.00000000000E+00 -0.45593999997E+02  0.45594000000E+02  0.51100000000E-03 0. -1.
    9900012    2    1    2    0    0  0.85359253946E-01 -0.97549137229E+00  0.65871795909E+00  0.90007839431E+02  0.90000102111E+02 0.  0.
         12    1    1    2    0    0 -0.85359253946E-01  0.97549137229E+00 -0.65871795909E+00  0.11801605693E+01  0.00000000000E+00 0. -1.
         11    1    3    3    0    0  0.15305464139E+02 -0.35686849441E+02 -0.35240248840E+01  0.38990091141E+02  0.51100000000E-03 0. -1.
        -11    1    3    3    0    0  0.33408670086E+01  0.90290544520E+01  0.14750818503E+02  0.17614535572E+02  0.51100000000E-03 0.  1.
        -12    1    3    3    0    0 -0.18560971894E+02  0.25682303617E+02 -0.10568075660E+02  0.33403212717E+02  0.00000000000E+00 0.  1.
</event>
<event>
 7    1  0.4008281E-015  0.9000846E+02  0.7816164E-02  0.1186338E+00
        -11   -1    0    0    0    0  0.00000000000E+00  0.00000000000E+00  0.45593999997E+02  0.45594000000E+02  0.51100000000E-03 0. -1.
         11   -1    0    0    0    0 -0.00000000000E+00 -0.00000000000E+00 -0.45593999997E+02  0.45594000000E+02  0.51100000000E-03 0.  1.
    9900012    2    1    2    0    0  0.30939797305E+00  0.10737991413E+01  0.37755972575E+00  0.90008456424E+02  0.90000727246E+02 0.  0.
         12    1    1    2    0    0 -0.30939797305E+00 -0.10737991413E+01 -0.37755972575E+00  0.11795435762E+01  0.00000000000E+00 0. -1.
         11    1    3    3    0    0 -0.35354945864E+02 -0.16898275891E+02  0.34356824102E+01  0.39336088253E+02  0.51100000000E-03 0. -1.
        -11    1    3    3    0    0  0.23544824842E+01 -0.63169335245E+01 -0.64215029162E+01  0.93103671724E+01  0.51100000000E-03 0.  1.
        -12    1    3    3    0    0  0.33309861353E+02  0.24289008556E+02  0.33633802318E+01  0.41362000999E+02  0.00000000000E+00 0.  1.
</event>
<event>
 7    1  0.4008281E-015  0.9000771E+02  0.7816164E-02  0.1186339E+00
        -11   -1    0    0    0    0  0.00000000000E+00  0.00000000000E+00  0.45593999997E+02  0.45594000000E+02  0.51100000000E-03 0. -1.
         11   -1    0    0    0    0 -0.00000000000E+00 -0.00000000000E+00 -0.45593999997E+02  0.45594000000E+02  0.51100000000E-03 0.  1.
    9900012    2    1    2    0    0 -0.20163993663E+00  0.10991438288E+01 -0.37988268309E+00  0.90007709073E+02  0.89999970032E+02 0.  0.
         12    1    1    2    0    0  0.20163993663E+00 -0.10991438288E+01  0.37988268309E+00  0.11802909274E+01  0.00000000000E+00 0. -1.
         11    1    3    3    0    0  0.16960626917E+01  0.79844413475E+01  0.57964944415E+01  0.10011357568E+02  0.51100000000E-03 0. -1.
        -11    1    3    3    0    0  0.32864874697E+02  0.12879244350E+02 -0.16097372930E+02  0.38795622684E+02  0.51100000000E-03 0.  1.
         12    1    3    3    0    0 -0.34762577326E+02 -0.19764541869E+02  0.99209958057E+01  0.41200728821E+02  0.00000000000E+00 0. -1.
</event>
<event>
 7    1  0.4008281E-015  0.9000775E+02  0.7816164E-02  0.1186339E+00
        -11   -1    0    0    0    0  0.00000000000E+00  0.00000000000E+00  0.45593999997E+02  0.45594000000E+02  0.51100000000E-03 0.  1.
         11   -1    0    0    0    0 -0.00000000000E+00 -0.00000000000E+00 -0.45593999997E+02  0.45594000000E+02  0.51100000000E-03 0. -1.
    9900012    2    1    2    0    0 -0.58862478639E+00  0.73111031606E+00  0.71554070503E+00  0.90007745818E+02  0.90000007263E+02 0.  0.
         12    1    1    2    0    0  0.58862478639E+00 -0.73111031606E+00 -0.71554070503E+00  0.11802541819E+01  0.00000000000E+00 0. -1.
         11    1    3    3    0    0  0.31305254867E+02  0.14191066771E+02 -0.22567849927E+02  0.41118283148E+02  0.51100000000E-03 0. -1.
        -11    1    3    3    0    0 -0.41247077794E+01 -0.36938462574E+01 -0.54392792733E+01  0.77616669416E+01  0.51100000000E-03 0.  1.
        -12    1    3    3    0    0 -0.27769171874E+02 -0.97661101979E+01  0.28722669906E+02  0.41127795729E+02  0.00000000000E+00 0.  1.
</event>
<event>
 7    1  0.4008281E-015  0.9000778E+02  0.7816164E-02  0.1186339E+00
        -11   -1    0    0    0    0  0.00000000000E+00  0.00000000000E+00  0.45593999997E+02  0.45594000000E+02  0.51100000000E-03 0. -1.
         11   -1    0    0    0    0 -0.00000000000E+00 -0.00000000000E+00 -0.45593999997E+02  0.45594000000E+02  0.51100000000E-03 0.  1.
    9900012    2    1    2    0    0  0.11512191161E+01 -0.32512515126E-01 -0.25799499289E+00  0.90007778015E+02  0.90000039885E+02 0.  0.
         12    1    1    2    0    0 -0.11512191161E+01  0.32512515126E-01  0.25799499289E+00  0.11802219847E+01  0.00000000000E+00 0. -1.
         11    1    3    3    0    0  0.24847451109E+02 -0.89373130217E+01  0.31929633479E+02  0.41433958114E+02  0.51100000000E-03 0. -1.
        -11    1    3    3    0    0 -0.94235834534E+01 -0.39878964708E+01  0.93143676127E+00  0.10274960733E+02  0.51100000000E-03 0.  1.
        -12    1    3    3    0    0 -0.14272648539E+02  0.12892696977E+02 -0.33119065233E+02  0.38298859168E+02  0.00000000000E+00 0.  1.
</event>
<event>
 7    1  0.4008281E-015  0.9000842E+02  0.7816164E-02  0.1186338E+00
        -11   -1    0    0    0    0  0.00000000000E+00  0.00000000000E+00  0.45593999997E+02  0.45594000000E+02  0.51100000000E-03 0.  1.
         11   -1    0    0    0    0 -0.00000000000E+00 -0.00000000000E+00 -0.45593999997E+02  0.45594000000E+02  0.51100000000E-03 0. -1.
    9900012    2    1    2    0    0 -0.97887800725E+00  0.17568283947E+00 -0.63429676760E+00  0.90008424228E+02  0.90000694625E+02 0.  0.
         12    1    1    2    0    0  0.97887800725E+00 -0.17568283947E+00  0.63429676760E+00  0.11795757723E+01  0.00000000000E+00 0. -1.
         11    1    3    3    0    0 -0.29463326638E+02 -0.76055542828E+01 -0.26540175837E+02  0.40377134696E+02  0.51100000000E-03 0. -1.
        -11    1    3    3    0    0 -0.43770644620E+01 -0.48452964765E+01  0.73676245067E+01  0.98446677131E+01  0.51100000000E-03 0.  1.
        -12    1    3    3    0    0  0.32861513093E+02  0.12626533599E+02  0.18538254563E+02  0.39786621818E+02  0.00000000000E+00 0.  1.
</event>
<event>
 7    1  0.4008281E-015  0.9000780E+02  0.7816164E-02  0.1186339E+00
        -11   -1    0    0    0    0  0.00000000000E+00  0.00000000000E+00  0.45593999997E+02  0.45594000000E+02  0.51100000000E-03 0. -1.
         11   -1    0    0    0    0 -0.00000000000E+00 -0.00000000000E+00 -0.45593999997E+02  0.45594000000E+02  0.51100000000E-03 0.  1.
    9900012    2    1    2    0    0 -0.84694063975E+00  0.14970501878E+00 -0.80817975118E+00  0.90007798937E+02  0.90000061083E+02 0.  0.
         12    1    1    2    0    0  0.84694063975E+00 -0.14970501878E+00  0.80817975118E+00  0.11802010634E+01  0.00000000000E+00 0. -1.
         11    1    3    3    0    0 -0.14202907859E+02  0.19221213514E+02  0.29543571699E+02  0.38000003547E+02  0.51100000000E-03 0. -1.
        -11    1    3    3    0    0  0.18759286441E+02 -0.14155467221E+02 -0.29930622368E+01  0.23690641651E+02  0.51100000000E-03 0.  1.
        -12    1    3    3    0    0 -0.54033192214E+01 -0.49160412743E+01 -0.27358689213E+02  0.28317153739E+02  0.00000000000E+00 0.  1.
</event>
<event>
 7    1  0.4008281E-015  0.9000774E+02  0.7816164E-02  0.1186339E+00
        -11   -1    0    0    0    0  0.00000000000E+00  0.00000000000E+00  0.45593999997E+02  0.45594000000E+02  0.51100000000E-03 0.  1.
         11   -1    0    0    0    0 -0.00000000000E+00 -0.00000000000E+00 -0.45593999997E+02  0.45594000000E+02  0.51100000000E-03 0. -1.
    9900012    2    1    2    0    0  0.57334886550E+00  0.65436215509E+00  0.79755967966E+00  0.90007737235E+02  0.89999998567E+02 0.  0.
         12    1    1    2    0    0 -0.57334886550E+00 -0.65436215509E+00 -0.79755967966E+00  0.11802627649E+01  0.00000000000E+00 0. -1.
         11    1    3    3    0    0  0.32099108797E+02 -0.23709913643E+01 -0.26323895557E+02  0.41580306194E+02  0.51100000000E-03 0. -1.
        -11    1    3    3    0    0  0.12510898257E+01  0.66695246693E+01  0.72228621727E+01  0.99104754323E+01  0.51100000000E-03 0.  1.
        -12    1    3    3    0    0 -0.32776849758E+02 -0.36441711500E+01  0.19898593064E+02  0.38516955609E+02  0.00000000000E+00 0.  1.
</event>
<event>
 7    1  0.4008281E-015  0.9000773E+02  0.7816164E-02  0.1186339E+00
        -11   -1    0    0    0    0  0.00000000000E+00  0.00000000000E+00  0.45593999997E+02  0.45594000000E+02  0.51100000000E-03 0.  1.
         11   -1    0    0    0    0 -0.00000000000E+00 -0.00000000000E+00 -0.45593999997E+02  0.45594000000E+02  0.51100000000E-03 0. -1.
    9900012    2    1    2    0    0 -0.11223603040E+01  0.14301822634E+00 -0.33599229610E+00  0.90007729824E+02  0.89999991058E+02 0.  0.
         12    1    1    2    0    0  0.11223603040E+01 -0.14301822634E+00  0.33599229610E+00  0.11802701759E+01  0.00000000000E+00 0. -1.
         11    1    3    3    0    0 -0.17005307949E+02  0.17081206924E+02 -0.30944605985E+02  0.39223931066E+02  0.51100000000E-03 0. -1.
        -11    1    3    3    0    0  0.25602014224E+01  0.88029513182E+01  0.79339057400E+00  0.92019591446E+01  0.51100000000E-03 0.  1.
        -12    1    3    3    0    0  0.13322746223E+02 -0.25741140016E+02  0.29815223115E+02  0.41581839614E+02  0.00000000000E+00 0.  1.
</event>
<event>
 7    1  0.4008281E-015  0.9000769E+02  0.7816164E-02  0.1186339E+00
        -11   -1    0    0    0    0  0.00000000000E+00  0.00000000000E+00  0.45593999997E+02  0.45594000000E+02  0.51100000000E-03 0.  1.
         11   -1    0    0    0    0 -0.00000000000E+00 -0.00000000000E+00 -0.45593999997E+02  0.45594000000E+02  0.51100000000E-03 0. -1.
    9900012    2    1    2    0    0 -0.18821142512E+00 -0.96308276808E-01  0.11612253596E+01  0.90007685144E+02  0.89999945787E+02 0.  0.
         12    1    1    2    0    0  0.18821142512E+00  0.96308276808E-01 -0.11612253596E+01  0.11803148565E+01  0.00000000000E+00 0. -1.
         11    1    3    3    0    0  0.85176226624E+00  0.60095721595E+01 -0.36490461893E+01  0.70820897235E+01  0.51100000000E-03 0. -1.
        -11    1    3    3    0    0 -0.27832470567E+02  0.15617080893E+02 -0.22401173565E+02  0.38991694126E+02  0.51100000000E-03 0.  1.
         12    1    3    3    0    0  0.26792496875E+02 -0.21722961329E+02  0.27211445114E+02  0.43933901294E+02  0.00000000000E+00 0. -1.
</event>
<event>
 7    1  0.4008281E-015  0.9000780E+02  0.7816164E-02  0.1186339E+00
        -11   -1    0    0    0    0  0.00000000000E+00  0.00000000000E+00  0.45593999997E+02  0.45594000000E+02  0.51100000000E-03 0.  1.
         11   -1    0    0    0    0 -0.00000000000E+00 -0.00000000000E+00 -0.45593999997E+02  0.45594000000E+02  0.51100000000E-03 0. -1.
    9900012    2    1    2    0    0  0.37409007504E+00  0.11134587157E+01  0.11460257889E+00  0.90007801946E+02  0.90000064132E+02 0.  0.
         12    1    1    2    0    0 -0.37409007504E+00 -0.11134587157E+01 -0.11460257889E+00  0.11801980541E+01  0.00000000000E+00 0. -1.
         11    1    3    3    0    0 -0.71989053649E+01 -0.13294383946E+01 -0.12110936997E+02  0.14151552569E+02  0.51100000000E-03 0. -1.
        -11    1    3    3    0    0 -0.17483415818E+02 -0.23651925551E+02  0.23840086844E+02  0.37860707230E+02  0.51100000000E-03 0.  1.
         12    1    3    3    0    0  0.25056411258E+02  0.26094822661E+02 -0.11614547268E+02  0.37995542148E+02  0.00000000000E+00 0. -1.
</event>
<event>
 7    1  0.4008281E-015  0.9000788E+02  0.7816164E-02  0.1186339E+00
        -11   -1    0    0    0    0  0.00000000000E+00  0.00000000000E+00  0.45593999997E+02  0.45594000000E+02  0.51100000000E-03 0. -1.
         11   -1    0    0    0    0 -0.00000000000E+00 -0.00000000000E+00 -0.45593999997E+02  0.45594000000E+02  0.51100000000E-03 0.  1.
    9900012    2    1    2    0    0 -0.32568295614E+00  0.84032921670E+00 -0.76188201116E+00  0.90007878490E+02  0.90000141686E+02 0.  0.
         12    1    1    2    0    0  0.32568295614E+00 -0.84032921670E+00  0.76188201116E+00  0.11801215104E+01  0.00000000000E+00 0. -1.
         11    1    3    3    0    0 -0.19109339720E+02  0.27765716434E+02  0.29002963895E+02  0.44466546848E+02  0.51100000000E-03 0. -1.
        -11    1    3    3    0    0  0.19976587257E+01 -0.87448363471E+01 -0.40101133874E+01  0.98256711100E+01  0.51100000000E-03 0.  1.
        -12    1    3    3    0    0  0.16785998038E+02 -0.18180550870E+02 -0.25754732519E+02  0.35715660532E+02  0.00000000000E+00 0.  1.
</event>
<event>
 7    1  0.4008281E-015  0.9000765E+02  0.7816164E-02  0.1186339E+00
        -11   -1    0    0    0    0  0.00000000000E+00  0.00000000000E+00  0.45593999997E+02  0.45594000000E+02  0.51100000000E-03 0. -1.
         11   -1    0    0    0    0 -0.00000000000E+00 -0.00000000000E+00 -0.45593999997E+02  0.45594000000E+02  0.51100000000E-03 0.  1.
    9900012    2    1    2    0    0  0.33641184380E+00  0.67215678512E+00 -0.91009042933E+00  0.90007647399E+02  0.89999907545E+02 0.  0.
         12    1    1    2    0    0 -0.33641184380E+00 -0.67215678512E+00  0.91009042933E+00  0.11803526007E+01  0.00000000000E+00 0. -1.
         11    1    3    3    0    0  0.45583640429E+01  0.74570535120E+01  0.39687876015E+01  0.95988335289E+01  0.51100000000E-03 0. -1.
        -11    1    3    3    0    0 -0.41589728085E+02  0.13611777516E+01 -0.65629901748E+01  0.42126370926E+02  0.51100000000E-03 0.  1.
         12    1    3    3    0    0  0.37367775886E+02 -0.81460744784E+01  0.16841121440E+01  0.38282442945E+02  0.00000000000E+00 0. -1.
</event>
<event>
 7    1  0.4008281E-015  0.9000774E+02  0.7816164E-02  0.1186339E+00
        -11   -1    0    0    0    0  0.00000000000E+00  0.00000000000E+00  0.45593999997E+02  0.45594000000E+02  0.51100000000E-03 0. -1.
         11   -1    0    0    0    0 -0.00000000000E+00 -0.00000000000E+00 -0.45593999997E+02  0.45594000000E+02  0.51100000000E-03 0.  1.
    9900012    2    1    2    0    0 -0.10894416980E+01  0.37386204012E+00  0.25760469069E+00  0.90007738921E+02  0.90000000275E+02 0.  0.
         12    1    1    2    0    0  0.10894416980E+01 -0.37386204012E+00 -0.25760469069E+00  0.11802610792E+01  0.00000000000E+00 0. -1.
         11    1    3    3    0    0 -0.16745897151E+02 -0.11401687944E+02  0.28808853581E+02  0.35218938148E+02  0.51100000000E-03 0. -1.
        -11    1    3    3    0    0 -0.71093770880E+01 -0.67454599233E+01  0.43308470502E+01  0.10714509256E+02  0.51100000000E-03 0.  1.
        -12    1    3    3    0    0  0.22765832541E+02  0.18521009907E+02 -0.32882095940E+02  0.44074291517E+02  0.00000000000E+00 0.  1.
</event>
<event>
 7    1  0.4008281E-015  0.9000770E+02  0.7816164E-02  0.1186339E+00
        -11   -1    0    0    0    0  0.00000000000E+00  0.00000000000E+00  0.45593999997E+02  0.45594000000E+02  0.51100000000E-03 0.  1.
         11   -1    0    0    0    0 -0.00000000000E+00 -0.00000000000E+00 -0.45593999997E+02  0.45594000000E+02  0.51100000000E-03 0. -1.
    9900012    2    1    2    0    0  0.10483284508E+01  0.45051936968E+00  0.30191117689E+00  0.90007698936E+02  0.89999959762E+02 0.  0.
         12    1    1    2    0    0 -0.10483284508E+01 -0.45051936968E+00 -0.30191117689E+00  0.11803010641E+01  0.00000000000E+00 0. -1.
         11    1    3    3    0    0 -0.24699630793E+02 -0.28536428888E+02 -0.12008171536E+02  0.39605501119E+02  0.51100000000E-03 0. -1.
        -11    1    3    3    0    0  0.90716465569E+00 -0.14909339135E+01 -0.65611133316E+01  0.67892591685E+01  0.51100000000E-03 0.  1.
        -12    1    3    3    0    0  0.24840794588E+02  0.30477882172E+02  0.18871196044E+02  0.43612938648E+02  0.00000000000E+00 0.  1.
</event>
<event>
 7    1  0.4008281E-015  0.9000785E+02  0.7816164E-02  0.1186339E+00
        -11   -1    0    0    0    0  0.00000000000E+00  0.00000000000E+00  0.45593999997E+02  0.45594000000E+02  0.51100000000E-03 0.  1.
         11   -1    0    0    0    0 -0.00000000000E+00 -0.00000000000E+00 -0.45593999997E+02  0.45594000000E+02  0.51100000000E-03 0. -1.
    9900012    2    1    2    0    0 -0.49025360484E+00 -0.67828894111E+00  0.83205810025E+00  0.90007853752E+02  0.90000116621E+02 0.  0.
         12    1    1    2    0    0  0.49025360484E+00  0.67828894111E+00 -0.83205810025E+00  0.11801462481E+01  0.00000000000E+00 0. -1.
         11    1    3    3    0    0 -0.23087296168E+02  0.26896318623E+02 -0.12509674608E+02  0.37588923353E+02  0.51100000000E-03 0. -1.
        -11    1    3    3    0    0 -0.15626019308E+01 -0.11016788158E+01 -0.96503667751E+01  0.98379367838E+01  0.51100000000E-03 0.  1.
        -12    1    3    3    0    0  0.24159644494E+02 -0.26472928748E+02  0.22992099483E+02  0.42580993615E+02  0.00000000000E+00 0.  1.
</event>
<event>
 7    1  0.4008281E-015  0.9000776E+02  0.7816164E-02  0.1186339E+00
        -11   -1    0    0    0    0  0.00000000000E+00  0.00000000000E+00  0.45593999997E+02  0.45594000000E+02  0.51100000000E-03 0.  1.
         11   -1    0    0    0    0 -0.00000000000E+00 -0.00000000000E+00 -0.45593999997E+02  0.45594000000E+02  0.51100000000E-03 0. -1.
    9900012    2    1    2    0    0  0.11340503785E+01  0.17151917537E+00 -0.27833796977E+00  0.90007762264E+02  0.90000023926E+02 0.  0.
         12    1    1    2    0    0 -0.11340503785E+01 -0.17151917537E+00  0.27833796977E+00  0.11802377362E+01  0.00000000000E+00 0. -1.
         11    1    3    3    0    0 -0.90565921015E+01 -0.22644640596E+01  0.22491018837E+01  0.96025057935E+01  0.51100000000E-03 0. -1.
        -11    1    3    3    0    0  0.99887644852E+01  0.24573118477E+02  0.30640924619E+02  0.40527519408E+02  0.51100000000E-03 0.  1.
         12    1    3    3    0    0  0.20187799484E+00 -0.22137135242E+02 -0.33168364472E+02  0.39877737062E+02  0.00000000000E+00 0. -1.
</event>
<event>
 7    1  0.4008281E-015  0.9000783E+02  0.7816164E-02  0.1186339E+00
        -11   -1    0    0    0    0  0.00000000000E+00  0.00000000000E+00  0.45593999997E+02  0.45594000000E+02  0.51100000000E-03 0.  1.
         11   -1    0    0    0    0 -0.00000000000E+00 -0.00000000000E+00 -0.45593999997E+02  0.45594000000E+02  0.51100000000E-03 0. -1.
    9900012    2    1    2    0    0  0.84600330996E-03  0.33525356311E+00  0.11315544732E+01  0.90007825779E+02  0.90000088279E+02 0.  0.
         12    1    1    2    0    0 -0.84600330996E-03 -0.33525356311E+00 -0.11315544732E+01  0.11801742215E+01  0.00000000000E+00 0. -1.
         11    1    3    3    0    0  0.83430876632E+01 -0.33422635183E+02 -0.11582409717E+02  0.36343250672E+02  0.51100000000E-03 0. -1.
        -11    1    3    3    0    0  0.97341042408E+01 -0.36925913063E+01  0.41471814969E+01  0.11206566403E+02  0.51100000000E-03 0.  1.
        -12    1    3    3    0    0 -0.18076345901E+02  0.37450480052E+02  0.85667826933E+01  0.42458008703E+02  0.00000000000E+00 0.  1.
</event>
<event>
 7    1  0.4008281E-015  0.9000756E+02  0.7816164E-02  0.1186339E+00
        -11   -1    0    0    0    0  0.00000000000E+00  0.00000000000E+00  0.45593999997E+02  0.45594000000E+02  0.51100000000E-03 0. -1.
         11   -1    0    0    0    0 -0.00000000000E+00 -0.00000000000E+00 -0.45593999997E+02  0.45594000000E+02  0.51100000000E-03 0.  1.
    9900012    2    1    2    0    0 -0.49388804141E+00 -0.18296477766E+00 -0.10564278846E+01  0.90007558819E+02  0.89999817795E+02 0.  0.
         12    1    1    2    0    0  0.49388804141E+00  0.18296477766E+00  0.10564278846E+01  0.11804411814E+01  0.00000000000E+00 0. -1.
         11    1    3    3    0    0  0.26785522719E+02 -0.33396494940E+02 -0.12782960152E+02  0.44678788839E+02  0.51100000000E-03 0. -1.
        -11    1    3    3    0    0 -0.35912192828E+01  0.66708169089E+01  0.51219008003E+01  0.91449725117E+01  0.51100000000E-03 0.  1.
        -12    1    3    3    0    0 -0.23688191478E+02  0.26542713254E+02  0.66046314676E+01  0.36183797468E+02  0.00000000000E+00 0.  1.
</event>
<event>
 7    1  0.4008281E-015  0.9000773E+02  0.7816164E-02  0.1186339E+00
        -11   -1    0    0    0    0  0.00000000000E+00  0.00000000000E+00  0.45593999997E+02  0.45594000000E+02  0.51100000000E-03 0.  1.
         11   -1    0    0    0    0 -0.00000000000E+00 -0.00000000000E+00 -0.45593999997E+02  0.45594000000E+02  0.51100000000E-03 0. -1.
    9900012    2    1    2    0    0 -0.74362551974E+00  0.44660502815E+00  0.80037115389E+00  0.90007733526E+02  0.89999994809E+02 0.  0.
         12    1    1    2    0    0  0.74362551974E+00 -0.44660502815E+00 -0.80037115389E+00  0.11802664736E+01  0.00000000000E+00 0. -1.
         11    1    3    3    0    0 -0.24643464530E+02  0.67362943151E+01 -0.29208058769E+02  0.38804493329E+02  0.51100000000E-03 0. -1.
        -11    1    3    3    0    0 -0.54768118839E+01  0.62282479017E+01  0.15657638311E+01  0.84402699585E+01  0.51100000000E-03 0.  1.
        -12    1    3    3    0    0  0.29376650895E+02 -0.12517937189E+02  0.28442666092E+02  0.42762970239E+02  0.00000000000E+00 0.  1.
</event>
<event>
 7    1  0.4008281E-015  0.9000775E+02  0.7816164E-02  0.1186339E+00
        -11   -1    0    0    0    0  0.00000000000E+00  0.00000000000E+00  0.45593999997E+02  0.45594000000E+02  0.51100000000E-03 0. -1.
         11   -1    0    0    0    0 -0.00000000000E+00 -0.00000000000E+00 -0.45593999997E+02  0.45594000000E+02  0.51100000000E-03 0.  1.
    9900012    2    1    2    0    0 -0.10827294592E+01 -0.46507873871E+00  0.66211674818E-01  0.90007752017E+02  0.90000013544E+02 0.  0.
         12    1    1    2    0    0  0.10827294592E+01  0.46507873871E+00 -0.66211674818E-01  0.11802479828E+01  0.00000000000E+00 0. -1.
         11    1    3    3    0    0  0.11419776078E+02 -0.36759341322E+02  0.54104800571E+01  0.38870731338E+02  0.51100000000E-03 0. -1.
        -11    1    3    3    0    0  0.29503081531E+01  0.17520194219E+01 -0.12205658360E+02  0.12678800674E+02  0.51100000000E-03 0.  1.
        -12    1    3    3    0    0 -0.15452813690E+02  0.34542243161E+02  0.68613899780E+01  0.38458220005E+02  0.00000000000E+00 0.  1.
</event>
<event>
 7    1  0.4008281E-015  0.9000756E+02  0.7816164E-02  0.1186339E+00
        -11   -1    0    0    0    0  0.00000000000E+00  0.00000000000E+00  0.45593999997E+02  0.45594000000E+02  0.51100000000E-03 0.  1.
         11   -1    0    0    0    0 -0.00000000000E+00 -0.00000000000E+00 -0.45593999997E+02  0.45594000000E+02  0.51100000000E-03 0. -1.
    9900012    2    1    2    0    0  0.22589297612E+00 -0.11584232526E+01 -0.21367181191E-01  0.90007564222E+02  0.89999823270E+02 0.  0.
         12    1    1    2    0    0 -0.22589297612E+00  0.11584232526E+01  0.21367181191E-01  0.11804357777E+01  0.00000000000E+00 0. -1.
         11    1    3    3    0    0  0.45653833343E+01  0.32576521773E+01 -0.78324588621E+01  0.96334020359E+01  0.51100000000E-03 0. -1.
        -11    1    3    3    0    0 -0.25026165786E+02  0.19915360332E+02 -0.20254978706E+02  0.37857558212E+02  0.51100000000E-03 0.  1.
         12    1    3    3    0    0  0.20686675428E+02 -0.24331435762E+02  0.28066070387E+02  0.42516603974E+02  0.00000000000E+00 0. -1.
</event>
<event>
 7    1  0.4008281E-015  0.9000781E+02  0.7816164E-02  0.1186339E+00
        -11   -1    0    0    0    0  0.00000000000E+00  0.00000000000E+00  0.45593999997E+02  0.45594000000E+02  0.51100000000E-03 0.  1.
         11   -1    0    0    0    0 -0.00000000000E+00 -0.00000000000E+00 -0.45593999997E+02  0.45594000000E+02  0.51100000000E-03 0. -1.
    9900012    2    1    2    0    0  0.86712069934E+00 -0.30750402828E+00  0.73918058046E+00  0.90007811471E+02  0.90000073782E+02 0.  0.
         12    1    1    2    0    0 -0.86712069934E+00  0.30750402828E+00 -0.73918058046E+00  0.11801885295E+01  0.00000000000E+00 0. -1.
         11    1    3    3    0    0 -0.30925759207E+01  0.36382041546E+02 -0.78204339064E+01  0.37341346516E+02  0.51100000000E-03 0. -1.
        -11    1    3    3    0    0  0.24534704476E+01  0.53109843263E+01 -0.58149905500E+01  0.82486475928E+01  0.51100000000E-03 0.  1.
        -12    1    3    3    0    0  0.15062261724E+01 -0.42000529901E+02  0.14374605037E+02  0.44417817362E+02  0.00000000000E+00 0.  1.
</event>
<event>
 7    1  0.4008281E-015  0.9000775E+02  0.7816164E-02  0.1186339E+00
        -11   -1    0    0    0    0  0.00000000000E+00  0.00000000000E+00  0.45593999997E+02  0.45594000000E+02  0.51100000000E-03 0. -1.
         11   -1    0    0    0    0 -0.00000000000E+00 -0.00000000000E+00 -0.45593999997E+02  0.45594000000E+02  0.51100000000E-03 0.  1.
    9900012    2    1    2    0    0  0.11593504700E+01 -0.15614250764E+00 -0.15654841984E+00  0.90007753669E+02  0.90000015217E+02 0.  0.
         12    1    1    2    0    0 -0.11593504700E+01  0.15614250764E+00  0.15654841984E+00  0.11802463314E+01  0.00000000000E+00 0. -1.
         11    1    3    3    0    0 -0.85283127064E+00 -0.86009574612E+01 -0.35540113979E+01  0.93453083257E+01  0.51100000000E-03 0. -1.
        -11    1    3    3    0    0 -0.36620787674E+02 -0.87788504773E+01  0.66424902675E+01  0.38239678121E+02  0.51100000000E-03 0.  1.
         12    1    3    3    0    0  0.38632969415E+02  0.17223665431E+02 -0.32450272895E+01  0.42422767222E+02  0.00000000000E+00 0. -1.
</event>
<event>
 7    1  0.4008281E-015  0.9000758E+02  0.7816164E-02  0.1186339E+00
        -11   -1    0    0    0    0  0.00000000000E+00  0.00000000000E+00  0.45593999997E+02  0.45594000000E+02  0.51100000000E-03 0. -1.
         11   -1    0    0    0    0 -0.00000000000E+00 -0.00000000000E+00 -0.45593999997E+02  0.45594000000E+02  0.51100000000E-03 0.  1.
    9900012    2    1    2    0    0 -0.59501228343E+00  0.10169998274E+01  0.71182662493E-01  0.90007578364E+02  0.89999837599E+02 0.  0.
         12    1    1    2    0    0  0.59501228343E+00 -0.10169998274E+01 -0.71182662493E-01  0.11804216356E+01  0.00000000000E+00 0. -1.
         11    1    3    3    0    0  0.10282555689E+02  0.28083920963E+01 -0.33002577724E+01  0.11158392325E+02  0.51100000000E-03 0. -1.
        -11    1    3    3    0    0 -0.28419570329E+02  0.66172035480E+01 -0.28963376467E+02  0.41113702547E+02  0.51100000000E-03 0.  1.
         12    1    3    3    0    0  0.17542002358E+02 -0.84085958169E+01  0.32334816902E+02  0.37735483492E+02  0.00000000000E+00 0. -1.
</event>
<event>
 7    1  0.4008281E-015  0.9000779E+02  0.7816164E-02  0.1186339E+00
        -11   -1    0    0    0    0  0.00000000000E+00  0.00000000000E+00  0.45593999997E+02  0.45594000000E+02  0.51100000000E-03 0. -1.
         11   -1    0    0    0    0 -0.00000000000E+00 -0.00000000000E+00 -0.45593999997E+02  0.45594000000E+02  0.51100000000E-03 0.  1.
    9900012    2    1    2    0    0 -0.85992106700E-01  0.97716680810E-01 -0.11730145264E+01  0.90007785498E+02  0.90000047466E+02 0.  0.
         12    1    1    2    0    0  0.85992106700E-01 -0.97716680810E-01  0.11730145264E+01  0.11802145022E+01  0.00000000000E+00 0. -1.
         11    1    3    3    0    0  0.79500240861E+00 -0.21464299053E+02  0.27390069560E+02  0.34807528976E+02  0.51100000000E-03 0. -1.
        -11    1    3    3    0    0  0.13637132528E+01  0.46670903386E-02  0.10467312257E+02  0.10555773859E+02  0.51100000000E-03 0.  1.
        -12    1    3    3    0    0 -0.22447077681E+01  0.21557348644E+02 -0.39030396343E+02  0.44644482663E+02  0.00000000000E+00 0.  1.
</event>
<event>
 7    1  0.4008281E-015  0.9000703E+02  0.7816164E-02  0.1186340E+00
        -11   -1    0    0    0    0  0.00000000000E+00  0.00000000000E+00  0.45593999997E+02  0.45594000000E+02  0.51100000000E-03 0. -1.
         11   -1    0    0    0    0 -0.00000000000E+00 -0.00000000000E+00 -0.45593999997E+02  0.45594000000E+02  0.51100000000E-03 0.  1.
    9900012    2    1    2    0    0  0.19924621113E+00 -0.20929524048E-01 -0.11638569250E+01  0.90007025809E+02  0.89999277747E+02 0.  0.
         12    1    1    2    0    0 -0.19924621113E+00  0.20929524048E-01  0.11638569250E+01  0.11809741908E+01  0.00000000000E+00 0. -1.
         11    1    3    3    0    0 -0.28900506018E+02  0.80521201793E+01  0.22036945671E+02  0.37225030050E+02  0.51100000000E-03 0. -1.
        -11    1    3    3    0    0 -0.18470797511E+00  0.90520118504E+01  0.34010361798E+01  0.96716122199E+01  0.51100000000E-03 0.  1.
        -12    1    3    3    0    0  0.29284460204E+02 -0.17125061554E+02 -0.26601838776E+02  0.43110383539E+02  0.00000000000E+00 0.  1.
</event>
<event>
 7    1  0.4008281E-015  0.9000767E+02  0.7816164E-02  0.1186339E+00
        -11   -1    0    0    0    0  0.00000000000E+00  0.00000000000E+00  0.45593999997E+02  0.45594000000E+02  0.51100000000E-03 0.  1.
         11   -1    0    0    0    0 -0.00000000000E+00 -0.00000000000E+00 -0.45593999997E+02  0.45594000000E+02  0.51100000000E-03 0. -1.
    9900012    2    1    2    0    0  0.15126746735E+00  0.41145632071E+00  0.10959037796E+01  0.90007668163E+02  0.89999928583E+02 0.  0.
         12    1    1    2    0    0 -0.15126746735E+00 -0.41145632071E+00 -0.10959037796E+01  0.11803318367E+01  0.00000000000E+00 0. -1.
         11    1    3    3    0    0 -0.14568963846E+02  0.16374628712E+02 -0.10061527116E+02  0.24116747318E+02  0.51100000000E-03 0. -1.
        -11    1    3    3    0    0 -0.69236784671E+01  0.10000132418E+02 -0.17679819574E+02  0.21459636351E+02  0.51100000000E-03 0.  1.
        -12    1    3    3    0    0  0.21643909781E+02 -0.25963304809E+02  0.28837250470E+02  0.44431284495E+02  0.00000000000E+00 0.  1.
</event>
<event>
 7    1  0.4008281E-015  0.9000781E+02  0.7816164E-02  0.1186339E+00
        -11   -1    0    0    0    0  0.00000000000E+00  0.00000000000E+00  0.45593999997E+02  0.45594000000E+02  0.51100000000E-03 0. -1.
         11   -1    0    0    0    0 -0.00000000000E+00 -0.00000000000E+00 -0.45593999997E+02  0.45594000000E+02  0.51100000000E-03 0.  1.
    9900012    2    1    2    0    0  0.48446535850E+00  0.13741944084E+00 -0.10673569508E+01  0.90007812876E+02  0.90000075206E+02 0.  0.
         12    1    1    2    0    0 -0.48446535850E+00 -0.13741944084E+00  0.10673569508E+01  0.11801871236E+01  0.00000000000E+00 0. -1.
         11    1    3    3    0    0  0.76983214355E+01 -0.74563346712E+01 -0.92271514808E+01  0.14142185275E+02  0.51100000000E-03 0. -1.
        -11    1    3    3    0    0  0.33547148340E+00  0.39372919691E+02 -0.67693631615E+01  0.39952016520E+02  0.51100000000E-03 0.  1.
         12    1    3    3    0    0 -0.75493275604E+01 -0.31779165579E+02  0.14929157692E+02  0.35913611081E+02  0.00000000000E+00 0. -1.
</event>
<event>
 7    1  0.4008281E-015  0.9000772E+02  0.7816164E-02  0.1186339E+00
        -11   -1    0    0    0    0  0.00000000000E+00  0.00000000000E+00  0.45593999997E+02  0.45594000000E+02  0.51100000000E-03 0.  1.
         11   -1    0    0    0    0 -0.00000000000E+00 -0.00000000000E+00 -0.45593999997E+02  0.45594000000E+02  0.51100000000E-03 0. -1.
    9900012    2    1    2    0    0  0.19407660121E+00 -0.19000631393E+00  0.11486027591E+01  0.90007721887E+02  0.89999983016E+02 0.  0.
         12    1    1    2    0    0 -0.19407660121E+00  0.19000631393E+00 -0.11486027591E+01  0.11802781132E+01  0.00000000000E+00 0. -1.
         11    1    3    3    0    0 -0.96278180981E+01  0.22462955841E+00 -0.55578828034E+01  0.11119145708E+02  0.51100000000E-03 0. -1.
        -11    1    3    3    0    0 -0.29252152418E+01 -0.37836866647E+02  0.99188444883E+01  0.39224594811E+02  0.51100000000E-03 0.  1.
         12    1    3    3    0    0  0.12747109941E+02  0.37422230775E+02 -0.32123589259E+01  0.39663981367E+02  0.00000000000E+00 0. -1.
</event>
<event>
 7    1  0.4008281E-015  0.9000798E+02  0.7816164E-02  0.1186339E+00
        -11   -1    0    0    0    0  0.00000000000E+00  0.00000000000E+00  0.45593999997E+02  0.45594000000E+02  0.51100000000E-03 0.  1.
         11   -1    0    0    0    0 -0.00000000000E+00 -0.00000000000E+00 -0.45593999997E+02  0.45594000000E+02  0.51100000000E-03 0. -1.
    9900012    2    1    2    0    0 -0.60265631692E+00  0.65295726022E+00  0.77646797405E+00  0.90007978672E+02  0.90000243190E+02 0.  0.
         12    1    1    2    0    0  0.60265631692E+00 -0.65295726022E+00 -0.77646797405E+00  0.11800213281E+01  0.00000000000E+00 0. -1.
         11    1    3    3    0    0 -0.59889850940E+01  0.25469051554E+02 -0.31897569244E+02  0.41255247587E+02  0.51100000000E-03 0. -1.
        -11    1    3    3    0    0 -0.37833620286E+01 -0.72646900278E+01 -0.23473133059E+01  0.85205298812E+01  0.51100000000E-03 0.  1.
        -12    1    3    3    0    0  0.91696908057E+01 -0.17551404266E+02  0.35021350524E+02  0.40232201204E+02  0.00000000000E+00 0.  1.
</event>
<event>
 7    1  0.4008281E-015  0.9000768E+02  0.7816164E-02  0.1186339E+00
        -11   -1    0    0    0    0  0.00000000000E+00  0.00000000000E+00  0.45593999997E+02  0.45594000000E+02  0.51100000000E-03 0.  1.
         11   -1    0    0    0    0 -0.00000000000E+00 -0.00000000000E+00 -0.45593999997E+02  0.45594000000E+02  0.51100000000E-03 0. -1.
    9900012    2    1    2    0    0  0.51001921354E-01  0.11782191541E+01  0.48443757610E-01  0.90007682937E+02  0.89999943552E+02 0.  0.
         12    1    1    2    0    0 -0.51001921354E-01 -0.11782191541E+01 -0.48443757610E-01  0.11803170628E+01  0.00000000000E+00 0. -1.
         11    1    3    3    0    0  0.29744466411E+02 -0.57679822661E+00 -0.84712217564E+01  0.30932629642E+02  0.51100000000E-03 0. -1.
        -11    1    3    3    0    0 -0.14860705528E+02 -0.24249777708E+02  0.56840305128E+01  0.29003456532E+02  0.51100000000E-03 0.  1.
        -12    1    3    3    0    0 -0.14832758962E+02  0.26004795089E+02  0.28356350012E+01  0.30071596763E+02  0.00000000000E+00 0.  1.
</event>
<event>
 7    1  0.4008281E-015  0.9000775E+02  0.7816164E-02  0.1186339E+00
        -11   -1    0    0    0    0  0.00000000000E+00  0.00000000000E+00  0.45593999997E+02  0.45594000000E+02  0.51100000000E-03 0.  1.
         11   -1    0    0    0    0 -0.00000000000E+00 -0.00000000000E+00 -0.45593999997E+02  0.45594000000E+02  0.51100000000E-03 0. -1.
    9900012    2    1    2    0    0 -0.10629811154E+01 -0.46136360324E+00  0.22406935288E+00  0.90007749052E+02  0.90000010539E+02 0.  0.
         12    1    1    2    0    0  0.10629811154E+01  0.46136360324E+00 -0.22406935288E+00  0.11802509483E+01  0.00000000000E+00 0. -1.
         11    1    3    3    0    0 -0.25044853562E+02 -0.12151429549E+02 -0.34708171273E+02  0.44492236215E+02  0.51100000000E-03 0. -1.
        -11    1    3    3    0    0  0.65455402478E+00  0.45031704997E+00  0.84156189008E+01  0.84530389897E+01  0.51100000000E-03 0.  1.
        -12    1    3    3    0    0  0.23327318422E+02  0.11239748896E+02  0.26516621725E+02  0.37062473847E+02  0.00000000000E+00 0.  1.
</event>
<event>
 7    1  0.4008281E-015  0.9000786E+02  0.7816164E-02  0.1186339E+00
        -11   -1    0    0    0    0  0.00000000000E+00  0.00000000000E+00  0.45593999997E+02  0.45594000000E+02  0.51100000000E-03 0.  1.
         11   -1    0    0    0    0 -0.00000000000E+00 -0.00000000000E+00 -0.45593999997E+02  0.45594000000E+02  0.51100000000E-03 0. -1.
    9900012    2    1    2    0    0 -0.48917909306E+00  0.49760985190E+00 -0.95174833809E+00  0.90007857361E+02  0.90000120278E+02 0.  0.
         12    1    1    2    0    0  0.48917909306E+00 -0.49760985190E+00  0.95174833809E+00  0.11801426392E+01  0.00000000000E+00 0. -1.
         11    1    3    3    0    0 -0.11057648497E+01  0.40875463538E+01 -0.83993247439E+01  0.94063493190E+01  0.51100000000E-03 0. -1.
        -11    1    3    3    0    0 -0.26988686563E+02 -0.18552812511E+02  0.27987809921E+02  0.43080315214E+02  0.51100000000E-03 0.  1.
         12    1    3    3    0    0  0.27605272320E+02  0.14962876009E+02 -0.20540233516E+02  0.37521192828E+02  0.00000000000E+00 0. -1.
</event>
<event>
 7    1  0.4008281E-015  0.9000763E+02  0.7816164E-02  0.1186339E+00
        -11   -1    0    0    0    0  0.00000000000E+00  0.00000000000E+00  0.45593999997E+02  0.45594000000E+02  0.51100000000E-03 0.  1.
         11   -1    0    0    0    0 -0.00000000000E+00 -0.00000000000E+00 -0.45593999997E+02  0.45594000000E+02  0.51100000000E-03 0. -1.
    9900012    2    1    2    0    0  0.80185657132E+00  0.54210142782E+00 -0.67559391088E+00  0.90007629274E+02  0.89999889180E+02 0.  0.
         12    1    1    2    0    0 -0.80185657132E+00 -0.54210142782E+00  0.67559391088E+00  0.11803707263E+01  0.00000000000E+00 0. -1.
         11    1    3    3    0    0 -0.92970569363E+01  0.17884380013E+01 -0.24389130572E+01  0.97766085798E+01  0.51100000000E-03 0. -1.
        -11    1    3    3    0    0 -0.34180970534E+02  0.69306629915E+01 -0.27051141753E+01  0.34981287557E+02  0.51100000000E-03 0.  1.
         12    1    3    3    0    0  0.44279884042E+02 -0.81769995650E+01  0.44684333217E+01  0.45249733137E+02  0.00000000000E+00 0. -1.
</event>
<event>
 7    1  0.4008281E-015  0.9000780E+02  0.7816164E-02  0.1186339E+00
        -11   -1    0    0    0    0  0.00000000000E+00  0.00000000000E+00  0.45593999997E+02  0.45594000000E+02  0.51100000000E-03 0.  1.
         11   -1    0    0    0    0 -0.00000000000E+00 -0.00000000000E+00 -0.45593999997E+02  0.45594000000E+02  0.51100000000E-03 0. -1.
    9900012    2    1    2    0    0 -0.71527820089E+00 -0.90641148881E+00 -0.24427906423E+00  0.90007797919E+02  0.90000060051E+02 0.  0.
         12    1    1    2    0    0  0.71527820089E+00  0.90641148881E+00  0.24427906423E+00  0.11802020814E+01  0.00000000000E+00 0. -1.
         11    1    3    3    0    0  0.77768177924E+01  0.22247317584E+01  0.76981374071E+01  0.11166451817E+02  0.51100000000E-03 0. -1.
        -11    1    3    3    0    0 -0.63649665682E+00  0.23116517187E+02  0.26277896561E+02  0.35004376052E+02  0.51100000000E-03 0.  1.
         12    1    3    3    0    0 -0.78555993364E+01 -0.26247660434E+02 -0.34220313032E+02  0.43836970050E+02  0.00000000000E+00 0. -1.
</event>
<event>
 7    1  0.4008281E-015  0.9000766E+02  0.7816164E-02  0.1186339E+00
        -11   -1    0    0    0    0  0.00000000000E+00  0.00000000000E+00  0.45593999997E+02  0.45594000000E+02  0.51100000000E-03 0. -1.
         11   -1    0    0    0    0 -0.00000000000E+00 -0.00000000000E+00 -0.45593999997E+02  0.45594000000E+02  0.51100000000E-03 0.  1.
    9900012    2    1    2    0    0 -0.77456246582E+00 -0.64607745404E+00 -0.61305208116E+00  0.90007662784E+02  0.89999923132E+02 0.  0.
         12    1    1    2    0    0  0.77456246582E+00  0.64607745404E+00  0.61305208116E+00  0.11803372163E+01  0.00000000000E+00 0. -1.
         11    1    3    3    0    0  0.59952311693E+01  0.37171392484E+02 -0.51634287037E+01  0.38004160459E+02  0.51100000000E-03 0. -1.
        -11    1    3    3    0    0  0.92032376319E+00  0.29486163656E+01 -0.80702282437E+01  0.86411757572E+01  0.51100000000E-03 0.  1.
        -12    1    3    3    0    0 -0.76901173983E+01 -0.40766086304E+02  0.12620604866E+02  0.43362326567E+02  0.00000000000E+00 0.  1.
</event>
<event>
 7    1  0.5794853E-015  0.9000777E+02  0.7816164E-02  0.1186339E+00
        -11   -1    0    0    0    0  0.00000000000E+00  0.00000000000E+00  0.45593999997E+02  0.45594000000E+02  0.51100000000E-03 0. -1.
         11   -1    0    0    0    0 -0.00000000000E+00 -0.00000000000E+00 -0.45593999997E+02  0.45594000000E+02  0.51100000000E-03 0.  1.
    9900012    2    1    2    0    0  0.10391164608E+01 -0.24356307339E+00 -0.50383839824E+00  0.90007771581E+02  0.90000033366E+02 0.  0.
         12    1    1    2    0    0 -0.10391164608E+01  0.24356307339E+00  0.50383839824E+00  0.11802284192E+01  0.00000000000E+00 0. -1.
         11    1    3    3    0    0 -0.93210092523E+00 -0.39720715688E+01  0.89339506421E+01  0.98214886356E+01  0.51100000000E-03 0. -1.
        -11    1    3    3    0    0 -0.22171287304E+02 -0.12393790463E+02 -0.33805192265E+02  0.42284312068E+02  0.51100000000E-03 0.  1.
         12    1    3    3    0    0  0.24142504690E+02  0.16122298959E+02  0.24367403225E+02  0.37901970877E+02  0.00000000000E+00 0. -1.
</event>
<event>
 7    1  0.4008281E-015  0.9000776E+02  0.7816164E-02  0.1186339E+00
        -11   -1    0    0    0    0  0.00000000000E+00  0.00000000000E+00  0.45593999997E+02  0.45594000000E+02  0.51100000000E-03 0.  1.
         11   -1    0    0    0    0 -0.00000000000E+00 -0.00000000000E+00 -0.45593999997E+02  0.45594000000E+02  0.51100000000E-03 0. -1.
    9900012    2    1    2    0    0 -0.83978093571E-01 -0.10465165530E+01  0.53918472033E+00  0.90007758763E+02  0.90000020378E+02 0.  0.
         12    1    1    2    0    0  0.83978093571E-01  0.10465165530E+01 -0.53918472033E+00  0.11802412374E+01  0.00000000000E+00 0. -1.
         11    1    3    3    0    0 -0.26378750297E+02 -0.27764387271E+02  0.13371306767E+02  0.40564658420E+02  0.51100000000E-03 0. -1.
        -11    1    3    3    0    0 -0.70611749872E+00 -0.27055186230E+01 -0.88840296875E+01  0.93136682725E+01  0.51100000000E-03 0.  1.
        -12    1    3    3    0    0  0.27000889703E+02  0.29423389341E+02 -0.39480923597E+01  0.40129432071E+02  0.00000000000E+00 0.  1.
</event>
<event>
 7    1  0.4008281E-015  0.9000783E+02  0.7816164E-02  0.1186339E+00
        -11   -1    0    0    0    0  0.00000000000E+00  0.00000000000E+00  0.45593999997E+02  0.45594000000E+02  0.51100000000E-03 0.  1.
         11   -1    0    0    0    0 -0.00000000000E+00 -0.00000000000E+00 -0.45593999997E+02  0.45594000000E+02  0.51100000000E-03 0. -1.
    9900012    2    1    2    0    0  0.66601692653E+00 -0.38294537980E+00 -0.89586541534E+00  0.90007830286E+02  0.90000092846E+02 0.  0.
         12    1    1    2    0    0 -0.66601692653E+00  0.38294537980E+00  0.89586541534E+00  0.11801697135E+01  0.00000000000E+00 0. -1.
         11    1    3    3    0    0  0.43639387333E+01 -0.40569017326E+01  0.69387272086E+01  0.91459471063E+01  0.51100000000E-03 0. -1.
        -11    1    3    3    0    0  0.18539656030E+02 -0.97105583537E+01  0.29023426777E+02  0.35782301371E+02  0.51100000000E-03 0.  1.
         12    1    3    3    0    0 -0.22237577837E+02  0.13384514707E+02 -0.36858019401E+02  0.45079581809E+02  0.00000000000E+00 0. -1.
</event>
<event>
 7    1  0.4008281E-015  0.9000765E+02  0.7816164E-02  0.1186339E+00
        -11   -1    0    0    0    0  0.00000000000E+00  0.00000000000E+00  0.45593999997E+02  0.45594000000E+02  0.51100000000E-03 0. -1.
         11   -1    0    0    0    0 -0.00000000000E+00 -0.00000000000E+00 -0.45593999997E+02  0.45594000000E+02  0.51100000000E-03 0.  1.
    9900012    2    1    2    0    0  0.11158956282E+00 -0.11101290963E+01 -0.38521870701E+00  0.90007647386E+02  0.89999907532E+02 0.  0.
         12    1    1    2    0    0 -0.11158956282E+00  0.11101290963E+01  0.38521870701E+00  0.11803526139E+01  0.00000000000E+00 0. -1.
         11    1    3    3    0    0  0.44583881699E+01  0.52667035717E+01 -0.47085162377E+01  0.83537726212E+01  0.51100000000E-03 0. -1.
        -11    1    3    3    0    0 -0.15252898952E+02  0.35254053199E+02  0.10988880945E+00  0.38412384321E+02  0.51100000000E-03 0.  1.
         12    1    3    3    0    0  0.10906100345E+02 -0.41630885867E+02  0.42134087212E+01  0.43241490444E+02  0.00000000000E+00 0. -1.
</event>
<event>
 7    1  0.4008281E-015  0.9000773E+02  0.7816164E-02  0.1186339E+00
        -11   -1    0    0    0    0  0.00000000000E+00  0.00000000000E+00  0.45593999997E+02  0.45594000000E+02  0.51100000000E-03 0. -1.
         11   -1    0    0    0    0 -0.00000000000E+00 -0.00000000000E+00 -0.45593999997E+02  0.45594000000E+02  0.51100000000E-03 0.  1.
    9900012    2    1    2    0    0  0.82390538672E+00  0.50243030683E+00 -0.67955156734E+00  0.90007726035E+02  0.89999987219E+02 0.  0.
         12    1    1    2    0    0 -0.82390538672E+00 -0.50243030683E+00  0.67955156734E+00  0.11802739649E+01  0.00000000000E+00 0. -1.
         11    1    3    3    0    0  0.13893041431E+00  0.15687487049E+01 -0.13560095736E+02  0.13651244294E+02  0.51100000000E-03 0. -1.
        -11    1    3    3    0    0 -0.30730234907E+02  0.13828128299E+02 -0.94962461430E+01  0.35010614972E+02  0.51100000000E-03 0.  1.
         12    1    3    3    0    0  0.31415209879E+02 -0.14894446697E+02  0.22376790312E+02  0.41345866768E+02  0.00000000000E+00 0. -1.
</event>
<event>
 7    1  0.4008281E-015  0.9000776E+02  0.7816164E-02  0.1186339E+00
        -11   -1    0    0    0    0  0.00000000000E+00  0.00000000000E+00  0.45593999997E+02  0.45594000000E+02  0.51100000000E-03 0.  1.
         11   -1    0    0    0    0 -0.00000000000E+00 -0.00000000000E+00 -0.45593999997E+02  0.45594000000E+02  0.51100000000E-03 0. -1.
    9900012    2    1    2    0    0  0.58381842330E+00  0.10247066925E+01  0.45692008950E-01  0.90007764635E+02  0.90000026328E+02 0.  0.
         12    1    1    2    0    0 -0.58381842330E+00 -0.10247066925E+01 -0.45692008950E-01  0.11802353650E+01  0.00000000000E+00 0. -1.
         11    1    3    3    0    0  0.46010946517E+01  0.88881402402E+01  0.25684154074E+01  0.10332756984E+02  0.51100000000E-03 0. -1.
        -11    1    3    3    0    0  0.29410927930E+02  0.72634010704E+01  0.20297656155E+02  0.36465799353E+02  0.51100000000E-03 0.  1.
         12    1    3    3    0    0 -0.33428204158E+02 -0.15126834618E+02 -0.22820379553E+02  0.43209208298E+02  0.00000000000E+00 0. -1.
</event>
<event>
 7    1  0.4008281E-015  0.9000774E+02  0.7816164E-02  0.1186339E+00
        -11   -1    0    0    0    0  0.00000000000E+00  0.00000000000E+00  0.45593999997E+02  0.45594000000E+02  0.51100000000E-03 0.  1.
         11   -1    0    0    0    0 -0.00000000000E+00 -0.00000000000E+00 -0.45593999997E+02  0.45594000000E+02  0.51100000000E-03 0. -1.
    9900012    2    1    2    0    0  0.96613570263E+00  0.31585331107E+00 -0.59986552721E+00  0.90007737249E+02  0.89999998581E+02 0.  0.
         12    1    1    2    0    0 -0.96613570263E+00 -0.31585331107E+00  0.59986552721E+00  0.11802627507E+01  0.00000000000E+00 0. -1.
         11    1    3    3    0    0 -0.25581521107E+00 -0.89638342474E+01 -0.36209497942E+01  0.96709380884E+01  0.51100000000E-03 0. -1.
        -11    1    3    3    0    0  0.32681586943E+02  0.87480575410E+01  0.24905177314E+02  0.42010504557E+02  0.51100000000E-03 0.  1.
         12    1    3    3    0    0 -0.31459636029E+02  0.53163001743E+00 -0.21884093047E+02  0.38326294604E+02  0.00000000000E+00 0. -1.
</event>
<event>
 7    1  0.4008281E-015  0.9000774E+02  0.7816164E-02  0.1186339E+00
        -11   -1    0    0    0    0  0.00000000000E+00  0.00000000000E+00  0.45593999997E+02  0.45594000000E+02  0.51100000000E-03 0. -1.
         11   -1    0    0    0    0 -0.00000000000E+00 -0.00000000000E+00 -0.45593999997E+02  0.45594000000E+02  0.51100000000E-03 0.  1.
    9900012    2    1    2    0    0  0.73909440090E+00 -0.77730587965E+00  0.49250102172E+00  0.90007736377E+02  0.89999997697E+02 0.  0.
         12    1    1    2    0    0 -0.73909440090E+00  0.77730587965E+00 -0.49250102172E+00  0.11802636233E+01  0.00000000000E+00 0. -1.
         11    1    3    3    0    0 -0.29649491121E+02  0.10146098138E+02  0.17855714201E+02  0.36067466796E+02  0.51100000000E-03 0. -1.
        -11    1    3    3    0    0 -0.94538864932E+01 -0.61591755945E+00 -0.56811210253E+00  0.94909470491E+01  0.51100000000E-03 0.  1.
        -12    1    3    3    0    0  0.39842472015E+02 -0.10307486458E+02 -0.16795101076E+02  0.44449322532E+02  0.00000000000E+00 0.  1.
</event>
<event>
 7    1  0.4008281E-015  0.9000776E+02  0.7816164E-02  0.1186339E+00
        -11   -1    0    0    0    0  0.00000000000E+00  0.00000000000E+00  0.45593999997E+02  0.45594000000E+02  0.51100000000E-03 0. -1.
         11   -1    0    0    0    0 -0.00000000000E+00 -0.00000000000E+00 -0.45593999997E+02  0.45594000000E+02  0.51100000000E-03 0.  1.
    9900012    2    1    2    0    0  0.10976913252E+00  0.36753172175E+00 -0.11161694318E+01  0.90007761452E+02  0.90000023104E+02 0.  0.
         12    1    1    2    0    0 -0.10976913252E+00 -0.36753172175E+00  0.11161694318E+01  0.11802385476E+01  0.00000000000E+00 0. -1.
         11    1    3    3    0    0 -0.34059539057E+02 -0.15379300276E+02  0.10832153871E+02  0.38909004555E+02  0.51100000000E-03 0. -1.
        -11    1    3    3    0    0  0.18128375731E+01 -0.46417308856E+01  0.68606097455E+01  0.84793874791E+01  0.51100000000E-03 0.  1.
        -12    1    3    3    0    0  0.32356470616E+02  0.20388562884E+02 -0.18808933048E+02  0.42619369418E+02  0.00000000000E+00 0.  1.
</event>
<event>
 7    1  0.4008281E-015  0.9000773E+02  0.7816164E-02  0.1186339E+00
        -11   -1    0    0    0    0  0.00000000000E+00  0.00000000000E+00  0.45593999997E+02  0.45594000000E+02  0.51100000000E-03 0.  1.
         11   -1    0    0    0    0 -0.00000000000E+00 -0.00000000000E+00 -0.45593999997E+02  0.45594000000E+02  0.51100000000E-03 0. -1.
    9900012    2    1    2    0    0  0.67953580501E+00  0.94890889781E+00  0.17563239028E+00  0.90007727259E+02  0.89999988459E+02 0.  0.
         12    1    1    2    0    0 -0.67953580501E+00 -0.94890889781E+00 -0.17563239028E+00  0.11802727410E+01  0.00000000000E+00 0. -1.
         11    1    3    3    0    0 -0.66344507283E+01  0.87555102271E+01  0.44251382945E+01  0.11843004053E+02  0.51100000000E-03 0. -1.
        -11    1    3    3    0    0 -0.30028442128E+02 -0.61495116720E+00  0.17091437971E+02  0.34557238804E+02  0.51100000000E-03 0.  1.
         12    1    3    3    0    0  0.37342428662E+02 -0.71916501620E+01 -0.21340943875E+02  0.43607484402E+02  0.00000000000E+00 0. -1.
</event>
<event>
 7    1  0.4008281E-015  0.9000782E+02  0.7816164E-02  0.1186339E+00
        -11   -1    0    0    0    0  0.00000000000E+00  0.00000000000E+00  0.45593999997E+02  0.45594000000E+02  0.51100000000E-03 0. -1.
         11   -1    0    0    0    0 -0.00000000000E+00 -0.00000000000E+00 -0.45593999997E+02  0.45594000000E+02  0.51100000000E-03 0.  1.
    9900012    2    1    2    0    0  0.24374433129E-01  0.65694259015E+00 -0.98013450311E+00  0.90007817250E+02  0.90000079637E+02 0.  0.
         12    1    1    2    0    0 -0.24374433129E-01 -0.65694259015E+00  0.98013450311E+00  0.11801827502E+01  0.00000000000E+00 0. -1.
         11    1    3    3    0    0 -0.88118362892E+00 -0.58669127931E+01 -0.59851050329E+01  0.84272553555E+01  0.51100000000E-03 0. -1.
        -11    1    3    3    0    0 -0.15801346514E+02  0.30329119210E+00 -0.34660168329E+02  0.38093330204E+02  0.51100000000E-03 0.  1.
         12    1    3    3    0    0  0.16706904576E+02  0.62205641912E+01  0.39665138859E+02  0.43487231690E+02  0.00000000000E+00 0. -1.
</event>
<event>
 7    1  0.4008281E-015  0.9000788E+02  0.7816164E-02  0.1186339E+00
        -11   -1    0    0    0    0  0.00000000000E+00  0.00000000000E+00  0.45593999997E+02  0.45594000000E+02  0.51100000000E-03 0.  1.
         11   -1    0    0    0    0 -0.00000000000E+00 -0.00000000000E+00 -0.45593999997E+02  0.45594000000E+02  0.51100000000E-03 0. -1.
    9900012    2    1    2    0    0 -0.69538016532E+00 -0.20802015572E+00 -0.93051238292E+00  0.90007881678E+02  0.90000144916E+02 0.  0.
         12    1    1    2    0    0  0.69538016532E+00  0.20802015572E+00  0.93051238292E+00  0.11801183222E+01  0.00000000000E+00 0. -1.
         11    1    3    3    0    0 -0.11599978983E+02 -0.33442708127E+02 -0.15441248924E+02  0.38618731308E+02  0.51100000000E-03 0. -1.
        -11    1    3    3    0    0 -0.76249037404E+01 -0.95154427620E+00 -0.36093438040E+01  0.84895203938E+01  0.51100000000E-03 0.  1.
        -12    1    3    3    0    0  0.18529502559E+02  0.34186232248E+02  0.18120080345E+02  0.42899629976E+02  0.00000000000E+00 0.  1.
</event>
<event>
 7    1  0.4008281E-015  0.9000774E+02  0.7816164E-02  0.1186339E+00
        -11   -1    0    0    0    0  0.00000000000E+00  0.00000000000E+00  0.45593999997E+02  0.45594000000E+02  0.51100000000E-03 0.  1.
         11   -1    0    0    0    0 -0.00000000000E+00 -0.00000000000E+00 -0.45593999997E+02  0.45594000000E+02  0.51100000000E-03 0. -1.
    9900012    2    1    2    0    0  0.24449431723E+00  0.10326666926E+01 -0.51656124922E+00  0.90007740074E+02  0.90000001443E+02 0.  0.
         12    1    1    2    0    0 -0.24449431723E+00 -0.10326666926E+01  0.51656124922E+00  0.11802599262E+01  0.00000000000E+00 0. -1.
         11    1    3    3    0    0 -0.11595318291E+02  0.25459038270E+02 -0.99810642771E+01  0.29702452429E+02  0.51100000000E-03 0. -1.
        -11    1    3    3    0    0 -0.12629665285E+01  0.16514261275E+02  0.21575475531E+01  0.16702422627E+02  0.51100000000E-03 0.  1.
        -12    1    3    3    0    0  0.13102779137E+02 -0.40940632853E+02  0.73069554748E+01  0.43602865018E+02  0.00000000000E+00 0.  1.
</event>
<event>
 7    1  0.4008281E-015  0.9000772E+02  0.7816164E-02  0.1186339E+00
        -11   -1    0    0    0    0  0.00000000000E+00  0.00000000000E+00  0.45593999997E+02  0.45594000000E+02  0.51100000000E-03 0. -1.
         11   -1    0    0    0    0 -0.00000000000E+00 -0.00000000000E+00 -0.45593999997E+02  0.45594000000E+02  0.51100000000E-03 0.  1.
    9900012    2    1    2    0    0 -0.18597410734E+00  0.47242518030E+00 -0.10655029589E+01  0.90007716782E+02  0.89999977843E+02 0.  0.
         12    1    1    2    0    0  0.18597410734E+00 -0.47242518030E+00  0.10655029589E+01  0.11802832182E+01  0.00000000000E+00 0. -1.
         11    1    3    3    0    0 -0.12489733330E+02 -0.12208276404E+02  0.33061522508E+02  0.37391171715E+02  0.51100000000E-03 0. -1.
        -11    1    3    3    0    0  0.39625754353E+01  0.54874136892E+01  0.71792958016E+01  0.98669144896E+01  0.51100000000E-03 0.  1.
        -12    1    3    3    0    0  0.83411837877E+01  0.71932878951E+01 -0.41306321269E+02  0.42749630577E+02  0.00000000000E+00 0.  1.
</event>
<event>
 7    1  0.4008281E-015  0.9000761E+02  0.7816164E-02  0.1186339E+00
        -11   -1    0    0    0    0  0.00000000000E+00  0.00000000000E+00  0.45593999997E+02  0.45594000000E+02  0.51100000000E-03 0.  1.
         11   -1    0    0    0    0 -0.00000000000E+00 -0.00000000000E+00 -0.45593999997E+02  0.45594000000E+02  0.51100000000E-03 0. -1.
    9900012    2    1    2    0    0  0.35501442299E+00  0.93170299096E+00  0.63183617397E+00  0.90007609109E+02  0.89999868750E+02 0.  0.
         12    1    1    2    0    0 -0.35501442299E+00 -0.93170299096E+00 -0.63183617397E+00  0.11803908906E+01  0.00000000000E+00 0. -1.
         11    1    3    3    0    0 -0.27684094227E+02 -0.53173606041E+01 -0.27327993805E+02  0.39261974513E+02  0.51100000000E-03 0. -1.
        -11    1    3    3    0    0  0.57931751139E+01  0.21437333491E+01 -0.68545772827E+01  0.92272260490E+01  0.51100000000E-03 0.  1.
        -12    1    3    3    0    0  0.22245933536E+02  0.41053302460E+01  0.34814407262E+02  0.41518408548E+02  0.00000000000E+00 0.  1.
</event>
<event>
 7    1  0.4008281E-015  0.9000777E+02  0.7816164E-02  0.1186339E+00
        -11   -1    0    0    0    0  0.00000000000E+00  0.00000000000E+00  0.45593999997E+02  0.45594000000E+02  0.51100000000E-03 0. -1.
         11   -1    0    0    0    0 -0.00000000000E+00 -0.00000000000E+00 -0.45593999997E+02  0.45594000000E+02  0.51100000000E-03 0.  1.
    9900012    2    1    2    0    0  0.10590024784E+01 -0.51609850274E+00  0.71445632224E-01  0.90007767653E+02  0.90000029386E+02 0.  0.
         12    1    1    2    0    0 -0.10590024784E+01  0.51609850274E+00 -0.71445632224E-01  0.11802323467E+01  0.00000000000E+00 0. -1.
         11    1    3    3    0    0  0.26418964181E+01  0.40777674515E+01  0.74404678704E+01  0.88864147137E+01  0.51100000000E-03 0. -1.
        -11    1    3    3    0    0 -0.78384482127E+01  0.24960057622E+02 -0.32573450858E+02  0.41778887586E+02  0.51100000000E-03 0.  1.
         12    1    3    3    0    0  0.62555542730E+01 -0.29553923576E+02  0.25204428620E+02  0.39342465353E+02  0.00000000000E+00 0. -1.
</event>
<event>
 7    1  0.4008281E-015  0.9000775E+02  0.7816164E-02  0.1186339E+00
        -11   -1    0    0    0    0  0.00000000000E+00  0.00000000000E+00  0.45593999997E+02  0.45594000000E+02  0.51100000000E-03 0.  1.
         11   -1    0    0    0    0 -0.00000000000E+00 -0.00000000000E+00 -0.45593999997E+02  0.45594000000E+02  0.51100000000E-03 0. -1.
    9900012    2    1    2    0    0 -0.71362325916E+00 -0.66484640088E+00  0.66461714720E+00  0.90007747974E+02  0.90000009447E+02 0.  0.
         12    1    1    2    0    0  0.71362325916E+00  0.66484640088E+00 -0.66461714720E+00  0.11802520261E+01  0.00000000000E+00 0. -1.
         11    1    3    3    0    0 -0.43580315053E+01  0.18845408289E+02 -0.36476412996E+02  0.41287656236E+02  0.51100000000E-03 0. -1.
        -11    1    3    3    0    0  0.80877256646E+01 -0.40048235368E+01  0.92205073488E+00  0.90719400244E+01  0.51100000000E-03 0.  1.
        -12    1    3    3    0    0 -0.44433174185E+01 -0.15505431153E+02  0.36218979408E+02  0.39648151713E+02  0.00000000000E+00 0.  1.
</event>
<event>
 7    1  0.4008281E-015  0.9000763E+02  0.7816164E-02  0.1186339E+00
        -11   -1    0    0    0    0  0.00000000000E+00  0.00000000000E+00  0.45593999997E+02  0.45594000000E+02  0.51100000000E-03 0. -1.
         11   -1    0    0    0    0 -0.00000000000E+00 -0.00000000000E+00 -0.45593999997E+02  0.45594000000E+02  0.51100000000E-03 0.  1.
    9900012    2    1    2    0    0  0.93996729277E+00  0.64348727834E+00  0.30928152309E+00  0.90007631647E+02  0.89999891584E+02 0.  0.
         12    1    1    2    0    0 -0.93996729277E+00 -0.64348727834E+00 -0.30928152309E+00  0.11803683533E+01  0.00000000000E+00 0. -1.
         11    1    3    3    0    0  0.11501193390E+02  0.15757380763E+01 -0.95877427224E+01  0.15056068898E+02  0.51100000000E-03 0. -1.
        -11    1    3    3    0    0  0.71399976599E+01 -0.10964504959E+02 -0.28576336824E+02  0.31429396465E+02  0.51100000000E-03 0.  1.
         12    1    3    3    0    0 -0.17701223757E+02  0.10032254161E+02  0.38473361070E+02  0.43522166284E+02  0.00000000000E+00 0. -1.
</event>
<event>
 7    1  0.4008281E-015  0.9000774E+02  0.7816164E-02  0.1186339E+00
        -11   -1    0    0    0    0  0.00000000000E+00  0.00000000000E+00  0.45593999997E+02  0.45594000000E+02  0.51100000000E-03 0.  1.
         11   -1    0    0    0    0 -0.00000000000E+00 -0.00000000000E+00 -0.45593999997E+02  0.45594000000E+02  0.51100000000E-03 0. -1.
    9900012    2    1    2    0    0  0.12282706873E+00  0.60807862780E+00  0.10040749313E+01  0.90007740463E+02  0.90000001837E+02 0.  0.
         12    1    1    2    0    0 -0.12282706873E+00 -0.60807862780E+00 -0.10040749313E+01  0.11802595367E+01  0.00000000000E+00 0. -1.
         11    1    3    3    0    0 -0.45017648199E+01 -0.78876956455E+00  0.63696601624E+01  0.78396820577E+01  0.51100000000E-03 0. -1.
        -11    1    3    3    0    0 -0.33580562467E+02 -0.17868970092E+02  0.43625484907E+01  0.38288197886E+02  0.51100000000E-03 0.  1.
         12    1    3    3    0    0  0.38205154356E+02  0.19265818284E+02 -0.97281337219E+01  0.43879860520E+02  0.00000000000E+00 0. -1.
</event>
<event>
 7    1  0.4008281E-015  0.9000761E+02  0.7816164E-02  0.1186339E+00
        -11   -1    0    0    0    0  0.00000000000E+00  0.00000000000E+00  0.45593999997E+02  0.45594000000E+02  0.51100000000E-03 0. -1.
         11   -1    0    0    0    0 -0.00000000000E+00 -0.00000000000E+00 -0.45593999997E+02  0.45594000000E+02  0.51100000000E-03 0.  1.
    9900012    2    1    2    0    0  0.10369867874E+01  0.48801467048E+00  0.28251167136E+00  0.90007613301E+02  0.89999872996E+02 0.  0.
         12    1    1    2    0    0 -0.10369867874E+01 -0.48801467048E+00 -0.28251167136E+00  0.11803866994E+01  0.00000000000E+00 0. -1.
         11    1    3    3    0    0 -0.78599534195E+00 -0.57666637301E+01 -0.76316385918E+01  0.95976094477E+01  0.51100000000E-03 0. -1.
        -11    1    3    3    0    0 -0.10457325565E+02  0.35424352670E+02 -0.16485146021E+02  0.40447502515E+02  0.51100000000E-03 0.  1.
         12    1    3    3    0    0  0.12280307694E+02 -0.29169674270E+02  0.24399296284E+02  0.39962501338E+02  0.00000000000E+00 0. -1.
</event>
<event>
 7    1  0.4008281E-015  0.9000783E+02  0.7816164E-02  0.1186339E+00
        -11   -1    0    0    0    0  0.00000000000E+00  0.00000000000E+00  0.45593999997E+02  0.45594000000E+02  0.51100000000E-03 0. -1.
         11   -1    0    0    0    0 -0.00000000000E+00 -0.00000000000E+00 -0.45593999997E+02  0.45594000000E+02  0.51100000000E-03 0.  1.
    9900012    2    1    2    0    0  0.74810302272E+00 -0.91254631174E+00 -0.20013259562E-01  0.90007830760E+02  0.90000093326E+02 0.  0.
         12    1    1    2    0    0 -0.74810302272E+00  0.91254631174E+00  0.20013259562E-01  0.11801692397E+01  0.00000000000E+00 0. -1.
         11    1    3    3    0    0 -0.14504442298E+01 -0.27013343232E+01  0.82256862478E+01  0.87785482910E+01  0.51100000000E-03 0. -1.
        -11    1    3    3    0    0  0.39817399897E+02  0.47687840422E+01 -0.15146064101E+02  0.42866885749E+02  0.51100000000E-03 0.  1.
         12    1    3    3    0    0 -0.37618852644E+02 -0.29799960307E+01  0.69003645933E+01  0.38362396721E+02  0.00000000000E+00 0. -1.
</event>
<event>
 7    1  0.4008281E-015  0.9000774E+02  0.7816164E-02  0.1186339E+00
        -11   -1    0    0    0    0  0.00000000000E+00  0.00000000000E+00  0.45593999997E+02  0.45594000000E+02  0.51100000000E-03 0. -1.
         11   -1    0    0    0    0 -0.00000000000E+00 -0.00000000000E+00 -0.45593999997E+02  0.45594000000E+02  0.51100000000E-03 0.  1.
    9900012    2    1    2    0    0  0.18654103303E+00 -0.11040270028E+01 -0.37327043028E+00  0.90007744098E+02  0.90000005520E+02 0.  0.
         12    1    1    2    0    0 -0.18654103303E+00  0.11040270028E+01  0.37327043028E+00  0.11802559020E+01  0.00000000000E+00 0. -1.
         11    1    3    3    0    0 -0.10756780867E+02  0.17083213142E+02  0.11251710033E+02  0.23111587674E+02  0.51100000000E-03 0. -1.
        -11    1    3    3    0    0 -0.25414941849E+02 -0.50637060799E+01  0.18001013067E+01  0.25976927329E+02  0.51100000000E-03 0.  1.
        -12    1    3    3    0    0  0.36358263749E+02 -0.13123534065E+02 -0.13425081770E+02  0.40919229095E+02  0.00000000000E+00 0.  1.
</event>
<event>
 7    1  0.4008281E-015  0.9000766E+02  0.7816164E-02  0.1186339E+00
        -11   -1    0    0    0    0  0.00000000000E+00  0.00000000000E+00  0.45593999997E+02  0.45594000000E+02  0.51100000000E-03 0.  1.
         11   -1    0    0    0    0 -0.00000000000E+00 -0.00000000000E+00 -0.45593999997E+02  0.45594000000E+02  0.51100000000E-03 0. -1.
    9900012    2    1    2    0    0 -0.42402740537E+00 -0.58276985718E+00  0.93476767304E+00  0.90007656597E+02  0.89999916864E+02 0.  0.
         12    1    1    2    0    0  0.42402740537E+00  0.58276985718E+00 -0.93476767304E+00  0.11803434032E+01  0.00000000000E+00 0. -1.
         11    1    3    3    0    0 -0.27782763969E+01 -0.80948191363E+01 -0.26641036119E+01  0.89633902572E+01  0.51100000000E-03 0. -1.
        -11    1    3    3    0    0  0.43317641345E+01 -0.41255292166E+01  0.41200896487E+02  0.41632896169E+02  0.51100000000E-03 0.  1.
         12    1    3    3    0    0 -0.19775151430E+01  0.11637578496E+02 -0.37602025202E+02  0.39411370170E+02  0.00000000000E+00 0. -1.
</event>
<event>
 7    1  0.4008281E-015  0.9000774E+02  0.7816164E-02  0.1186339E+00
        -11   -1    0    0    0    0  0.00000000000E+00  0.00000000000E+00  0.45593999997E+02  0.45594000000E+02  0.51100000000E-03 0. -1.
         11   -1    0    0    0    0 -0.00000000000E+00 -0.00000000000E+00 -0.45593999997E+02  0.45594000000E+02  0.51100000000E-03 0.  1.
    9900012    2    1    2    0    0 -0.72408837719E+00  0.66357026791E+00 -0.65450264604E+00  0.90007744438E+02  0.90000005864E+02 0.  0.
         12    1    1    2    0    0  0.72408837719E+00 -0.66357026791E+00  0.65450264604E+00  0.11802555622E+01  0.00000000000E+00 0. -1.
         11    1    3    3    0    0 -0.25198667712E+01  0.13010901607E+02  0.33076235072E+02  0.35632437694E+02  0.51100000000E-03 0. -1.
        -11    1    3    3    0    0  0.14838444483E+01 -0.35467885627E+01  0.95043536668E+01  0.10252523706E+02  0.51100000000E-03 0.  1.
        -12    1    3    3    0    0  0.31193394576E+00 -0.88005427766E+01 -0.43235091385E+02  0.44122783038E+02  0.00000000000E+00 0.  1.
</event>
<event>
 7    1  0.4008281E-015  0.9000770E+02  0.7816164E-02  0.1186339E+00
        -11   -1    0    0    0    0  0.00000000000E+00  0.00000000000E+00  0.45593999997E+02  0.45594000000E+02  0.51100000000E-03 0.  1.
         11   -1    0    0    0    0 -0.00000000000E+00 -0.00000000000E+00 -0.45593999997E+02  0.45594000000E+02  0.51100000000E-03 0. -1.
    9900012    2    1    2    0    0  0.38983252008E-01 -0.11356278726E+01 -0.31926007275E+00  0.90007704548E+02  0.89999965448E+02 0.  0.
         12    1    1    2    0    0 -0.38983252008E-01  0.11356278726E+01  0.31926007275E+00  0.11802954516E+01  0.00000000000E+00 0. -1.
         11    1    3    3    0    0  0.26209736333E+02  0.24403837175E+02 -0.17663558952E+02  0.39931176574E+02  0.51100000000E-03 0. -1.
        -11    1    3    3    0    0 -0.79329305655E+01  0.34169611562E+01 -0.42347566208E+01  0.96197803924E+01  0.51100000000E-03 0.  1.
        -12    1    3    3    0    0 -0.18237822515E+02 -0.28956426204E+02  0.21579055500E+02  0.40456747582E+02  0.00000000000E+00 0.  1.
</event>
<event>
 7    1  0.4008281E-015  0.9000775E+02  0.7816164E-02  0.1186339E+00
        -11   -1    0    0    0    0  0.00000000000E+00  0.00000000000E+00  0.45593999997E+02  0.45594000000E+02  0.51100000000E-03 0.  1.
         11   -1    0    0    0    0 -0.00000000000E+00 -0.00000000000E+00 -0.45593999997E+02  0.45594000000E+02  0.51100000000E-03 0. -1.
    9900012    2    1    2    0    0  0.70614350764E+00  0.89942079960E+00 -0.29220777577E+00  0.90007753495E+02  0.90000015041E+02 0.  0.
         12    1    1    2    0    0 -0.70614350764E+00 -0.89942079960E+00  0.29220777577E+00  0.11802465049E+01  0.00000000000E+00 0. -1.
         11    1    3    3    0    0 -0.15305347956E+02  0.23707145536E+02 -0.31596339495E+02  0.42362850415E+02  0.51100000000E-03 0. -1.
        -11    1    3    3    0    0 -0.43173219015E+01 -0.74433607950E+01  0.20437352054E+01  0.88441925678E+01  0.51100000000E-03 0.  1.
        -12    1    3    3    0    0  0.20328813365E+02 -0.15364363941E+02  0.29260396514E+02  0.38800710513E+02  0.00000000000E+00 0.  1.
</event>
<event>
 7    1  0.4008281E-015  0.9000728E+02  0.7816164E-02  0.1186340E+00
        -11   -1    0    0    0    0  0.00000000000E+00  0.00000000000E+00  0.45593999997E+02  0.45594000000E+02  0.51100000000E-03 0. -1.
         11   -1    0    0    0    0 -0.00000000000E+00 -0.00000000000E+00 -0.45593999997E+02  0.45594000000E+02  0.51100000000E-03 0.  1.
    9900012    2    1    2    0    0 -0.11229261232E+01 -0.28305995472E+00  0.23025448374E+00  0.90007278550E+02  0.89999533825E+02 0.  0.
         12    1    1    2    0    0  0.11229261232E+01  0.28305995472E+00 -0.23025448374E+00  0.11807214504E+01  0.00000000000E+00 0. -1.
         11    1    3    3    0    0  0.12812036398E+02 -0.32167735902E+02 -0.54846467243E+01  0.35056994447E+02  0.51100000000E-03 0. -1.
        -11    1    3    3    0    0  0.38972633664E+01 -0.70702605731E+01  0.88674098682E+01  0.11992005852E+02  0.51100000000E-03 0.  1.
        -12    1    3    3    0    0 -0.17832225888E+02  0.38954936520E+02 -0.31525086601E+01  0.42958278251E+02  0.00000000000E+00 0.  1.
</event>
<event>
 7    1  0.4008281E-015  0.9000775E+02  0.7816164E-02  0.1186339E+00
        -11   -1    0    0    0    0  0.00000000000E+00  0.00000000000E+00  0.45593999997E+02  0.45594000000E+02  0.51100000000E-03 0. -1.
         11   -1    0    0    0    0 -0.00000000000E+00 -0.00000000000E+00 -0.45593999997E+02  0.45594000000E+02  0.51100000000E-03 0.  1.
    9900012    2    1    2    0    0 -0.64013309698E+00 -0.32914252696E+00 -0.93535059251E+00  0.90007751757E+02  0.90000013280E+02 0.  0.
         12    1    1    2    0    0  0.64013309698E+00  0.32914252696E+00  0.93535059251E+00  0.11802482433E+01  0.00000000000E+00 0. -1.
         11    1    3    3    0    0 -0.30499121280E+01  0.34345599383E+02  0.13607407711E+02  0.37068635068E+02  0.51100000000E-03 0. -1.
        -11    1    3    3    0    0 -0.84141531892E+01  0.49480708769E+01 -0.17369981060E+01  0.99145621171E+01  0.51100000000E-03 0.  1.
        -12    1    3    3    0    0  0.10823932220E+02 -0.39622812787E+02 -0.12805760197E+02  0.43024554571E+02  0.00000000000E+00 0.  1.
</event>
<event>
 7    1  0.4008281E-015  0.9000773E+02  0.7816164E-02  0.1186339E+00
        -11   -1    0    0    0    0  0.00000000000E+00  0.00000000000E+00  0.45593999997E+02  0.45594000000E+02  0.51100000000E-03 0. -1.
         11   -1    0    0    0    0 -0.00000000000E+00 -0.00000000000E+00 -0.45593999997E+02  0.45594000000E+02  0.51100000000E-03 0.  1.
    9900012    2    1    2    0    0 -0.10134583357E+01 -0.35439264450E+00 -0.49024891957E+00  0.90007730561E+02  0.89999991805E+02 0.  0.
         12    1    1    2    0    0  0.10134583357E+01  0.35439264450E+00  0.49024891957E+00  0.11802694387E+01  0.00000000000E+00 0. -1.
         11    1    3    3    0    0  0.14108392647E+02  0.63525958603E+00  0.36167790218E+02  0.38827301572E+02  0.51100000000E-03 0. -1.
        -11    1    3    3    0    0 -0.31486437943E+01 -0.30893975946E+01  0.56458006651E+01  0.71647331180E+01  0.51100000000E-03 0.  1.
        -12    1    3    3    0    0 -0.11973207188E+02  0.20997453641E+01 -0.42303839803E+02  0.44015695871E+02  0.00000000000E+00 0.  1.
</event>
<event>
 7    1  0.4008281E-015  0.9000776E+02  0.7816164E-02  0.1186339E+00
        -11   -1    0    0    0    0  0.00000000000E+00  0.00000000000E+00  0.45593999997E+02  0.45594000000E+02  0.51100000000E-03 0.  1.
         11   -1    0    0    0    0 -0.00000000000E+00 -0.00000000000E+00 -0.45593999997E+02  0.45594000000E+02  0.51100000000E-03 0. -1.
    9900012    2    1    2    0    0  0.54978510100E+00  0.29381297247E+00  0.10021895912E+01  0.90007756933E+02  0.90000018525E+02 0.  0.
         12    1    1    2    0    0 -0.54978510100E+00 -0.29381297247E+00 -0.10021895912E+01  0.11802430668E+01  0.00000000000E+00 0. -1.
         11    1    3    3    0    0 -0.27328254198E+01 -0.62093786216E+01 -0.78909489703E+01  0.10406334300E+02  0.51100000000E-03 0. -1.
        -11    1    3    3    0    0 -0.97522020116E+01 -0.34527570646E+02  0.14225406239E+01  0.35906576012E+02  0.51100000000E-03 0.  1.
         12    1    3    3    0    0  0.13034812532E+02  0.41030762240E+02  0.74705979375E+01  0.43694846622E+02  0.00000000000E+00 0. -1.
</event>
<event>
 7    1  0.4904117E-015  0.9000775E+02  0.7816164E-02  0.1186339E+00
        -11   -1    0    0    0    0  0.00000000000E+00  0.00000000000E+00  0.45593999997E+02  0.45594000000E+02  0.51100000000E-03 0. -1.
         11   -1    0    0    0    0 -0.00000000000E+00 -0.00000000000E+00 -0.45593999997E+02  0.45594000000E+02  0.51100000000E-03 0.  1.
    9900012    2    1    2    0    0 -0.75956679588E+00 -0.48171987024E+00 -0.76419731612E+00  0.90007748633E+02  0.90000010115E+02 0.  0.
         12    1    1    2    0    0  0.75956679588E+00  0.48171987024E+00  0.76419731612E+00  0.11802513668E+01  0.00000000000E+00 0. -1.
         11    1    3    3    0    0 -0.27297755661E+01  0.85967843939E+01 -0.29140513651E+01  0.94788222990E+01  0.51100000000E-03 0. -1.
        -11    1    3    3    0    0 -0.33041863962E+02 -0.31237807207E+01 -0.19926719939E+02  0.38711715899E+02  0.51100000000E-03 0.  1.
         12    1    3    3    0    0  0.35012072733E+02 -0.59547235435E+01  0.22076573988E+02  0.41817210435E+02  0.00000000000E+00 0. -1.
</event>
<event>
 7    1  0.4008281E-015  0.9000777E+02  0.7816164E-02  0.1186339E+00
        -11   -1    0    0    0    0  0.00000000000E+00  0.00000000000E+00  0.45593999997E+02  0.45594000000E+02  0.51100000000E-03 0.  1.
         11   -1    0    0    0    0 -0.00000000000E+00 -0.00000000000E+00 -0.45593999997E+02  0.45594000000E+02  0.51100000000E-03 0. -1.
    9900012    2    1    2    0    0 -0.45947089597E+00  0.63097605831E+00  0.88527384614E+00  0.90007765247E+02  0.90000026948E+02 0.  0.
         12    1    1    2    0    0  0.45947089597E+00 -0.63097605831E+00 -0.88527384614E+00  0.11802347534E+01  0.00000000000E+00 0. -1.
         11    1    3    3    0    0  0.56048503839E+01 -0.36112203311E+02  0.83283964072E+01  0.37481565639E+02  0.51100000000E-03 0. -1.
        -11    1    3    3    0    0  0.99882704957E+01 -0.11114390755E+01  0.22114010107E+01  0.10290342026E+02  0.51100000000E-03 0.  1.
        -12    1    3    3    0    0 -0.16052591776E+02  0.37854618444E+02 -0.96545235717E+01  0.42235857582E+02  0.00000000000E+00 0.  1.
</event>
<event>
 7    1  0.4008281E-015  0.9000817E+02  0.7816164E-02  0.1186338E+00
        -11   -1    0    0    0    0  0.00000000000E+00  0.00000000000E+00  0.45593999997E+02  0.45594000000E+02  0.51100000000E-03 0. -1.
         11   -1    0    0    0    0 -0.00000000000E+00 -0.00000000000E+00 -0.45593999997E+02  0.45594000000E+02  0.51100000000E-03 0.  1.
    9900012    2    1    2    0    0  0.49064375844E+00 -0.10229877754E+01 -0.32366406453E+00  0.90008172168E+02  0.90000439240E+02 0.  0.
         12    1    1    2    0    0 -0.49064375844E+00  0.10229877754E+01  0.32366406453E+00  0.11798278320E+01  0.00000000000E+00 0. -1.
         11    1    3    3    0    0  0.34620742773E+02 -0.16420354444E+02 -0.51232044436E+01  0.38658389701E+02  0.51100000000E-03 0. -1.
        -11    1    3    3    0    0 -0.12512871283E+01 -0.73737873058E+01  0.83360313050E+01  0.11199458777E+02  0.51100000000E-03 0.  1.
        -12    1    3    3    0    0 -0.32878811886E+02  0.22771153975E+02 -0.35364909259E+01  0.40150323691E+02  0.00000000000E+00 0.  1.
</event>
<event>
 7    1  0.4008281E-015  0.9000788E+02  0.7816164E-02  0.1186339E+00
        -11   -1    0    0    0    0  0.00000000000E+00  0.00000000000E+00  0.45593999997E+02  0.45594000000E+02  0.51100000000E-03 0.  1.
         11   -1    0    0    0    0 -0.00000000000E+00 -0.00000000000E+00 -0.45593999997E+02  0.45594000000E+02  0.51100000000E-03 0. -1.
    9900012    2    1    2    0    0  0.48554775635E+00 -0.63762874452E+00  0.86623754458E+00  0.90007875209E+02  0.90000138361E+02 0.  0.
         12    1    1    2    0    0 -0.48554775635E+00  0.63762874452E+00 -0.86623754458E+00  0.11801247914E+01  0.00000000000E+00 0. -1.
         11    1    3    3    0    0  0.13061479741E+02  0.37492588376E+02  0.11104126023E+02  0.41226181623E+02  0.51100000000E-03 0. -1.
        -11    1    3    3    0    0  0.58848420963E+01 -0.60990975190E+01 -0.81413980614E+01  0.11752136814E+02  0.51100000000E-03 0.  1.
        -12    1    3    3    0    0 -0.18460774081E+02 -0.32031119602E+02 -0.20964904172E+01  0.37029556772E+02  0.00000000000E+00 0.  1.
</event>
<event>
 7    1  0.4008281E-015  0.9000774E+02  0.7816164E-02  0.1186339E+00
        -11   -1    0    0    0    0  0.00000000000E+00  0.00000000000E+00  0.45593999997E+02  0.45594000000E+02  0.51100000000E-03 0.  1.
         11   -1    0    0    0    0 -0.00000000000E+00 -0.00000000000E+00 -0.45593999997E+02  0.45594000000E+02  0.51100000000E-03 0. -1.
    9900012    2    1    2    0    0  0.69680833401E+00  0.91310032678E+00 -0.27153288568E+00  0.90007735551E+02  0.89999996860E+02 0.  0.
         12    1    1    2    0    0 -0.69680833401E+00 -0.91310032678E+00  0.27153288568E+00  0.11802644488E+01  0.00000000000E+00 0. -1.
         11    1    3    3    0    0 -0.37970945858E+02  0.52546562014E+01  0.12196806867E+02  0.40226437067E+02  0.51100000000E-03 0. -1.
        -11    1    3    3    0    0 -0.20978780736E+01 -0.43935066489E+00 -0.83523697016E+01  0.86230041930E+01  0.51100000000E-03 0.  1.
        -12    1    3    3    0    0  0.40765632265E+02 -0.39022052097E+01 -0.41159700513E+01  0.41158294291E+02  0.00000000000E+00 0.  1.
</event>
<event>
 7    1  0.4008281E-015  0.9000749E+02  0.7816164E-02  0.1186340E+00
        -11   -1    0    0    0    0  0.00000000000E+00  0.00000000000E+00  0.45593999997E+02  0.45594000000E+02  0.51100000000E-03 0. -1.
         11   -1    0    0    0    0 -0.00000000000E+00 -0.00000000000E+00 -0.45593999997E+02  0.45594000000E+02  0.51100000000E-03 0.  1.
    9900012    2    1    2    0    0 -0.11317167509E+01 -0.12859702180E+00 -0.31028638533E+00  0.90007492635E+02  0.89999750737E+02 0.  0.
         12    1    1    2    0    0  0.11317167509E+01  0.12859702180E+00  0.31028638533E+00  0.11805073651E+01  0.00000000000E+00 0. -1.
         11    1    3    3    0    0  0.25767193346E+02 -0.59535006721E+01  0.28372102804E+02  0.38786191369E+02  0.51100000000E-03 0. -1.
        -11    1    3    3    0    0  0.59187212584E+01 -0.36547605886E+01 -0.56654273372E+00  0.69792196717E+01  0.51100000000E-03 0.  1.
        -12    1    3    3    0    0 -0.32817631355E+02  0.94796642389E+01 -0.28115846455E+02  0.44242081594E+02  0.00000000000E+00 0.  1.
</event>
<event>
 7    1  0.4008281E-015  0.9000718E+02  0.7816164E-02  0.1186340E+00
        -11   -1    0    0    0    0  0.00000000000E+00  0.00000000000E+00  0.45593999997E+02  0.45594000000E+02  0.51100000000E-03 0. -1.
         11   -1    0    0    0    0 -0.00000000000E+00 -0.00000000000E+00 -0.45593999997E+02  0.45594000000E+02  0.51100000000E-03 0.  1.
    9900012    2    1    2    0    0  0.45895527826E+00 -0.10531097815E+01  0.27322307879E+00  0.90007182059E+02  0.89999436060E+02 0.  0.
         12    1    1    2    0    0 -0.45895527826E+00  0.10531097815E+01 -0.27322307879E+00  0.11808179412E+01  0.00000000000E+00 0. -1.
         11    1    3    3    0    0 -0.28701135054E+01  0.98342051270E+01 -0.64510862870E+00  0.10264760466E+02  0.51100000000E-03 0. -1.
        -11    1    3    3    0    0 -0.28292473543E+01 -0.37778932695E+02 -0.22059230176E+02  0.43839046892E+02  0.51100000000E-03 0.  1.
         12    1    3    3    0    0  0.61583161380E+01  0.26891617787E+02  0.22977561883E+02  0.35903374701E+02  0.00000000000E+00 0. -1.
</event>
<event>
 7    1  0.4008281E-015  0.9000794E+02  0.7816164E-02  0.1186339E+00
        -11   -1    0    0    0    0  0.00000000000E+00  0.00000000000E+00  0.45593999997E+02  0.45594000000E+02  0.51100000000E-03 0.  1.
         11   -1    0    0    0    0 -0.00000000000E+00 -0.00000000000E+00 -0.45593999997E+02  0.45594000000E+02  0.51100000000E-03 0. -1.
    9900012    2    1    2    0    0 -0.23864471015E+00  0.10563600624E+01  0.46871649836E+00  0.90007939394E+02  0.90000203393E+02 0.  0.
         12    1    1    2    0    0  0.23864471015E+00 -0.10563600624E+01 -0.46871649836E+00  0.11800606065E+01  0.00000000000E+00 0. -1.
         11    1    3    3    0    0 -0.30113717164E+02  0.13682881448E+02  0.16518701750E+02  0.36971944958E+02  0.51100000000E-03 0. -1.
        -11    1    3    3    0    0 -0.69877036642E+01  0.57687149048E+01 -0.51426529450E+01  0.10418874878E+02  0.51100000000E-03 0.  1.
        -12    1    3    3    0    0  0.36862776119E+02 -0.18395236291E+02 -0.10907332306E+02  0.42617119558E+02  0.00000000000E+00 0.  1.
</event>
<event>
 7    1  0.4035965E-015  0.9000783E+02  0.7816164E-02  0.1186339E+00
        -11   -1    0    0    0    0  0.00000000000E+00  0.00000000000E+00  0.45593999997E+02  0.45594000000E+02  0.51100000000E-03 0.  1.
         11   -1    0    0    0    0 -0.00000000000E+00 -0.00000000000E+00 -0.45593999997E+02  0.45594000000E+02  0.51100000000E-03 0. -1.
    9900012    2    1    2    0    0 -0.17252716620E-01 -0.11446675277E+01  0.28677662544E+00  0.90007829572E+02  0.90000092123E+02 0.  0.
         12    1    1    2    0    0  0.17252716620E-01  0.11446675277E+01 -0.28677662544E+00  0.11801704275E+01  0.00000000000E+00 0. -1.
         11    1    3    3    0    0  0.69073271758E+01  0.30358487318E+00  0.73033911191E+01  0.10056980391E+02  0.51100000000E-03 0. -1.
        -11    1    3    3    0    0  0.42060154565E+01  0.72607005617E+01  0.34806895208E+02  0.35804026212E+02  0.51100000000E-03 0.  1.
         12    1    3    3    0    0 -0.11130595349E+02 -0.87089529625E+01 -0.41823509702E+02  0.44146822970E+02  0.00000000000E+00 0. -1.
</event>
<event>
 7    1  0.4008281E-015  0.9000831E+02  0.7816164E-02  0.1186338E+00
        -11   -1    0    0    0    0  0.00000000000E+00  0.00000000000E+00  0.45593999997E+02  0.45594000000E+02  0.51100000000E-03 0. -1.
         11   -1    0    0    0    0 -0.00000000000E+00 -0.00000000000E+00 -0.45593999997E+02  0.45594000000E+02  0.51100000000E-03 0.  1.
    9900012    2    1    2    0    0 -0.10357732409E+01 -0.25097999428E+00  0.50581945443E+00  0.90008309157E+02  0.90000578036E+02 0.  0.
         12    1    1    2    0    0  0.10357732409E+01  0.25097999428E+00 -0.50581945443E+00  0.11796908428E+01  0.00000000000E+00 0. -1.
         11    1    3    3    0    0  0.19122165042E+01  0.19111509434E+02  0.33122522231E+02  0.38288481872E+02  0.51100000000E-03 0. -1.
        -11    1    3    3    0    0  0.80586133547E+01  0.71810580293E+01 -0.51138305874E+01  0.11944040655E+02  0.51100000000E-03 0.  1.
        -12    1    3    3    0    0 -0.11006603100E+02 -0.26543547458E+02 -0.27502872189E+02  0.39775786631E+02  0.00000000000E+00 0.  1.
</event>
<event>
 7    1  0.4008281E-015  0.9000778E+02  0.7816164E-02  0.1186339E+00
        -11   -1    0    0    0    0  0.00000000000E+00  0.00000000000E+00  0.45593999997E+02  0.45594000000E+02  0.51100000000E-03 0.  1.
         11   -1    0    0    0    0 -0.00000000000E+00 -0.00000000000E+00 -0.45593999997E+02  0.45594000000E+02  0.51100000000E-03 0. -1.
    9900012    2    1    2    0    0 -0.96670232584E+00  0.67404365930E+00  0.63767144069E-01  0.90007782016E+02  0.90000043938E+02 0.  0.
         12    1    1    2    0    0  0.96670232584E+00 -0.67404365930E+00 -0.63767144069E-01  0.11802179841E+01  0.00000000000E+00 0. -1.
         11    1    3    3    0    0  0.23883100766E+01  0.54881915609E+01 -0.76198658893E+01  0.96895112397E+01  0.51100000000E-03 0. -1.
        -11    1    3    3    0    0  0.26863792624E+02 -0.26921566842E+02 -0.93792998550E+01  0.39171486842E+02  0.51100000000E-03 0.  1.
         12    1    3    3    0    0 -0.30218805026E+02  0.22107418941E+02  0.17062932888E+02  0.41146783935E+02  0.00000000000E+00 0. -1.
</event>
<event>
 7    1  0.4008281E-015  0.9000772E+02  0.7816164E-02  0.1186339E+00
        -11   -1    0    0    0    0  0.00000000000E+00  0.00000000000E+00  0.45593999997E+02  0.45594000000E+02  0.51100000000E-03 0.  1.
         11   -1    0    0    0    0 -0.00000000000E+00 -0.00000000000E+00 -0.45593999997E+02  0.45594000000E+02  0.51100000000E-03 0. -1.
    9900012    2    1    2    0    0  0.36901250012E+00 -0.11047439095E+01  0.19089597125E+00  0.90007715881E+02  0.89999976930E+02 0.  0.
         12    1    1    2    0    0 -0.36901250012E+00  0.11047439095E+01 -0.19089597125E+00  0.11802841195E+01  0.00000000000E+00 0. -1.
         11    1    3    3    0    0 -0.10380690079E+02  0.18480926186E+02 -0.34201746262E+02  0.40237579535E+02  0.51100000000E-03 0. -1.
        -11    1    3    3    0    0  0.12120920432E+02 -0.15822692011E+01  0.15901374976E+01  0.12326752430E+02  0.51100000000E-03 0.  1.
        -12    1    3    3    0    0 -0.13712178525E+01 -0.18003400894E+02  0.32802504736E+02  0.37443383916E+02  0.00000000000E+00 0.  1.
</event>
<event>
 7    1  0.4008281E-015  0.9000776E+02  0.7816164E-02  0.1186339E+00
        -11   -1    0    0    0    0  0.00000000000E+00  0.00000000000E+00  0.45593999997E+02  0.45594000000E+02  0.51100000000E-03 0. -1.
         11   -1    0    0    0    0 -0.00000000000E+00 -0.00000000000E+00 -0.45593999997E+02  0.45594000000E+02  0.51100000000E-03 0.  1.
    9900012    2    1    2    0    0  0.31673180872E+00 -0.48627646624E+00 -0.10277123623E+01  0.90007755729E+02  0.90000017304E+02 0.  0.
         12    1    1    2    0    0 -0.31673180872E+00  0.48627646624E+00  0.10277123623E+01  0.11802442713E+01  0.00000000000E+00 0. -1.
         11    1    3    3    0    0  0.54145001590E+01 -0.26035847291E+01  0.86581350068E+01  0.10538442365E+02  0.51100000000E-03 0. -1.
        -11    1    3    3    0    0  0.34546113298E+02  0.64015625500E+01  0.77017980114E+01  0.35968481202E+02  0.51100000000E-03 0.  1.
         12    1    3    3    0    0 -0.39643881648E+02 -0.42842542871E+01 -0.17387645381E+02  0.43500832162E+02  0.00000000000E+00 0. -1.
</event>
<event>
 7    1  0.4008281E-015  0.9000787E+02  0.7816164E-02  0.1186339E+00
        -11   -1    0    0    0    0  0.00000000000E+00  0.00000000000E+00  0.45593999997E+02  0.45594000000E+02  0.51100000000E-03 0. -1.
         11   -1    0    0    0    0 -0.00000000000E+00 -0.00000000000E+00 -0.45593999997E+02  0.45594000000E+02  0.51100000000E-03 0.  1.
    9900012    2    1    2    0    0 -0.40636601081E+00  0.95826934505E+00 -0.55613893114E+00  0.90007871201E+02  0.90000134300E+02 0.  0.
         12    1    1    2    0    0  0.40636601081E+00 -0.95826934505E+00  0.55613893114E+00  0.11801287994E+01  0.00000000000E+00 0. -1.
         11    1    3    3    0    0 -0.99196113826E+01 -0.84719136505E+00  0.26043161976E+01  0.10290718455E+02  0.51100000000E-03 0. -1.
        -11    1    3    3    0    0  0.38251401103E+02 -0.45126686507E+01  0.18935925528E+02  0.42919729037E+02  0.51100000000E-03 0.  1.
         12    1    3    3    0    0 -0.28738155732E+02  0.63181293608E+01 -0.22096380657E+02  0.36797423709E+02  0.00000000000E+00 0. -1.
</event>
<event>
 7    1  0.4008281E-015  0.9000825E+02  0.7816164E-02  0.1186338E+00
        -11   -1    0    0    0    0  0.00000000000E+00  0.00000000000E+00  0.45593999997E+02  0.45594000000E+02  0.51100000000E-03 0.  1.
         11   -1    0    0    0    0 -0.00000000000E+00 -0.00000000000E+00 -0.45593999997E+02  0.45594000000E+02  0.51100000000E-03 0. -1.
    9900012    2    1    2    0    0  0.53101651638E+00  0.41319955177E+00 -0.96906765244E+00  0.90008252347E+02  0.90000520476E+02 0.  0.
         12    1    1    2    0    0 -0.53101651638E+00 -0.41319955177E+00  0.96906765244E+00  0.11797476532E+01  0.00000000000E+00 0. -1.
         11    1    3    3    0    0 -0.12184269360E+02  0.29318520800E+02 -0.15435373405E+02  0.35302731256E+02  0.51100000000E-03 0. -1.
        -11    1    3    3    0    0  0.63946880321E+01  0.10753878794E+02  0.47854185800E+01  0.13395453534E+02  0.51100000000E-03 0.  1.
        -12    1    3    3    0    0  0.63205978439E+01 -0.39659200042E+02  0.96808871722E+01  0.41310067557E+02  0.00000000000E+00 0.  1.
</event>
<event>
 7    1  0.4025048E-015  0.9000746E+02  0.7816164E-02  0.1186340E+00
        -11   -1    0    0    0    0  0.00000000000E+00  0.00000000000E+00  0.45593999997E+02  0.45594000000E+02  0.51100000000E-03 0. -1.
         11   -1    0    0    0    0 -0.00000000000E+00 -0.00000000000E+00 -0.45593999997E+02  0.45594000000E+02  0.51100000000E-03 0.  1.
    9900012    2    1    2    0    0 -0.95009917691E+00  0.12850145162E+00 -0.68882756175E+00  0.90007455855E+02  0.89999713472E+02 0.  0.
         12    1    1    2    0    0  0.95009917691E+00 -0.12850145162E+00  0.68882756175E+00  0.11805441452E+01  0.00000000000E+00 0. -1.
         11    1    3    3    0    0  0.53175799101E+01  0.66721136939E+01 -0.46272231295E+01  0.97059235210E+01  0.51100000000E-03 0. -1.
        -11    1    3    3    0    0 -0.83351862315E+01  0.19052095871E+02 -0.30762764268E+02  0.37132268342E+02  0.51100000000E-03 0.  1.
         12    1    3    3    0    0  0.20675071445E+01 -0.25595708114E+02  0.34701159835E+02  0.43169263991E+02  0.00000000000E+00 0. -1.
</event>
<event>
 7    1  0.4008281E-015  0.9000769E+02  0.7816164E-02  0.1186339E+00
        -11   -1    0    0    0    0  0.00000000000E+00  0.00000000000E+00  0.45593999997E+02  0.45594000000E+02  0.51100000000E-03 0.  1.
         11   -1    0    0    0    0 -0.00000000000E+00 -0.00000000000E+00 -0.45593999997E+02  0.45594000000E+02  0.51100000000E-03 0. -1.
    9900012    2    1    2    0    0 -0.52555321963E+00  0.21693573913E+00  0.10343442588E+01  0.90007688453E+02  0.89999949141E+02 0.  0.
         12    1    1    2    0    0  0.52555321963E+00 -0.21693573913E+00 -0.10343442588E+01  0.11803115467E+01  0.00000000000E+00 0. -1.
         11    1    3    3    0    0  0.80148542161E+00  0.84927347834E+01  0.42351890094E+01  0.95239565932E+01  0.51100000000E-03 0. -1.
        -11    1    3    3    0    0  0.18793096536E+02 -0.66862965900E+01  0.33275357147E+02  0.38796087857E+02  0.51100000000E-03 0.  1.
         12    1    3    3    0    0 -0.20120135177E+02 -0.15895024542E+01 -0.36476201898E+02  0.41687644003E+02  0.00000000000E+00 0. -1.
</event>
<event>
 7    1  0.4008281E-015  0.9000761E+02  0.7816164E-02  0.1186339E+00
        -11   -1    0    0    0    0  0.00000000000E+00  0.00000000000E+00  0.45593999997E+02  0.45594000000E+02  0.51100000000E-03 0. -1.
         11   -1    0    0    0    0 -0.00000000000E+00 -0.00000000000E+00 -0.45593999997E+02  0.45594000000E+02  0.51100000000E-03 0.  1.
    9900012    2    1    2    0    0  0.11501651018E+01  0.24139860338E+00 -0.11026884362E+00  0.90007613510E+02  0.89999873209E+02 0.  0.
         12    1    1    2    0    0 -0.11501651018E+01 -0.24139860338E+00  0.11026884362E+00  0.11803864896E+01  0.00000000000E+00 0. -1.
         11    1    3    3    0    0  0.73987175872E+01  0.32366993583E+00 -0.45594607032E+01  0.86968078240E+01  0.51100000000E-03 0. -1.
        -11    1    3    3    0    0  0.22438458385E+00 -0.38941514210E+02 -0.84684917667E+01  0.39852317755E+02  0.51100000000E-03 0.  1.
         12    1    3    3    0    0 -0.64729370693E+01  0.38859242877E+02  0.12917683626E+02  0.41458487931E+02  0.00000000000E+00 0. -1.
</event>
<event>
 7    1  0.4008281E-015  0.9000779E+02  0.7816164E-02  0.1186339E+00
        -11   -1    0    0    0    0  0.00000000000E+00  0.00000000000E+00  0.45593999997E+02  0.45594000000E+02  0.51100000000E-03 0. -1.
         11   -1    0    0    0    0 -0.00000000000E+00 -0.00000000000E+00 -0.45593999997E+02  0.45594000000E+02  0.51100000000E-03 0.  1.
    9900012    2    1    2    0    0 -0.10776914440E+01 -0.25710903007E-01 -0.48044355835E+00  0.90007785650E+02  0.90000047621E+02 0.  0.
         12    1    1    2    0    0  0.10776914440E+01  0.25710903007E-01  0.48044355835E+00  0.11802143500E+01  0.00000000000E+00 0. -1.
         11    1    3    3    0    0 -0.57030216614E+01 -0.54026673226E+01  0.11646413325E+01  0.79416408860E+01  0.51100000000E-03 0. -1.
        -11    1    3    3    0    0 -0.27118024192E+02 -0.24811213694E+02 -0.85033533147E+01  0.37726523546E+02  0.51100000000E-03 0.  1.
         12    1    3    3    0    0  0.31743354410E+02  0.30188170113E+02  0.68582684238E+01  0.44339621218E+02  0.00000000000E+00 0. -1.
</event>
<event>
 7    1  0.4008281E-015  0.9000773E+02  0.7816164E-02  0.1186339E+00
        -11   -1    0    0    0    0  0.00000000000E+00  0.00000000000E+00  0.45593999997E+02  0.45594000000E+02  0.51100000000E-03 0.  1.
         11   -1    0    0    0    0 -0.00000000000E+00 -0.00000000000E+00 -0.45593999997E+02  0.45594000000E+02  0.51100000000E-03 0. -1.
    9900012    2    1    2    0    0 -0.12779269151E+00 -0.90709595200E+00  0.74423653986E+00  0.90007727970E+02  0.89999989179E+02 0.  0.
         12    1    1    2    0    0  0.12779269151E+00  0.90709595200E+00 -0.74423653986E+00  0.11802720303E+01  0.00000000000E+00 0. -1.
         11    1    3    3    0    0  0.19687254933E+02  0.22157032800E+02 -0.24987290591E+02  0.38767083985E+02  0.51100000000E-03 0. -1.
        -11    1    3    3    0    0  0.43990975981E+01  0.24246931447E+00  0.15493100302E+02  0.16107358824E+02  0.51100000000E-03 0.  1.
        -12    1    3    3    0    0 -0.24214145223E+02 -0.23306598067E+02  0.10238426829E+02  0.35133285161E+02  0.00000000000E+00 0.  1.
</event>
<event>
 7    1  0.4008281E-015  0.9000768E+02  0.7816164E-02  0.1186339E+00
        -11   -1    0    0    0    0  0.00000000000E+00  0.00000000000E+00  0.45593999997E+02  0.45594000000E+02  0.51100000000E-03 0.  1.
         11   -1    0    0    0    0 -0.00000000000E+00 -0.00000000000E+00 -0.45593999997E+02  0.45594000000E+02  0.51100000000E-03 0. -1.
    9900012    2    1    2    0    0 -0.22554324835E-01 -0.15118201741E+00  0.11703764143E+01  0.90007684088E+02  0.89999944718E+02 0.  0.
         12    1    1    2    0    0  0.22554324835E-01  0.15118201741E+00 -0.11703764143E+01  0.11803159116E+01  0.00000000000E+00 0. -1.
         11    1    3    3    0    0  0.14178159789E+01 -0.94008051346E+01  0.12049910940E+01  0.95831802199E+01  0.51100000000E-03 0. -1.
        -11    1    3    3    0    0  0.60812575892E+01 -0.26693097649E+02  0.24107152359E+02  0.36478184592E+02  0.51100000000E-03 0.  1.
         12    1    3    3    0    0 -0.75216278929E+01  0.35942720766E+02 -0.24141767039E+02  0.43946319277E+02  0.00000000000E+00 0. -1.
</event>
<event>
 7    1  0.4008281E-015  0.9000774E+02  0.7816164E-02  0.1186339E+00
        -11   -1    0    0    0    0  0.00000000000E+00  0.00000000000E+00  0.45593999997E+02  0.45594000000E+02  0.51100000000E-03 0.  1.
         11   -1    0    0    0    0 -0.00000000000E+00 -0.00000000000E+00 -0.45593999997E+02  0.45594000000E+02  0.51100000000E-03 0. -1.
    9900012    2    1    2    0    0  0.86866404928E+00  0.79889011951E+00 -0.14231265244E-01  0.90007743595E+02  0.90000005010E+02 0.  0.
         12    1    1    2    0    0 -0.86866404928E+00 -0.79889011951E+00  0.14231265244E-01  0.11802564054E+01  0.00000000000E+00 0. -1.
         11    1    3    3    0    0  0.70301473685E+01  0.13069709638E+01  0.47537733575E+01  0.85865887592E+01  0.51100000000E-03 0. -1.
        -11    1    3    3    0    0 -0.24636167202E+01  0.27586733506E+02  0.27118840633E+02  0.38762466258E+02  0.51100000000E-03 0.  1.
         12    1    3    3    0    0 -0.36978665990E+01 -0.28094814351E+02 -0.31886845256E+02  0.42658688577E+02  0.00000000000E+00 0. -1.
</event>
<event>
 7    1  0.4008281E-015  0.9000778E+02  0.7816164E-02  0.1186339E+00
        -11   -1    0    0    0    0  0.00000000000E+00  0.00000000000E+00  0.45593999997E+02  0.45594000000E+02  0.51100000000E-03 0.  1.
         11   -1    0    0    0    0 -0.00000000000E+00 -0.00000000000E+00 -0.45593999997E+02  0.45594000000E+02  0.51100000000E-03 0. -1.
    9900012    2    1    2    0    0 -0.10694484848E+01  0.47768793183E+00  0.14494100002E+00  0.90007782344E+02  0.90000044271E+02 0.  0.
         12    1    1    2    0    0  0.10694484848E+01 -0.47768793183E+00 -0.14494100002E+00  0.11802176560E+01  0.00000000000E+00 0. -1.
         11    1    3    3    0    0 -0.72301182460E+01  0.58734327481E+01 -0.38701217395E+01  0.10087103878E+02  0.51100000000E-03 0. -1.
        -11    1    3    3    0    0 -0.11389504414E+02 -0.22492904079E+02  0.33280903637E+02  0.41752486056E+02  0.51100000000E-03 0.  1.
         12    1    3    3    0    0  0.17550174175E+02  0.17097159262E+02 -0.29265840898E+02  0.38168192410E+02  0.00000000000E+00 0. -1.
</event>
<event>
 7    1  0.4008281E-015  0.9000773E+02  0.7816164E-02  0.1186339E+00
        -11   -1    0    0    0    0  0.00000000000E+00  0.00000000000E+00  0.45593999997E+02  0.45594000000E+02  0.51100000000E-03 0. -1.
         11   -1    0    0    0    0 -0.00000000000E+00 -0.00000000000E+00 -0.45593999997E+02  0.45594000000E+02  0.51100000000E-03 0.  1.
    9900012    2    1    2    0    0  0.25998282790E+00 -0.11501815183E+01 -0.50289502419E-01  0.90007729849E+02  0.89999991083E+02 0.  0.
         12    1    1    2    0    0 -0.25998282790E+00  0.11501815183E+01  0.50289502419E-01  0.11802701513E+01  0.00000000000E+00 0. -1.
         11    1    3    3    0    0 -0.19917967908E+02  0.26136587264E+02  0.16177736591E+02  0.36627391401E+02  0.51100000000E-03 0. -1.
        -11    1    3    3    0    0 -0.84360850090E+01  0.16710876027E+01  0.19144354826E+01  0.88105123309E+01  0.51100000000E-03 0.  1.
        -12    1    3    3    0    0  0.28614035745E+02 -0.28957856385E+02 -0.18142461576E+02  0.44569826117E+02  0.00000000000E+00 0.  1.
</event>
<event>
 7    1  0.4008281E-015  0.9000778E+02  0.7816164E-02  0.1186339E+00
        -11   -1    0    0    0    0  0.00000000000E+00  0.00000000000E+00  0.45593999997E+02  0.45594000000E+02  0.51100000000E-03 0. -1.
         11   -1    0    0    0    0 -0.00000000000E+00 -0.00000000000E+00 -0.45593999997E+02  0.45594000000E+02  0.51100000000E-03 0.  1.
    9900012    2    1    2    0    0  0.11511097236E+01 -0.25352306471E+00  0.59857025199E-01  0.90007783747E+02  0.90000045693E+02 0.  0.
         12    1    1    2    0    0 -0.11511097236E+01  0.25352306471E+00 -0.59857025199E-01  0.11802162529E+01  0.00000000000E+00 0. -1.
         11    1    3    3    0    0 -0.15916229169E+00  0.73471204191E+01  0.38100019263E+02  0.38802280592E+02  0.51100000000E-03 0. -1.
        -11    1    3    3    0    0 -0.77191398847E+01  0.13620087134E+01  0.28819120277E+01  0.83513834478E+01  0.51100000000E-03 0.  1.
        -12    1    3    3    0    0  0.90294119000E+01 -0.89626521972E+01 -0.40922074265E+02  0.42854119707E+02  0.00000000000E+00 0.  1.
</event>
<event>
 7    1  0.4784791E-015  0.9000770E+02  0.7816164E-02  0.1186339E+00
        -11   -1    0    0    0    0  0.00000000000E+00  0.00000000000E+00  0.45593999997E+02  0.45594000000E+02  0.51100000000E-03 0. -1.
         11   -1    0    0    0    0 -0.00000000000E+00 -0.00000000000E+00 -0.45593999997E+02  0.45594000000E+02  0.51100000000E-03 0.  1.
    9900012    2    1    2    0    0  0.76378883506E-01  0.11497771863E+01 -0.25550240032E+00  0.90007702246E+02  0.89999963115E+02 0.  0.
         12    1    1    2    0    0 -0.76378883506E-01 -0.11497771863E+01  0.25550240032E+00  0.11802977542E+01  0.00000000000E+00 0. -1.
         11    1    3    3    0    0 -0.67620142220E+01  0.43790715013E+01  0.40573013364E+01  0.90201329229E+01  0.51100000000E-03 0. -1.
        -11    1    3    3    0    0 -0.19211074554E+02  0.15368324958E+02 -0.30816050979E+02  0.39431964137E+02  0.51100000000E-03 0.  1.
         12    1    3    3    0    0  0.26049467659E+02 -0.18597619273E+02  0.26503247243E+02  0.41555605186E+02  0.00000000000E+00 0. -1.
</event>
<event>
 7    1  0.4008281E-015  0.9000766E+02  0.7816164E-02  0.1186339E+00
        -11   -1    0    0    0    0  0.00000000000E+00  0.00000000000E+00  0.45593999997E+02  0.45594000000E+02  0.51100000000E-03 0. -1.
         11   -1    0    0    0    0 -0.00000000000E+00 -0.00000000000E+00 -0.45593999997E+02  0.45594000000E+02  0.51100000000E-03 0.  1.
    9900012    2    1    2    0    0  0.11290568624E+01 -0.32555734093E+00  0.11159655250E+00  0.90007656503E+02  0.89999916769E+02 0.  0.
         12    1    1    2    0    0 -0.11290568624E+01  0.32555734093E+00 -0.11159655250E+00  0.11803434971E+01  0.00000000000E+00 0. -1.
         11    1    3    3    0    0 -0.32036999166E+02  0.67274803474E+01  0.17461650149E+02  0.37101718741E+02  0.51100000000E-03 0. -1.
        -11    1    3    3    0    0 -0.13365346027E+01  0.50117736041E+01  0.72011299459E+01  0.88747096945E+01  0.51100000000E-03 0.  1.
        -12    1    3    3    0    0  0.34502590631E+02 -0.12064811292E+02 -0.24551183542E+02  0.44031228067E+02  0.00000000000E+00 0.  1.
</event>
<event>
 7    1  0.4008281E-015  0.9000764E+02  0.7816164E-02  0.1186339E+00
        -11   -1    0    0    0    0  0.00000000000E+00  0.00000000000E+00  0.45593999997E+02  0.45594000000E+02  0.51100000000E-03 0.  1.
         11   -1    0    0    0    0 -0.00000000000E+00 -0.00000000000E+00 -0.45593999997E+02  0.45594000000E+02  0.51100000000E-03 0. -1.
    9900012    2    1    2    0    0 -0.26079107421E+00 -0.43651531404E+00  0.10652167131E+01  0.90007642321E+02  0.89999902400E+02 0.  0.
         12    1    1    2    0    0  0.26079107421E+00  0.43651531404E+00 -0.10652167131E+01  0.11803576787E+01  0.00000000000E+00 0. -1.
         11    1    3    3    0    0 -0.24870902849E+01  0.14041990705E+01  0.87526409485E+01  0.92068516307E+01  0.51100000000E-03 0. -1.
        -11    1    3    3    0    0  0.28857761181E+02 -0.76562054026E+00  0.25304070772E+02  0.38388182467E+02  0.51100000000E-03 0.  1.
         12    1    3    3    0    0 -0.26631461971E+02 -0.10750938443E+01 -0.32991495008E+02  0.42412608223E+02  0.00000000000E+00 0. -1.
</event>
<event>
 7    1  0.4008281E-015  0.9000778E+02  0.7816164E-02  0.1186339E+00
        -11   -1    0    0    0    0  0.00000000000E+00  0.00000000000E+00  0.45593999997E+02  0.45594000000E+02  0.51100000000E-03 0.  1.
         11   -1    0    0    0    0 -0.00000000000E+00 -0.00000000000E+00 -0.45593999997E+02  0.45594000000E+02  0.51100000000E-03 0. -1.
    9900012    2    1    2    0    0  0.10168918643E+01 -0.21063439727E+00  0.56077906163E+00  0.90007784313E+02  0.90000046265E+02 0.  0.
         12    1    1    2    0    0 -0.10168918643E+01  0.21063439727E+00 -0.56077906163E+00  0.11802156875E+01  0.00000000000E+00 0. -1.
         11    1    3    3    0    0 -0.11299871783E+01  0.10403269135E+01 -0.98733413821E+01  0.99920979488E+01  0.51100000000E-03 0. -1.
        -11    1    3    3    0    0  0.37410987844E+02  0.13445041209E+02  0.12732342578E+02  0.41742828035E+02  0.51100000000E-03 0.  1.
         12    1    3    3    0    0 -0.35264108802E+02 -0.14696002520E+02 -0.22982221339E+01  0.38272858328E+02  0.00000000000E+00 0. -1.
</event>
<event>
 7    1  0.4008281E-015  0.9000769E+02  0.7816164E-02  0.1186339E+00
        -11   -1    0    0    0    0  0.00000000000E+00  0.00000000000E+00  0.45593999997E+02  0.45594000000E+02  0.51100000000E-03 0. -1.
         11   -1    0    0    0    0 -0.00000000000E+00 -0.00000000000E+00 -0.45593999997E+02  0.45594000000E+02  0.51100000000E-03 0.  1.
    9900012    2    1    2    0    0  0.87063035989E+00  0.70947049884E+00  0.36300744918E+00  0.90007694946E+02  0.89999955719E+02 0.  0.
         12    1    1    2    0    0 -0.87063035989E+00 -0.70947049884E+00 -0.36300744918E+00  0.11803050540E+01  0.00000000000E+00 0. -1.
         11    1    3    3    0    0  0.65151007905E+01 -0.57446153752E+01  0.10695226784E+02  0.13778063011E+02  0.51100000000E-03 0. -1.
        -11    1    3    3    0    0 -0.71742284787E+00  0.36160672248E+02  0.12685021053E+02  0.38327779382E+02  0.51100000000E-03 0.  1.
         12    1    3    3    0    0 -0.49270475827E+01 -0.29706586374E+02 -0.23017240387E+02  0.37901852553E+02  0.00000000000E+00 0. -1.
</event>
<event>
 7    1  0.4008281E-015  0.9000770E+02  0.7816164E-02  0.1186339E+00
        -11   -1    0    0    0    0  0.00000000000E+00  0.00000000000E+00  0.45593999997E+02  0.45594000000E+02  0.51100000000E-03 0.  1.
         11   -1    0    0    0    0 -0.00000000000E+00 -0.00000000000E+00 -0.45593999997E+02  0.45594000000E+02  0.51100000000E-03 0. -1.
    9900012    2    1    2    0    0  0.18547062901E+00  0.14563919541E+00  0.11565027401E+01  0.90007699734E+02  0.89999960571E+02 0.  0.
         12    1    1    2    0    0 -0.18547062901E+00 -0.14563919541E+00 -0.11565027401E+01  0.11803002658E+01  0.00000000000E+00 0. -1.
         11    1    3    3    0    0  0.78162460576E+01  0.64659633555E+01 -0.10262769942E+00  0.10144600399E+02  0.51100000000E-03 0. -1.
        -11    1    3    3    0    0  0.12055758620E+02 -0.28682056817E+02  0.26458951958E+02  0.40842108640E+02  0.51100000000E-03 0.  1.
         12    1    3    3    0    0 -0.19686534048E+02  0.22361732657E+02 -0.25199821519E+02  0.39020990695E+02  0.00000000000E+00 0. -1.
</event>
<event>
 7    1  0.6321447E-015  0.9000772E+02  0.7816164E-02  0.1186339E+00
        -11   -1    0    0    0    0  0.00000000000E+00  0.00000000000E+00  0.45593999997E+02  0.45594000000E+02  0.51100000000E-03 0. -1.
         11   -1    0    0    0    0 -0.00000000000E+00 -0.00000000000E+00 -0.45593999997E+02  0.45594000000E+02  0.51100000000E-03 0.  1.
    9900012    2    1    2    0    0 -0.36955998235E+00 -0.73513907399E+00 -0.84619989113E+00  0.90007721095E+02  0.89999982213E+02 0.  0.
         12    1    1    2    0    0  0.36955998235E+00  0.73513907399E+00  0.84619989113E+00  0.11802789054E+01  0.00000000000E+00 0. -1.
         11    1    3    3    0    0 -0.55742270732E+01  0.68099908017E+01  0.34925686036E+01  0.94681581047E+01  0.51100000000E-03 0. -1.
        -11    1    3    3    0    0  0.54860006313E+01  0.23352097292E+02 -0.31366869273E+02  0.39487936628E+02  0.51100000000E-03 0.  1.
         12    1    3    3    0    0 -0.28133354047E+00 -0.30897227168E+02  0.27028100779E+02  0.41051626362E+02  0.00000000000E+00 0. -1.
</event>
<event>
 7    1  0.4008281E-015  0.9000775E+02  0.7816164E-02  0.1186339E+00
        -11   -1    0    0    0    0  0.00000000000E+00  0.00000000000E+00  0.45593999997E+02  0.45594000000E+02  0.51100000000E-03 0.  1.
         11   -1    0    0    0    0 -0.00000000000E+00 -0.00000000000E+00 -0.45593999997E+02  0.45594000000E+02  0.51100000000E-03 0. -1.
    9900012    2    1    2    0    0  0.54756025414E+00 -0.92207345903E+00  0.49289807095E+00  0.90007749940E+02  0.90000011439E+02 0.  0.
         12    1    1    2    0    0 -0.54756025414E+00  0.92207345903E+00 -0.49289807095E+00  0.11802500600E+01  0.00000000000E+00 0. -1.
         11    1    3    3    0    0 -0.79047699557E+01 -0.26485407508E+01  0.59370178902E+01  0.10234663544E+02  0.51100000000E-03 0. -1.
        -11    1    3    3    0    0 -0.33526303313E+02  0.80968616399E+01  0.76739194430E+01  0.35333570752E+02  0.51100000000E-03 0.  1.
         12    1    3    3    0    0  0.41978633523E+02 -0.63703943481E+01 -0.13118039262E+02  0.44439515644E+02  0.00000000000E+00 0. -1.
</event>
<event>
 7    1  0.4008281E-015  0.9000774E+02  0.7816164E-02  0.1186339E+00
        -11   -1    0    0    0    0  0.00000000000E+00  0.00000000000E+00  0.45593999997E+02  0.45594000000E+02  0.51100000000E-03 0.  1.
         11   -1    0    0    0    0 -0.00000000000E+00 -0.00000000000E+00 -0.45593999997E+02  0.45594000000E+02  0.51100000000E-03 0. -1.
    9900012    2    1    2    0    0  0.93906240939E+00  0.54436501051E+00  0.46351227678E+00  0.90007739391E+02  0.90000000751E+02 0.  0.
         12    1    1    2    0    0 -0.93906240939E+00 -0.54436501051E+00 -0.46351227678E+00  0.11802606086E+01  0.00000000000E+00 0. -1.
         11    1    3    3    0    0 -0.11456024772E+02 -0.35177228809E+02 -0.78353705752E+00  0.37003943855E+02  0.51100000000E-03 0. -1.
        -11    1    3    3    0    0 -0.32220628655E+01 -0.17251382159E+01  0.10731818342E+02  0.11337094696E+02  0.51100000000E-03 0.  1.
        -12    1    3    3    0    0  0.15617150047E+02  0.37446732036E+02 -0.94847690075E+01  0.41666700840E+02  0.00000000000E+00 0.  1.
</event>
<event>
 7    1  0.4008281E-015  0.9000648E+02  0.7816164E-02  0.1186342E+00
        -11   -1    0    0    0    0  0.00000000000E+00  0.00000000000E+00  0.45593999997E+02  0.45594000000E+02  0.51100000000E-03 0. -1.
         11   -1    0    0    0    0 -0.00000000000E+00 -0.00000000000E+00 -0.45593999997E+02  0.45594000000E+02  0.51100000000E-03 0.  1.
    9900012    2    1    2    0    0  0.60740179725E+00  0.18820395660E+00 -0.99580260890E+00  0.90006483809E+02  0.89998728587E+02 0.  0.
         12    1    1    2    0    0 -0.60740179725E+00 -0.18820395660E+00  0.99580260890E+00  0.11815161905E+01  0.00000000000E+00 0. -1.
         11    1    3    3    0    0 -0.14894474261E+02  0.29725456720E+02 -0.25473176166E+02  0.41884732839E+02  0.51100000000E-03 0. -1.
        -11    1    3    3    0    0  0.47974947179E+01  0.25314584512E+01 -0.13350293470E+01  0.55862815071E+01  0.51100000000E-03 0.  1.
        -12    1    3    3    0    0  0.10704381341E+02 -0.32068711214E+02  0.25812402904E+02  0.42535469464E+02  0.00000000000E+00 0.  1.
</event>
<event>
 7    1  0.4008281E-015  0.9000780E+02  0.7816164E-02  0.1186339E+00
        -11   -1    0    0    0    0  0.00000000000E+00  0.00000000000E+00  0.45593999997E+02  0.45594000000E+02  0.51100000000E-03 0. -1.
         11   -1    0    0    0    0 -0.00000000000E+00 -0.00000000000E+00 -0.45593999997E+02  0.45594000000E+02  0.51100000000E-03 0.  1.
    9900012    2    1    2    0    0 -0.10788343147E+01  0.47850420955E+00 -0.35598874897E-02  0.90007804071E+02  0.90000066285E+02 0.  0.
         12    1    1    2    0    0  0.10788343147E+01 -0.47850420955E+00  0.35598874897E-02  0.11801959286E+01  0.00000000000E+00 0. -1.
         11    1    3    3    0    0 -0.52611533296E+01 -0.29762282912E+01 -0.37491974103E+01  0.71129565360E+01  0.51100000000E-03 0. -1.
        -11    1    3    3    0    0  0.15280312862E+02 -0.33560684458E+02 -0.15165533467E+02  0.39872307533E+02  0.51100000000E-03 0.  1.
         12    1    3    3    0    0 -0.11097993847E+02  0.37015416959E+02  0.18911170989E+02  0.43022540002E+02  0.00000000000E+00 0. -1.
</event>
<event>
 7    1  0.4008281E-015  0.9000775E+02  0.7816164E-02  0.1186339E+00
        -11   -1    0    0    0    0  0.00000000000E+00  0.00000000000E+00  0.45593999997E+02  0.45594000000E+02  0.51100000000E-03 0.  1.
         11   -1    0    0    0    0 -0.00000000000E+00 -0.00000000000E+00 -0.45593999997E+02  0.45594000000E+02  0.51100000000E-03 0. -1.
    9900012    2    1    2    0    0 -0.29630289646E-02  0.11487506986E+01 -0.27085942244E+00  0.90007745039E+02  0.90000006473E+02 0.  0.
         12    1    1    2    0    0  0.29630289646E-02 -0.11487506986E+01  0.27085942244E+00  0.11802549613E+01  0.00000000000E+00 0. -1.
         11    1    3    3    0    0  0.30914442759E+02 -0.10626905424E+02 -0.17317693143E+02  0.36993734416E+02  0.51100000000E-03 0. -1.
        -11    1    3    3    0    0  0.88905845317E+01  0.23580197334E+01  0.44045768698E+01  0.10198188469E+02  0.51100000000E-03 0.  1.
        -12    1    3    3    0    0 -0.39807990320E+02  0.94176363888E+01  0.12642256851E+02  0.42815822154E+02  0.00000000000E+00 0.  1.
</event>
<event>
 7    1  0.4008281E-015  0.9000775E+02  0.7816164E-02  0.1186339E+00
        -11   -1    0    0    0    0  0.00000000000E+00  0.00000000000E+00  0.45593999997E+02  0.45594000000E+02  0.51100000000E-03 0.  1.
         11   -1    0    0    0    0 -0.00000000000E+00 -0.00000000000E+00 -0.45593999997E+02  0.45594000000E+02  0.51100000000E-03 0. -1.
    9900012    2    1    2    0    0 -0.43830731381E+00 -0.85426015340E+00  0.68637541802E+00  0.90007752176E+02  0.90000013705E+02 0.  0.
         12    1    1    2    0    0  0.43830731381E+00  0.85426015340E+00 -0.68637541802E+00  0.11802478238E+01  0.00000000000E+00 0. -1.
         11    1    3    3    0    0 -0.30238011894E+01  0.34283666994E+01 -0.83039423897E+01  0.94790575129E+01  0.51100000000E-03 0. -1.
        -11    1    3    3    0    0 -0.16055534413E+02  0.33904489647E+02  0.50511980484E+01  0.37852466307E+02  0.51100000000E-03 0.  1.
         12    1    3    3    0    0  0.18641028289E+02 -0.38187116500E+02  0.39391197594E+01  0.42676228356E+02  0.00000000000E+00 0. -1.
</event>
<event>
 7    1  0.4008281E-015  0.9000774E+02  0.7816164E-02  0.1186339E+00
        -11   -1    0    0    0    0  0.00000000000E+00  0.00000000000E+00  0.45593999997E+02  0.45594000000E+02  0.51100000000E-03 0. -1.
         11   -1    0    0    0    0 -0.00000000000E+00 -0.00000000000E+00 -0.45593999997E+02  0.45594000000E+02  0.51100000000E-03 0.  1.
    9900012    2    1    2    0    0  0.10107301907E+01  0.53237958498E+00 -0.29666290766E+00  0.90007740528E+02  0.90000001903E+02 0.  0.
         12    1    1    2    0    0 -0.10107301907E+01 -0.53237958498E+00  0.29666290766E+00  0.11802594722E+01  0.00000000000E+00 0. -1.
         11    1    3    3    0    0  0.21398240093E+02 -0.21897879277E+02  0.20736040256E+02  0.36978171422E+02  0.51100000000E-03 0. -1.
        -11    1    3    3    0    0  0.91078804464E+00 -0.36396178661E+00  0.93982751535E+01  0.94493163332E+01  0.51100000000E-03 0.  1.
        -12    1    3    3    0    0 -0.21298297947E+02  0.22794220649E+02 -0.30430978317E+02  0.43580252773E+02  0.00000000000E+00 0.  1.
</event>
<event>
 7    1  0.4008281E-015  0.9000776E+02  0.7816164E-02  0.1186339E+00
        -11   -1    0    0    0    0  0.00000000000E+00  0.00000000000E+00  0.45593999997E+02  0.45594000000E+02  0.51100000000E-03 0. -1.
         11   -1    0    0    0    0 -0.00000000000E+00 -0.00000000000E+00 -0.45593999997E+02  0.45594000000E+02  0.51100000000E-03 0.  1.
    9900012    2    1    2    0    0 -0.18267745313E+00  0.98856973492E+00 -0.61831747895E+00  0.90007763720E+02  0.90000025401E+02 0.  0.
         12    1    1    2    0    0  0.18267745313E+00 -0.98856973492E+00  0.61831747895E+00  0.11802362804E+01  0.00000000000E+00 0. -1.
         11    1    3    3    0    0 -0.15249976533E+02  0.16539615835E+02 -0.86970256074E+01  0.24119679328E+02  0.51100000000E-03 0. -1.
        -11    1    3    3    0    0 -0.19848056209E+02 -0.21034542353E+02  0.97101628261E+01  0.30507123261E+02  0.51100000000E-03 0.  1.
         12    1    3    3    0    0  0.34915355289E+02  0.54834962535E+01 -0.16314546976E+01  0.35380961131E+02  0.00000000000E+00 0. -1.
</event>
<event>
 7    1  0.4008281E-015  0.9000773E+02  0.7816164E-02  0.1186339E+00
        -11   -1    0    0    0    0  0.00000000000E+00  0.00000000000E+00  0.45593999997E+02  0.45594000000E+02  0.51100000000E-03 0. -1.
         11   -1    0    0    0    0 -0.00000000000E+00 -0.00000000000E+00 -0.45593999997E+02  0.45594000000E+02  0.51100000000E-03 0.  1.
    9900012    2    1    2    0    0 -0.84644455967E+00 -0.76345770763E+00  0.30610811185E+00  0.90007729590E+02  0.89999990821E+02 0.  0.
         12    1    1    2    0    0  0.84644455967E+00  0.76345770763E+00 -0.30610811185E+00  0.11802704097E+01  0.00000000000E+00 0. -1.
         11    1    3    3    0    0  0.28354523955E+02  0.15311282629E+02  0.14112076779E+02  0.35179043702E+02  0.51100000000E-03 0. -1.
        -11    1    3    3    0    0 -0.98230748602E+01 -0.34474044465E+01  0.14767028728E+02  0.18067720799E+02  0.51100000000E-03 0.  1.
        -12    1    3    3    0    0 -0.19377893655E+02 -0.12627335891E+02 -0.28572997396E+02  0.36760965090E+02  0.00000000000E+00 0.  1.
</event>
<event>
 7    1  0.4008281E-015  0.9000767E+02  0.7816164E-02  0.1186339E+00
        -11   -1    0    0    0    0  0.00000000000E+00  0.00000000000E+00  0.45593999997E+02  0.45594000000E+02  0.51100000000E-03 0.  1.
         11   -1    0    0    0    0 -0.00000000000E+00 -0.00000000000E+00 -0.45593999997E+02  0.45594000000E+02  0.51100000000E-03 0. -1.
    9900012    2    1    2    0    0  0.51374832289E+00  0.10531365780E+01  0.14193746201E+00  0.90007669439E+02  0.89999929875E+02 0.  0.
         12    1    1    2    0    0 -0.51374832289E+00 -0.10531365780E+01 -0.14193746201E+00  0.11803305615E+01  0.00000000000E+00 0. -1.
         11    1    3    3    0    0  0.20660560454E+02  0.23839337509E+02 -0.15773168913E+02  0.35269896923E+02  0.51100000000E-03 0. -1.
        -11    1    3    3    0    0  0.12658477821E+02 -0.11303297977E+02  0.93174996706E+01  0.19360201607E+02  0.51100000000E-03 0.  1.
        -12    1    3    3    0    0 -0.32805289952E+02 -0.11482902955E+02  0.65976067043E+01  0.35377570908E+02  0.00000000000E+00 0.  1.
</event>
<event>
 7    1  0.4008281E-015  0.9000723E+02  0.7816164E-02  0.1186340E+00
        -11   -1    0    0    0    0  0.00000000000E+00  0.00000000000E+00  0.45593999997E+02  0.45594000000E+02  0.51100000000E-03 0. -1.
         11   -1    0    0    0    0 -0.00000000000E+00 -0.00000000000E+00 -0.45593999997E+02  0.45594000000E+02  0.51100000000E-03 0.  1.
    9900012    2    1    2    0    0 -0.11078778580E+01  0.40605116037E+00 -0.44030345563E-01  0.90007233484E+02  0.89999488165E+02 0.  0.
         12    1    1    2    0    0  0.11078778580E+01 -0.40605116037E+00  0.44030345563E-01  0.11807665157E+01  0.00000000000E+00 0. -1.
         11    1    3    3    0    0 -0.22162285016E+01  0.86764874360E+01  0.26341011855E+01  0.93344304762E+01  0.51100000000E-03 0. -1.
        -11    1    3    3    0    0 -0.30462195421E+02  0.17814389985E+02 -0.14341498385E+02  0.38091684350E+02  0.51100000000E-03 0.  1.
         12    1    3    3    0    0  0.31570546064E+02 -0.26084826261E+02  0.11663366854E+02  0.42581118659E+02  0.00000000000E+00 0. -1.
</event>
<event>
 7    1  0.4008281E-015  0.9000774E+02  0.7816164E-02  0.1186339E+00
        -11   -1    0    0    0    0  0.00000000000E+00  0.00000000000E+00  0.45593999997E+02  0.45594000000E+02  0.51100000000E-03 0.  1.
         11   -1    0    0    0    0 -0.00000000000E+00 -0.00000000000E+00 -0.45593999997E+02  0.45594000000E+02  0.51100000000E-03 0. -1.
    9900012    2    1    2    0    0  0.24763555873E+00  0.14756359723E+00  0.11445113701E+01  0.90007743815E+02  0.90000005234E+02 0.  0.
         12    1    1    2    0    0 -0.24763555873E+00 -0.14756359723E+00 -0.11445113701E+01  0.11802561847E+01  0.00000000000E+00 0. -1.
         11    1    3    3    0    0  0.22559033679E+02 -0.75344348353E+00 -0.31001488503E+02  0.38348011256E+02  0.51100000000E-03 0. -1.
        -11    1    3    3    0    0 -0.23417921107E+01 -0.23708452024E+01 -0.69106169034E+01  0.76721264008E+01  0.51100000000E-03 0.  1.
        -12    1    3    3    0    0 -0.19969606009E+02  0.32718522831E+01  0.39056616777E+02  0.43987606159E+02  0.00000000000E+00 0.  1.
</event>
<event>
 7    1  0.4008281E-015  0.9000831E+02  0.7816164E-02  0.1186338E+00
        -11   -1    0    0    0    0  0.00000000000E+00  0.00000000000E+00  0.45593999997E+02  0.45594000000E+02  0.51100000000E-03 0.  1.
         11   -1    0    0    0    0 -0.00000000000E+00 -0.00000000000E+00 -0.45593999997E+02  0.45594000000E+02  0.51100000000E-03 0. -1.
    9900012    2    1    2    0    0 -0.48513514990E+00  0.17028221118E+00  0.10617480507E+01  0.90008313148E+02  0.90000582080E+02 0.  0.
         12    1    1    2    0    0  0.48513514990E+00 -0.17028221118E+00 -0.10617480507E+01  0.11796868517E+01  0.00000000000E+00 0. -1.
         11    1    3    3    0    0  0.50273592845E+01 -0.14551185795E+01  0.86014793119E+01  0.10068622451E+02  0.51100000000E-03 0. -1.
        -11    1    3    3    0    0  0.32572049277E+02  0.55925782452E+01 -0.21224473812E+02  0.39277138572E+02  0.51100000000E-03 0.  1.
         12    1    3    3    0    0 -0.38084543711E+02 -0.39671774545E+01  0.13684742551E+02  0.40662552125E+02  0.00000000000E+00 0. -1.
</event>
<event>
 7    1  0.4008281E-015  0.9000770E+02  0.7816164E-02  0.1186339E+00
        -11   -1    0    0    0    0  0.00000000000E+00  0.00000000000E+00  0.45593999997E+02  0.45594000000E+02  0.51100000000E-03 0. -1.
         11   -1    0    0    0    0 -0.00000000000E+00 -0.00000000000E+00 -0.45593999997E+02  0.45594000000E+02  0.51100000000E-03 0.  1.
    9900012    2    1    2    0    0  0.54269703963E+00 -0.88633780967E+00 -0.55945748677E+00  0.90007700263E+02  0.89999961106E+02 0.  0.
         12    1    1    2    0    0 -0.54269703963E+00  0.88633780967E+00  0.55945748677E+00  0.11802997370E+01  0.00000000000E+00 0. -1.
         11    1    3    3    0    0  0.88461997428E+01  0.27839365609E+02 -0.28654245168E+02  0.40918837885E+02  0.51100000000E-03 0. -1.
        -11    1    3    3    0    0  0.28015335659E+01  0.27721579958E+01  0.10761855397E+02  0.11460845611E+02  0.51100000000E-03 0.  1.
        -12    1    3    3    0    0 -0.11105036269E+02 -0.31497861415E+02  0.17332932285E+02  0.37628016767E+02  0.00000000000E+00 0.  1.
</event>
<event>
 7    1  0.4008281E-015  0.9000681E+02  0.7816164E-02  0.1186341E+00
        -11   -1    0    0    0    0  0.00000000000E+00  0.00000000000E+00  0.45593999997E+02  0.45594000000E+02  0.51100000000E-03 0.  1.
         11   -1    0    0    0    0 -0.00000000000E+00 -0.00000000000E+00 -0.45593999997E+02  0.45594000000E+02  0.51100000000E-03 0. -1.
    9900012    2    1    2    0    0  0.95094560527E+00  0.65662330319E+00  0.24444473737E+00  0.90006812066E+02  0.89999061180E+02 0.  0.
         12    1    1    2    0    0 -0.95094560527E+00 -0.65662330319E+00 -0.24444473737E+00  0.11811879343E+01  0.00000000000E+00 0. -1.
         11    1    3    3    0    0 -0.69307268043E+00 -0.11756449745E+02  0.62658337845E+01  0.13339982519E+02  0.51100000000E-03 0. -1.
        -11    1    3    3    0    0 -0.20775745108E+02 -0.17863567976E+02  0.17257128096E+02  0.32381277245E+02  0.51100000000E-03 0.  1.
         12    1    3    3    0    0  0.22419763393E+02  0.30276641024E+02 -0.23278517143E+02  0.44285552302E+02  0.00000000000E+00 0. -1.
</event>
<event>
 7    1  0.4008281E-015  0.9000779E+02  0.7816164E-02  0.1186339E+00
        -11   -1    0    0    0    0  0.00000000000E+00  0.00000000000E+00  0.45593999997E+02  0.45594000000E+02  0.51100000000E-03 0. -1.
         11   -1    0    0    0    0 -0.00000000000E+00 -0.00000000000E+00 -0.45593999997E+02  0.45594000000E+02  0.51100000000E-03 0.  1.
    9900012    2    1    2    0    0 -0.70869441435E+00  0.94369753976E+00  0.96484176552E-02  0.90007785650E+02  0.90000047621E+02 0.  0.
         12    1    1    2    0    0  0.70869441435E+00 -0.94369753976E+00 -0.96484176552E-02  0.11802143498E+01  0.00000000000E+00 0. -1.
         11    1    3    3    0    0 -0.19793770130E+02 -0.20630506206E+02  0.11485916318E+01  0.28613465104E+02  0.51100000000E-03 0. -1.
        -11    1    3    3    0    0  0.12802884763E+02  0.17427946515E+02 -0.26923869306E+02  0.34533200209E+02  0.51100000000E-03 0.  1.
         12    1    3    3    0    0  0.62821909534E+01  0.41462572308E+01  0.25784926092E+02  0.26861120337E+02  0.00000000000E+00 0. -1.
</event>
<event>
 7    1  0.4008281E-015  0.9000853E+02  0.7816164E-02  0.1186337E+00
        -11   -1    0    0    0    0  0.00000000000E+00  0.00000000000E+00  0.45593999997E+02  0.45594000000E+02  0.51100000000E-03 0.  1.
         11   -1    0    0    0    0 -0.00000000000E+00 -0.00000000000E+00 -0.45593999997E+02  0.45594000000E+02  0.51100000000E-03 0. -1.
    9900012    2    1    2    0    0 -0.31726364247E+00  0.45547274380E+00 -0.10406869274E+01  0.90008533629E+02  0.90000805469E+02 0.  0.
         12    1    1    2    0    0  0.31726364247E+00 -0.45547274380E+00  0.10406869274E+01  0.11794663709E+01  0.00000000000E+00 0. -1.
         11    1    3    3    0    0  0.23781842826E+01 -0.21565481451E+01 -0.90988475811E+01  0.96486003103E+01  0.51100000000E-03 0. -1.
        -11    1    3    3    0    0  0.63819957593E+01 -0.83036514907E+01  0.42149264647E+02  0.43430876212E+02  0.51100000000E-03 0.  1.
         12    1    3    3    0    0 -0.90774436844E+01  0.10915672380E+02 -0.34091103993E+02  0.36929057107E+02  0.00000000000E+00 0. -1.
</event>
<event>
 7    1  0.4008281E-015  0.9000810E+02  0.7816164E-02  0.1186338E+00
        -11   -1    0    0    0    0  0.00000000000E+00  0.00000000000E+00  0.45593999997E+02  0.45594000000E+02  0.51100000000E-03 0.  1.
         11   -1    0    0    0    0 -0.00000000000E+00 -0.00000000000E+00 -0.45593999997E+02  0.45594000000E+02  0.51100000000E-03 0. -1.
    9900012    2    1    2    0    0 -0.77481796392E+00  0.45382257937E+00  0.76542474452E+00  0.90008096254E+02  0.90000362324E+02 0.  0.
         12    1    1    2    0    0  0.77481796392E+00 -0.45382257937E+00 -0.76542474452E+00  0.11799037462E+01  0.00000000000E+00 0. -1.
         11    1    3    3    0    0 -0.93490585439E+01 -0.20557018599E+02 -0.25994112118E+02  0.34433846349E+02  0.51100000000E-03 0. -1.
        -11    1    3    3    0    0 -0.77668512139E+01  0.42675826859E+00 -0.85488966535E+01  0.11558102554E+02  0.51100000000E-03 0.  1.
        -12    1    3    3    0    0  0.16341091794E+02  0.20584082910E+02  0.35308433516E+02  0.44016147351E+02  0.00000000000E+00 0.  1.
</event>
<event>
 7    1  0.4008281E-015  0.9000775E+02  0.7816164E-02  0.1186339E+00
        -11   -1    0    0    0    0  0.00000000000E+00  0.00000000000E+00  0.45593999997E+02  0.45594000000E+02  0.51100000000E-03 0.  1.
         11   -1    0    0    0    0 -0.00000000000E+00 -0.00000000000E+00 -0.45593999997E+02  0.45594000000E+02  0.51100000000E-03 0. -1.
    9900012    2    1    2    0    0  0.11398578585E-01  0.44821444464E+00  0.10917762232E+01  0.90007745181E+02  0.90000006618E+02 0.  0.
         12    1    1    2    0    0 -0.11398578585E-01 -0.44821444464E+00 -0.10917762232E+01  0.11802548188E+01  0.00000000000E+00 0. -1.
         11    1    3    3    0    0 -0.34173699969E+01  0.74329361217E+00 -0.34449016991E+02  0.34626083737E+02  0.51100000000E-03 0. -1.
        -11    1    3    3    0    0 -0.33569607517E+00 -0.23315996336E+01 -0.96781045855E+01  0.99606604869E+01  0.51100000000E-03 0.  1.
        -12    1    3    3    0    0  0.37644646507E+01  0.20365204661E+01  0.45218897800E+02  0.45421000957E+02  0.00000000000E+00 0.  1.
</event>
<event>
 7    1  0.4008281E-015  0.9000779E+02  0.7816164E-02  0.1186339E+00
        -11   -1    0    0    0    0  0.00000000000E+00  0.00000000000E+00  0.45593999997E+02  0.45594000000E+02  0.51100000000E-03 0.  1.
         11   -1    0    0    0    0 -0.00000000000E+00 -0.00000000000E+00 -0.45593999997E+02  0.45594000000E+02  0.51100000000E-03 0. -1.
    9900012    2    1    2    0    0 -0.29543780746E+00 -0.80138088243E+00  0.81449626704E+00  0.90007788584E+02  0.90000050594E+02 0.  0.
         12    1    1    2    0    0  0.29543780746E+00  0.80138088243E+00 -0.81449626704E+00  0.11802114157E+01  0.00000000000E+00 0. -1.
         11    1    3    3    0    0  0.50478420153E+01  0.10476636579E+02 -0.12447568989E+01  0.11695727554E+02  0.51100000000E-03 0. -1.
        -11    1    3    3    0    0  0.21639108190E+02  0.10629302622E+02  0.26497835081E+02  0.35824130719E+02  0.51100000000E-03 0.  1.
         12    1    3    3    0    0 -0.26982388013E+02 -0.21907320084E+02 -0.24438581915E+02  0.42487930311E+02  0.00000000000E+00 0. -1.
</event>
<event>
 7    1  0.4008281E-015  0.9000776E+02  0.7816164E-02  0.1186339E+00
        -11   -1    0    0    0    0  0.00000000000E+00  0.00000000000E+00  0.45593999997E+02  0.45594000000E+02  0.51100000000E-03 0. -1.
         11   -1    0    0    0    0 -0.00000000000E+00 -0.00000000000E+00 -0.45593999997E+02  0.45594000000E+02  0.51100000000E-03 0.  1.
    9900012    2    1    2    0    0  0.10604053888E+00  0.21192091634E+00 -0.11562090546E+01  0.90007756615E+02  0.90000018202E+02 0.  0.
         12    1    1    2    0    0 -0.10604053888E+00 -0.21192091634E+00  0.11562090546E+01  0.11802433853E+01  0.00000000000E+00 0. -1.
         11    1    3    3    0    0  0.34795740169E+02  0.16204645610E+02 -0.11440770865E+02  0.40052781570E+02  0.51100000000E-03 0. -1.
        -11    1    3    3    0    0 -0.28784965107E+01  0.33882414117E+01 -0.74677297616E+01  0.86909671545E+01  0.51100000000E-03 0.  1.
        -12    1    3    3    0    0 -0.31811203120E+02 -0.19380966106E+02  0.17752291572E+02  0.41264007890E+02  0.00000000000E+00 0.  1.
</event>
<event>
 7    1  0.4008281E-015  0.9000773E+02  0.7816164E-02  0.1186339E+00
        -11   -1    0    0    0    0  0.00000000000E+00  0.00000000000E+00  0.45593999997E+02  0.45594000000E+02  0.51100000000E-03 0. -1.
         11   -1    0    0    0    0 -0.00000000000E+00 -0.00000000000E+00 -0.45593999997E+02  0.45594000000E+02  0.51100000000E-03 0.  1.
    9900012    2    1    2    0    0 -0.99028360889E+00 -0.62525800760E+00  0.14638546126E+00  0.90007729732E+02  0.89999990965E+02 0.  0.
         12    1    1    2    0    0  0.99028360889E+00  0.62525800760E+00 -0.14638546126E+00  0.11802702679E+01  0.00000000000E+00 0. -1.
         11    1    3    3    0    0  0.74888852191E+01  0.30158977383E+01 -0.34801032343E+01  0.87914822286E+01  0.51100000000E-03 0. -1.
        -11    1    3    3    0    0  0.21547368654E+02  0.26564737215E+02  0.14668120486E+02  0.37217309388E+02  0.51100000000E-03 0.  1.
         12    1    3    3    0    0 -0.30026537482E+02 -0.30205892961E+02 -0.11041631791E+02  0.43998938116E+02  0.00000000000E+00 0. -1.
</event>
<event>
 7    1  0.4008281E-015  0.9000777E+02  0.7816164E-02  0.1186339E+00
        -11   -1    0    0    0    0  0.00000000000E+00  0.00000000000E+00  0.45593999997E+02  0.45594000000E+02  0.51100000000E-03 0.  1.
         11   -1    0    0    0    0 -0.00000000000E+00 -0.00000000000E+00 -0.45593999997E+02  0.45594000000E+02  0.51100000000E-03 0. -1.
    9900012    2    1    2    0    0  0.23246633979E-01  0.91275633300E+00  0.74785585453E+00  0.90007765740E+02  0.90000027448E+02 0.  0.
         12    1    1    2    0    0 -0.23246633979E-01 -0.91275633300E+00 -0.74785585453E+00  0.11802342600E+01  0.00000000000E+00 0. -1.
         11    1    3    3    0    0  0.54008141633E+01  0.66809140912E+01  0.38102477231E+01  0.93979463019E+01  0.51100000000E-03 0. -1.
        -11    1    3    3    0    0  0.17002335915E+02  0.16228786418E+02  0.27930574417E+02  0.36504382240E+02  0.51100000000E-03 0.  1.
         12    1    3    3    0    0 -0.22379903444E+02 -0.21996944176E+02 -0.30992966286E+02  0.44105437198E+02  0.00000000000E+00 0. -1.
</event>
<event>
 7    1  0.4008281E-015  0.9000761E+02  0.7816164E-02  0.1186339E+00
        -11   -1    0    0    0    0  0.00000000000E+00  0.00000000000E+00  0.45593999997E+02  0.45594000000E+02  0.51100000000E-03 0.  1.
         11   -1    0    0    0    0 -0.00000000000E+00 -0.00000000000E+00 -0.45593999997E+02  0.45594000000E+02  0.51100000000E-03 0. -1.
    9900012    2    1    2    0    0 -0.33495174891E+00  0.11311104708E+01 -0.41324514693E-01  0.90007613925E+02  0.89999873628E+02 0.  0.
         12    1    1    2    0    0  0.33495174891E+00 -0.11311104708E+01  0.41324514693E-01  0.11803860753E+01  0.00000000000E+00 0. -1.
         11    1    3    3    0    0  0.36084532949E+02 -0.20167448506E+01 -0.18988860662E+01  0.36190696961E+02  0.51100000000E-03 0. -1.
        -11    1    3    3    0    0  0.54667907398E+01  0.42957852283E+00 -0.89292716056E+01  0.10478655943E+02  0.51100000000E-03 0.  1.
        -12    1    3    3    0    0 -0.41886275438E+02  0.27182767985E+01  0.10786833157E+02  0.43338261021E+02  0.00000000000E+00 0.  1.
</event>
<event>
 7    1  0.4008281E-015  0.9000787E+02  0.7816164E-02  0.1186339E+00
        -11   -1    0    0    0    0  0.00000000000E+00  0.00000000000E+00  0.45593999997E+02  0.45594000000E+02  0.51100000000E-03 0.  1.
         11   -1    0    0    0    0 -0.00000000000E+00 -0.00000000000E+00 -0.45593999997E+02  0.45594000000E+02  0.51100000000E-03 0. -1.
    9900012    2    1    2    0    0 -0.70073019047E+00  0.73436807857E+00  0.60199080282E+00  0.90007867719E+02  0.90000130772E+02 0.  0.
         12    1    1    2    0    0  0.70073019047E+00 -0.73436807857E+00 -0.60199080282E+00  0.11801322813E+01  0.00000000000E+00 0. -1.
         11    1    3    3    0    0  0.13226519392E+01 -0.74779571226E+01 -0.14971084523E+02  0.16786977779E+02  0.51100000000E-03 0. -1.
        -11    1    3    3    0    0  0.26144297164E+02  0.26915628579E+02  0.53838816745E+01  0.37907275267E+02  0.51100000000E-03 0.  1.
         12    1    3    3    0    0 -0.28167679293E+02 -0.18703303378E+02  0.10189193652E+02  0.35313614673E+02  0.00000000000E+00 0. -1.
</event>
<event>
 7    1  0.4171617E-015  0.9000764E+02  0.7816164E-02  0.1186339E+00
        -11   -1    0    0    0    0  0.00000000000E+00  0.00000000000E+00  0.45593999997E+02  0.45594000000E+02  0.51100000000E-03 0.  1.
         11   -1    0    0    0    0 -0.00000000000E+00 -0.00000000000E+00 -0.45593999997E+02  0.45594000000E+02  0.51100000000E-03 0. -1.
    9900012    2    1    2    0    0 -0.29661605715E+00  0.11386219073E+01 -0.93873978376E-01  0.90007638506E+02  0.89999898534E+02 0.  0.
         12    1    1    2    0    0  0.29661605715E+00 -0.11386219073E+01  0.93873978376E-01  0.11803614942E+01  0.00000000000E+00 0. -1.
         11    1    3    3    0    0 -0.32116345222E+01  0.67522389188E+01  0.68826612722E+01  0.10162595789E+02  0.51100000000E-03 0. -1.
        -11    1    3    3    0    0 -0.21063534579E+02 -0.32793723631E+02  0.93667399124E+01  0.40085366599E+02  0.51100000000E-03 0.  1.
         12    1    3    3    0    0  0.23978553044E+02  0.27180106619E+02 -0.16343275163E+02  0.39759676118E+02  0.00000000000E+00 0. -1.
</event>
<event>
 7    1  0.4008281E-015  0.9000669E+02  0.7816164E-02  0.1186341E+00
        -11   -1    0    0    0    0  0.00000000000E+00  0.00000000000E+00  0.45593999997E+02  0.45594000000E+02  0.51100000000E-03 0.  1.
         11   -1    0    0    0    0 -0.00000000000E+00 -0.00000000000E+00 -0.45593999997E+02  0.45594000000E+02  0.51100000000E-03 0. -1.
    9900012    2    1    2    0    0  0.12486825883E+00 -0.25182073384E+00  0.11473879659E+01  0.90006685094E+02  0.89998932530E+02 0.  0.
         12    1    1    2    0    0 -0.12486825883E+00  0.25182073384E+00 -0.11473879659E+01  0.11813149065E+01  0.00000000000E+00 0. -1.
         11    1    3    3    0    0 -0.98595169717E+01 -0.57176810300E+01 -0.20482262909E+01  0.11580033786E+02  0.51100000000E-03 0. -1.
        -11    1    3    3    0    0 -0.19558558416E+02  0.30661924362E+02  0.12575437836E+02  0.38481585855E+02  0.51100000000E-03 0.  1.
         12    1    3    3    0    0  0.29542943647E+02 -0.25196064065E+02 -0.93798235787E+01  0.39945065453E+02  0.00000000000E+00 0. -1.
</event>
<event>
 7    1  0.4008281E-015  0.9000758E+02  0.7816164E-02  0.1186339E+00
        -11   -1    0    0    0    0  0.00000000000E+00  0.00000000000E+00  0.45593999997E+02  0.45594000000E+02  0.51100000000E-03 0. -1.
         11   -1    0    0    0    0 -0.00000000000E+00 -0.00000000000E+00 -0.45593999997E+02  0.45594000000E+02  0.51100000000E-03 0.  1.
    9900012    2    1    2    0    0  0.11584128766E+01  0.62893295848E-01 -0.21797155748E+00  0.90007581617E+02  0.89999840894E+02 0.  0.
         12    1    1    2    0    0 -0.11584128766E+01 -0.62893295848E-01  0.21797155748E+00  0.11804183831E+01  0.00000000000E+00 0. -1.
         11    1    3    3    0    0  0.25561541339E+02 -0.14506535700E+02  0.23168907861E+02  0.37424995196E+02  0.51100000000E-03 0. -1.
        -11    1    3    3    0    0  0.54260609410E+01  0.71585689838E+01  0.53918187878E+01  0.10476590921E+02  0.51100000000E-03 0.  1.
        -12    1    3    3    0    0 -0.29829189404E+02  0.74108600123E+01 -0.28778698206E+02  0.42105995500E+02  0.00000000000E+00 0.  1.
</event>
<event>
 7    1  0.4008281E-015  0.9000805E+02  0.7816164E-02  0.1186338E+00
        -11   -1    0    0    0    0  0.00000000000E+00  0.00000000000E+00  0.45593999997E+02  0.45594000000E+02  0.51100000000E-03 0.  1.
         11   -1    0    0    0    0 -0.00000000000E+00 -0.00000000000E+00 -0.45593999997E+02  0.45594000000E+02  0.51100000000E-03 0. -1.
    9900012    2    1    2    0    0  0.54143352636E+00 -0.61517492488E+00  0.84894195844E+00  0.90008045382E+02  0.90000310781E+02 0.  0.
         12    1    1    2    0    0 -0.54143352636E+00  0.61517492488E+00 -0.84894195844E+00  0.11799546180E+01  0.00000000000E+00 0. -1.
         11    1    3    3    0    0 -0.84237081011E+01  0.43211967204E+01  0.52473863893E+01  0.10824355105E+02  0.51100000000E-03 0. -1.
        -11    1    3    3    0    0  0.14112355977E+02 -0.36939905215E+02  0.13954566134E+02  0.41933818152E+02  0.51100000000E-03 0.  1.
         12    1    3    3    0    0 -0.51472143492E+01  0.32003533570E+02 -0.18353010565E+02  0.37249872125E+02  0.00000000000E+00 0. -1.
</event>
<event>
 7    1  0.4008281E-015  0.9000851E+02  0.7816164E-02  0.1186338E+00
        -11   -1    0    0    0    0  0.00000000000E+00  0.00000000000E+00  0.45593999997E+02  0.45594000000E+02  0.51100000000E-03 0.  1.
         11   -1    0    0    0    0 -0.00000000000E+00 -0.00000000000E+00 -0.45593999997E+02  0.45594000000E+02  0.51100000000E-03 0. -1.
    9900012    2    1    2    0    0  0.86268138347E-01 -0.42826056289E+00  0.10956015899E+01  0.90008511914E+02  0.90000783468E+02 0.  0.
         12    1    1    2    0    0 -0.86268138347E-01  0.42826056289E+00 -0.10956015899E+01  0.11794880861E+01  0.00000000000E+00 0. -1.
         11    1    3    3    0    0 -0.45287755364E+01 -0.71276618354E+01 -0.31207859666E+01  0.90029259916E+01  0.51100000000E-03 0. -1.
        -11    1    3    3    0    0  0.20166337820E+02 -0.25170012064E+02  0.24181079098E+02  0.40310485918E+02  0.51100000000E-03 0.  1.
         12    1    3    3    0    0 -0.15551294145E+02  0.31869413336E+02 -0.19964691542E+02  0.40695100004E+02  0.00000000000E+00 0. -1.
</event>
<event>
 7    1  0.4008281E-015  0.9000771E+02  0.7816164E-02  0.1186339E+00
        -11   -1    0    0    0    0  0.00000000000E+00  0.00000000000E+00  0.45593999997E+02  0.45594000000E+02  0.51100000000E-03 0.  1.
         11   -1    0    0    0    0 -0.00000000000E+00 -0.00000000000E+00 -0.45593999997E+02  0.45594000000E+02  0.51100000000E-03 0. -1.
    9900012    2    1    2    0    0 -0.53882696440E-01  0.10529365804E+01  0.53058073893E+00  0.90007705669E+02  0.89999966584E+02 0.  0.
         12    1    1    2    0    0  0.53882696440E-01 -0.10529365804E+01 -0.53058073893E+00  0.11802943310E+01  0.00000000000E+00 0. -1.
         11    1    3    3    0    0 -0.37247824319E+02 -0.15853607196E+02  0.11950713851E+01  0.40498956449E+02  0.51100000000E-03 0. -1.
        -11    1    3    3    0    0  0.65890796941E+01 -0.50120880373E+01  0.72927820520E+01  0.11032754326E+02  0.51100000000E-03 0.  1.
        -12    1    3    3    0    0  0.30604861928E+02  0.21918631814E+02 -0.79572726981E+01  0.38475994893E+02  0.00000000000E+00 0.  1.
</event>
<event>
 7    1  0.4008281E-015  0.9000773E+02  0.7816164E-02  0.1186339E+00
        -11   -1    0    0    0    0  0.00000000000E+00  0.00000000000E+00  0.45593999997E+02  0.45594000000E+02  0.51100000000E-03 0. -1.
         11   -1    0    0    0    0 -0.00000000000E+00 -0.00000000000E+00 -0.45593999997E+02  0.45594000000E+02  0.51100000000E-03 0.  1.
    9900012    2    1    2    0    0  0.57956735304E+00 -0.15595647274E+00 -0.10162727731E+01  0.90007732620E+02  0.89999993891E+02 0.  0.
         12    1    1    2    0    0 -0.57956735304E+00  0.15595647274E+00  0.10162727731E+01  0.11802673796E+01  0.00000000000E+00 0. -1.
         11    1    3    3    0    0  0.46141907719E+01 -0.40163910095E+01  0.14719683082E+02  0.15940239130E+02  0.51100000000E-03 0. -1.
        -11    1    3    3    0    0 -0.36475858730E+02 -0.52983340458E+01 -0.16421357392E+02  0.40351227895E+02  0.51100000000E-03 0.  1.
         12    1    3    3    0    0  0.32441235311E+02  0.91587685825E+01  0.68540153699E+00  0.33716265596E+02  0.00000000000E+00 0. -1.
</event>
<event>
 7    1  0.4008281E-015  0.9000771E+02  0.7816164E-02  0.1186339E+00
        -11   -1    0    0    0    0  0.00000000000E+00  0.00000000000E+00  0.45593999997E+02  0.45594000000E+02  0.51100000000E-03 0. -1.
         11   -1    0    0    0    0 -0.00000000000E+00 -0.00000000000E+00 -0.45593999997E+02  0.45594000000E+02  0.51100000000E-03 0.  1.
    9900012    2    1    2    0    0  0.16598098133E+00  0.11136525565E+01 -0.35400920962E+00  0.90007705874E+02  0.89999966792E+02 0.  0.
         12    1    1    2    0    0 -0.16598098133E+00 -0.11136525565E+01  0.35400920962E+00  0.11802941257E+01  0.00000000000E+00 0. -1.
         11    1    3    3    0    0  0.41731442073E+01 -0.15066409352E+02 -0.49496117766E+00  0.15641509204E+02  0.51100000000E-03 0. -1.
        -11    1    3    3    0    0 -0.17239075048E+02 -0.11974263780E+02 -0.26222829366E+02  0.33588770174E+02  0.51100000000E-03 0.  1.
         12    1    3    3    0    0  0.13231911822E+02  0.28154325688E+02  0.26363781334E+02  0.40777426496E+02  0.00000000000E+00 0. -1.
</event>
<event>
 7    1  0.4008281E-015  0.9000773E+02  0.7816164E-02  0.1186339E+00
        -11   -1    0    0    0    0  0.00000000000E+00  0.00000000000E+00  0.45593999997E+02  0.45594000000E+02  0.51100000000E-03 0. -1.
         11   -1    0    0    0    0 -0.00000000000E+00 -0.00000000000E+00 -0.45593999997E+02  0.45594000000E+02  0.51100000000E-03 0.  1.
    9900012    2    1    2    0    0 -0.25927188117E+00  0.91490861710E+00 -0.69911644387E+00  0.90007727367E+02  0.89999988568E+02 0.  0.
         12    1    1    2    0    0  0.25927188117E+00 -0.91490861710E+00  0.69911644387E+00  0.11802726330E+01  0.00000000000E+00 0. -1.
         11    1    3    3    0    0  0.78244072301E+01  0.57676090430E+01  0.28896729911E+01  0.10140851682E+02  0.51100000000E-03 0. -1.
        -11    1    3    3    0    0  0.92652476073E+01  0.66010322461E+01 -0.37998481247E+02  0.39664883931E+02  0.51100000000E-03 0.  1.
         12    1    3    3    0    0 -0.17348926719E+02 -0.11453732672E+02  0.34409691812E+02  0.40201991754E+02  0.00000000000E+00 0. -1.
</event>
<event>
 7    1  0.4008281E-015  0.9000779E+02  0.7816164E-02  0.1186339E+00
        -11   -1    0    0    0    0  0.00000000000E+00  0.00000000000E+00  0.45593999997E+02  0.45594000000E+02  0.51100000000E-03 0.  1.
         11   -1    0    0    0    0 -0.00000000000E+00 -0.00000000000E+00 -0.45593999997E+02  0.45594000000E+02  0.51100000000E-03 0. -1.
    9900012    2    1    2    0    0 -0.76699236763E+00  0.80000305724E+00  0.40571727134E+00  0.90007792947E+02  0.90000055014E+02 0.  0.
         12    1    1    2    0    0  0.76699236763E+00 -0.80000305724E+00 -0.40571727134E+00  0.11802070530E+01  0.00000000000E+00 0. -1.
         11    1    3    3    0    0  0.12097929424E+02  0.11809960936E+00  0.97893274734E+00  0.12138045701E+02  0.51100000000E-03 0. -1.
        -11    1    3    3    0    0  0.30539520690E+02 -0.23983860332E+00  0.11777815377E+02  0.32732808951E+02  0.51100000000E-03 0.  1.
         12    1    3    3    0    0 -0.43404442481E+02  0.92174205119E+00 -0.12351030853E+02  0.45136938295E+02  0.00000000000E+00 0. -1.
</event>
<event>
 7    1  0.4008281E-015  0.9000753E+02  0.7816164E-02  0.1186339E+00
        -11   -1    0    0    0    0  0.00000000000E+00  0.00000000000E+00  0.45593999997E+02  0.45594000000E+02  0.51100000000E-03 0.  1.
         11   -1    0    0    0    0 -0.00000000000E+00 -0.00000000000E+00 -0.45593999997E+02  0.45594000000E+02  0.51100000000E-03 0. -1.
    9900012    2    1    2    0    0  0.44777401572E+00 -0.10861334679E+01  0.11538641316E+00  0.90007533353E+02  0.89999791993E+02 0.  0.
         12    1    1    2    0    0 -0.44777401572E+00  0.10861334679E+01 -0.11538641316E+00  0.11804666465E+01  0.00000000000E+00 0. -1.
         11    1    3    3    0    0 -0.94865524094E+01 -0.18383856414E+02 -0.33916465657E+02  0.39727666634E+02  0.51100000000E-03 0. -1.
        -11    1    3    3    0    0  0.92463618671E+01 -0.35307495809E+01 -0.54043153576E+00  0.99122886805E+01  0.51100000000E-03 0.  1.
        -12    1    3    3    0    0  0.68796455804E+00  0.20828472527E+02  0.34572283606E+02  0.40367578039E+02  0.00000000000E+00 0.  1.
</event>
<event>
 7    1  0.4008281E-015  0.9000771E+02  0.7816164E-02  0.1186339E+00
        -11   -1    0    0    0    0  0.00000000000E+00  0.00000000000E+00  0.45593999997E+02  0.45594000000E+02  0.51100000000E-03 0.  1.
         11   -1    0    0    0    0 -0.00000000000E+00 -0.00000000000E+00 -0.45593999997E+02  0.45594000000E+02  0.51100000000E-03 0. -1.
    9900012    2    1    2    0    0  0.10349359605E+01 -0.20597050450E+00  0.52873330777E+00  0.90007713932E+02  0.89999974956E+02 0.  0.
         12    1    1    2    0    0 -0.10349359605E+01  0.20597050450E+00 -0.52873330777E+00  0.11802860678E+01  0.00000000000E+00 0. -1.
         11    1    3    3    0    0 -0.51521149255E+01  0.70329750658E+01 -0.65472838504E+01  0.10902933209E+02  0.51100000000E-03 0. -1.
        -11    1    3    3    0    0  0.35265817176E+02  0.16087880504E+02 -0.67484109027E+01  0.39345124351E+02  0.51100000000E-03 0.  1.
         12    1    3    3    0    0 -0.29078766290E+02 -0.23326826074E+02  0.13824428061E+02  0.39759656372E+02  0.00000000000E+00 0. -1.
</event>
<event>
 7    1  0.4008281E-015  0.9000774E+02  0.7816164E-02  0.1186339E+00
        -11   -1    0    0    0    0  0.00000000000E+00  0.00000000000E+00  0.45593999997E+02  0.45594000000E+02  0.51100000000E-03 0. -1.
         11   -1    0    0    0    0 -0.00000000000E+00 -0.00000000000E+00 -0.45593999997E+02  0.45594000000E+02  0.51100000000E-03 0.  1.
    9900012    2    1    2    0    0  0.11103898262E+01  0.38061760538E+00  0.12318492505E+00  0.90007741616E+02  0.90000003005E+02 0.  0.
         12    1    1    2    0    0 -0.11103898262E+01 -0.38061760538E+00 -0.12318492505E+00  0.11802583842E+01  0.00000000000E+00 0. -1.
         11    1    3    3    0    0  0.28074156766E+02  0.24517426830E+02  0.80383652737E+01  0.38129749711E+02  0.51100000000E-03 0. -1.
        -11    1    3    3    0    0  0.17308132694E+01  0.67603368611E+01  0.40218958484E+01  0.80544096945E+01  0.51100000000E-03 0.  1.
        -12    1    3    3    0    0 -0.28694580209E+02 -0.30897146086E+02 -0.11937076197E+02  0.43823582210E+02  0.00000000000E+00 0.  1.
</event>
<event>
 7    1  0.4008281E-015  0.9000731E+02  0.7816164E-02  0.1186340E+00
        -11   -1    0    0    0    0  0.00000000000E+00  0.00000000000E+00  0.45593999997E+02  0.45594000000E+02  0.51100000000E-03 0.  1.
         11   -1    0    0    0    0 -0.00000000000E+00 -0.00000000000E+00 -0.45593999997E+02  0.45594000000E+02  0.51100000000E-03 0. -1.
    9900012    2    1    2    0    0  0.62748714327E+00 -0.46879276933E+00  0.88346738012E+00  0.90007313171E+02  0.89999568904E+02 0.  0.
         12    1    1    2    0    0 -0.62748714327E+00  0.46879276933E+00 -0.88346738012E+00  0.11806868286E+01  0.00000000000E+00 0. -1.
         11    1    3    3    0    0  0.18171704895E+02 -0.18689461794E+01 -0.32504046578E+02  0.37285612008E+02  0.51100000000E-03 0. -1.
        -11    1    3    3    0    0 -0.74855319934E+01 -0.27174738035E+01 -0.71806155180E+01  0.10722830437E+02  0.51100000000E-03 0.  1.
        -12    1    3    3    0    0 -0.10058685759E+02  0.41176272136E+01  0.40568129476E+02  0.41998870726E+02  0.00000000000E+00 0.  1.
</event>
<event>
 7    1  0.4008281E-015  0.9000779E+02  0.7816164E-02  0.1186339E+00
        -11   -1    0    0    0    0  0.00000000000E+00  0.00000000000E+00  0.45593999997E+02  0.45594000000E+02  0.51100000000E-03 0. -1.
         11   -1    0    0    0    0 -0.00000000000E+00 -0.00000000000E+00 -0.45593999997E+02  0.45594000000E+02  0.51100000000E-03 0.  1.
    9900012    2    1    2    0    0 -0.82808987856E+00  0.24145406377E-01 -0.84057734378E+00  0.90007794036E+02  0.90000056117E+02 0.  0.
         12    1    1    2    0    0  0.82808987856E+00 -0.24145406378E-01  0.84057734378E+00  0.11802059644E+01  0.00000000000E+00 0. -1.
         11    1    3    3    0    0 -0.12274644792E+02 -0.44462878835E+01 -0.17163071886E+01  0.13167463361E+02  0.51100000000E-03 0. -1.
        -11    1    3    3    0    0  0.25787266180E+02  0.22406419404E+02 -0.24933890523E+02  0.42293375657E+02  0.51100000000E-03 0.  1.
         12    1    3    3    0    0 -0.14340711267E+02 -0.17935986114E+02  0.25809620368E+02  0.34546955018E+02  0.00000000000E+00 0. -1.
</event>
<event>
 7    1  0.4008281E-015  0.9000746E+02  0.7816164E-02  0.1186340E+00
        -11   -1    0    0    0    0  0.00000000000E+00  0.00000000000E+00  0.45593999997E+02  0.45594000000E+02  0.51100000000E-03 0. -1.
         11   -1    0    0    0    0 -0.00000000000E+00 -0.00000000000E+00 -0.45593999997E+02  0.45594000000E+02  0.51100000000E-03 0.  1.
    9900012    2    1    2    0    0  0.19849087071E+00 -0.11547712933E+01 -0.14412303650E+00  0.90007463336E+02  0.89999721051E+02 0.  0.
         12    1    1    2    0    0 -0.19849087071E+00  0.11547712933E+01  0.14412303650E+00  0.11805366641E+01  0.00000000000E+00 0. -1.
         11    1    3    3    0    0  0.27502769484E+01 -0.90171479486E+01  0.48323104458E+01  0.10593592635E+02  0.51100000000E-03 0. -1.
        -11    1    3    3    0    0  0.15039047410E+02 -0.26990522523E+02 -0.20844924617E+02  0.37271599585E+02  0.51100000000E-03 0.  1.
         12    1    3    3    0    0 -0.17590833487E+02  0.34852899178E+02  0.15868491135E+02  0.42142271116E+02  0.00000000000E+00 0. -1.
</event>
<event>
 7    1  0.4008281E-015  0.9000785E+02  0.7816164E-02  0.1186339E+00
        -11   -1    0    0    0    0  0.00000000000E+00  0.00000000000E+00  0.45593999997E+02  0.45594000000E+02  0.51100000000E-03 0.  1.
         11   -1    0    0    0    0 -0.00000000000E+00 -0.00000000000E+00 -0.45593999997E+02  0.45594000000E+02  0.51100000000E-03 0. -1.
    9900012    2    1    2    0    0 -0.11139857031E+01 -0.17221673600E+00  0.34948298666E+00  0.90007846998E+02  0.90000109778E+02 0.  0.
         12    1    1    2    0    0  0.11139857031E+01  0.17221673600E+00 -0.34948298666E+00  0.11801530023E+01  0.00000000000E+00 0. -1.
         11    1    3    3    0    0 -0.93551933179E+01 -0.22700806154E+02 -0.26196915796E+02  0.35904381899E+02  0.51100000000E-03 0. -1.
        -11    1    3    3    0    0  0.35432565099E+01 -0.76160086488E+01 -0.53553047338E+01  0.99618042284E+01  0.51100000000E-03 0.  1.
        -12    1    3    3    0    0  0.46979511049E+01  0.30144598067E+02  0.31901703516E+02  0.44141660871E+02  0.00000000000E+00 0.  1.
</event>
<event>
 7    1  0.4008281E-015  0.9000774E+02  0.7816164E-02  0.1186339E+00
        -11   -1    0    0    0    0  0.00000000000E+00  0.00000000000E+00  0.45593999997E+02  0.45594000000E+02  0.51100000000E-03 0.  1.
         11   -1    0    0    0    0 -0.00000000000E+00 -0.00000000000E+00 -0.45593999997E+02  0.45594000000E+02  0.51100000000E-03 0. -1.
    9900012    2    1    2    0    0  0.17519417026E+00 -0.17741212898E+00  0.11536186107E+01  0.90007744113E+02  0.90000005535E+02 0.  0.
         12    1    1    2    0    0 -0.17519417026E+00  0.17741212898E+00 -0.11536186107E+01  0.11802558875E+01  0.00000000000E+00 0. -1.
         11    1    3    3    0    0 -0.29300912471E+02 -0.74758154499E+01 -0.23542257167E+02  0.38323219607E+02  0.51100000000E-03 0. -1.
        -11    1    3    3    0    0 -0.75766657910E+01  0.43409546719E+00  0.27216645829E+01  0.80623670065E+01  0.51100000000E-03 0.  1.
        -12    1    3    3    0    0  0.37052772432E+02  0.68643078537E+01  0.21974211195E+02  0.43622157499E+02  0.00000000000E+00 0.  1.
</event>
<event>
 7    1  0.4008281E-015  0.9000771E+02  0.7816164E-02  0.1186339E+00
        -11   -1    0    0    0    0  0.00000000000E+00  0.00000000000E+00  0.45593999997E+02  0.45594000000E+02  0.51100000000E-03 0.  1.
         11   -1    0    0    0    0 -0.00000000000E+00 -0.00000000000E+00 -0.45593999997E+02  0.45594000000E+02  0.51100000000E-03 0. -1.
    9900012    2    1    2    0    0 -0.11508964736E+01  0.95612095550E-01  0.24366545412E+00  0.90007713078E+02  0.89999974090E+02 0.  0.
         12    1    1    2    0    0  0.11508964736E+01 -0.95612095550E-01 -0.24366545412E+00  0.11802869225E+01  0.00000000000E+00 0. -1.
         11    1    3    3    0    0  0.10310406211E+02 -0.12787601014E+02 -0.17628972799E+02  0.24095806651E+02  0.51100000000E-03 0. -1.
        -11    1    3    3    0    0 -0.25878935686E+02 -0.16164168578E+02  0.45347447773E+01  0.30847424017E+02  0.51100000000E-03 0.  1.
        -12    1    3    3    0    0  0.14417633001E+02  0.29047381688E+02  0.13337893476E+02  0.35064482410E+02  0.00000000000E+00 0.  1.
</event>
<event>
 7    1  0.4008281E-015  0.9000783E+02  0.7816164E-02  0.1186339E+00
        -11   -1    0    0    0    0  0.00000000000E+00  0.00000000000E+00  0.45593999997E+02  0.45594000000E+02  0.51100000000E-03 0.  1.
         11   -1    0    0    0    0 -0.00000000000E+00 -0.00000000000E+00 -0.45593999997E+02  0.45594000000E+02  0.51100000000E-03 0. -1.
    9900012    2    1    2    0    0  0.95411514564E+00  0.68143421803E+00  0.13460250640E+00  0.90007827920E+02  0.90000090448E+02 0.  0.
         12    1    1    2    0    0 -0.95411514564E+00 -0.68143421803E+00 -0.13460250640E+00  0.11801720804E+01  0.00000000000E+00 0. -1.
         11    1    3    3    0    0  0.93120798820E+01 -0.12696998861E+01 -0.35017709342E+02  0.36256957089E+02  0.51100000000E-03 0. -1.
        -11    1    3    3    0    0  0.52297317817E+01  0.73747813120E+01 -0.54751255717E+01  0.10569507756E+02  0.51100000000E-03 0.  1.
        -12    1    3    3    0    0 -0.13587696518E+02 -0.54236472079E+01  0.40627437420E+02  0.43181363075E+02  0.00000000000E+00 0.  1.
</event>
<event>
 7    1  0.4008281E-015  0.9000780E+02  0.7816164E-02  0.1186339E+00
        -11   -1    0    0    0    0  0.00000000000E+00  0.00000000000E+00  0.45593999997E+02  0.45594000000E+02  0.51100000000E-03 0.  1.
         11   -1    0    0    0    0 -0.00000000000E+00 -0.00000000000E+00 -0.45593999997E+02  0.45594000000E+02  0.51100000000E-03 0. -1.
    9900012    2    1    2    0    0 -0.43672119091E-01 -0.39457381442E+00  0.11114298771E+01  0.90007799966E+02  0.90000062125E+02 0.  0.
         12    1    1    2    0    0  0.43672119091E-01  0.39457381442E+00 -0.11114298771E+01  0.11802000342E+01  0.00000000000E+00 0. -1.
         11    1    3    3    0    0 -0.92815544900E+01  0.55589896925E-01  0.30871828771E+01  0.97816686902E+01  0.51100000000E-03 0. -1.
        -11    1    3    3    0    0 -0.19317696157E+02 -0.28974891519E+02  0.13005826614E+02  0.37173501980E+02  0.51100000000E-03 0.  1.
         12    1    3    3    0    0  0.28555578527E+02  0.28524727807E+02 -0.14981579614E+02  0.43052629295E+02  0.00000000000E+00 0. -1.
</event>
<event>
 7    1  0.4008281E-015  0.9000770E+02  0.7816164E-02  0.1186339E+00
        -11   -1    0    0    0    0  0.00000000000E+00  0.00000000000E+00  0.45593999997E+02  0.45594000000E+02  0.51100000000E-03 0.  1.
         11   -1    0    0    0    0 -0.00000000000E+00 -0.00000000000E+00 -0.45593999997E+02  0.45594000000E+02  0.51100000000E-03 0. -1.
    9900012    2    1    2    0    0 -0.54608132424E-01 -0.63457421765E+00  0.99369672796E+00  0.90007703566E+02  0.89999964453E+02 0.  0.
         12    1    1    2    0    0  0.54608132424E-01  0.63457421765E+00 -0.99369672796E+00  0.11802964344E+01  0.00000000000E+00 0. -1.
         11    1    3    3    0    0 -0.13237040639E+02 -0.28005413219E+02  0.25252915200E+02  0.39965386784E+02  0.51100000000E-03 0. -1.
        -11    1    3    3    0    0 -0.83360011722E+00  0.73644634670E+01  0.71190694728E+01  0.10276738867E+02  0.51100000000E-03 0.  1.
        -12    1    3    3    0    0  0.14016032624E+02  0.20006375534E+02 -0.31378287945E+02  0.39765577915E+02  0.00000000000E+00 0.  1.
</event>
<event>
 7    1  0.4008281E-015  0.9000763E+02  0.7816164E-02  0.1186339E+00
        -11   -1    0    0    0    0  0.00000000000E+00  0.00000000000E+00  0.45593999997E+02  0.45594000000E+02  0.51100000000E-03 0.  1.
         11   -1    0    0    0    0 -0.00000000000E+00 -0.00000000000E+00 -0.45593999997E+02  0.45594000000E+02  0.51100000000E-03 0. -1.
    9900012    2    1    2    0    0 -0.44085437275E+00 -0.68943155873E+00  0.85064687118E+00  0.90007632027E+02  0.89999891970E+02 0.  0.
         12    1    1    2    0    0  0.44085437275E+00  0.68943155873E+00 -0.85064687118E+00  0.11803679730E+01  0.00000000000E+00 0. -1.
         11    1    3    3    0    0 -0.34785761615E+01 -0.10930690700E+02 -0.40152321114E+01  0.12153295045E+02  0.51100000000E-03 0. -1.
        -11    1    3    3    0    0  0.19612716529E+02 -0.23899558183E+02  0.20190332060E+02  0.36925560794E+02  0.51100000000E-03 0.  1.
         12    1    3    3    0    0 -0.16574994740E+02  0.34140817324E+02 -0.15324453077E+02  0.40928776188E+02  0.00000000000E+00 0. -1.
</event>
<event>
 7    1  0.4008281E-015  0.9000791E+02  0.7816164E-02  0.1186339E+00
        -11   -1    0    0    0    0  0.00000000000E+00  0.00000000000E+00  0.45593999997E+02  0.45594000000E+02  0.51100000000E-03 0.  1.
         11   -1    0    0    0    0 -0.00000000000E+00 -0.00000000000E+00 -0.45593999997E+02  0.45594000000E+02  0.51100000000E-03 0. -1.
    9900012    2    1    2    0    0 -0.94089047965E+00  0.70926709053E+00 -0.65436863009E-01  0.90007908189E+02  0.90000171776E+02 0.  0.
         12    1    1    2    0    0  0.94089047965E+00 -0.70926709053E+00  0.65436863009E-01  0.11800918114E+01  0.00000000000E+00 0. -1.
         11    1    3    3    0    0  0.34099178140E+01 -0.19054543581E+02 -0.31568712284E+02  0.37030889351E+02  0.51100000000E-03 0. -1.
        -11    1    3    3    0    0 -0.65637719418E+01  0.20760046264E+01 -0.74469938747E+01  0.10141529241E+02  0.51100000000E-03 0.  1.
        -12    1    3    3    0    0  0.22129636481E+01  0.17687806045E+02  0.38950269296E+02  0.42835489597E+02  0.00000000000E+00 0.  1.
</event>
<event>
 7    1  0.4008281E-015  0.9000763E+02  0.7816164E-02  0.1186339E+00
        -11   -1    0    0    0    0  0.00000000000E+00  0.00000000000E+00  0.45593999997E+02  0.45594000000E+02  0.51100000000E-03 0.  1.
         11   -1    0    0    0    0 -0.00000000000E+00 -0.00000000000E+00 -0.45593999997E+02  0.45594000000E+02  0.51100000000E-03 0. -1.
    9900012    2    1    2    0    0 -0.50547696104E+00  0.77086164598E+00 -0.73724800657E+00  0.90007631728E+02  0.89999891666E+02 0.  0.
         12    1    1    2    0    0  0.50547696104E+00 -0.77086164598E+00  0.73724800657E+00  0.11803682724E+01  0.00000000000E+00 0. -1.
         11    1    3    3    0    0 -0.32594745400E+02 -0.51355409329E+01 -0.18497908226E+02  0.37828082391E+02  0.51100000000E-03 0. -1.
        -11    1    3    3    0    0 -0.51588881620E+01  0.82908862512E+01 -0.19690007488E+01  0.99614198841E+01  0.51100000000E-03 0.  1.
        -12    1    3    3    0    0  0.37248156601E+02 -0.23844836722E+01  0.19729660969E+02  0.42218129453E+02  0.00000000000E+00 0.  1.
</event>
<event>
 7    1  0.4013737E-015  0.9000776E+02  0.7816164E-02  0.1186339E+00
        -11   -1    0    0    0    0  0.00000000000E+00  0.00000000000E+00  0.45593999997E+02  0.45594000000E+02  0.51100000000E-03 0. -1.
         11   -1    0    0    0    0 -0.00000000000E+00 -0.00000000000E+00 -0.45593999997E+02  0.45594000000E+02  0.51100000000E-03 0.  1.
    9900012    2    1    2    0    0 -0.47069354109E-01  0.24370349415E+00 -0.11538405775E+01  0.90007764856E+02  0.90000026552E+02 0.  0.
         12    1    1    2    0    0  0.47069354109E-01 -0.24370349415E+00  0.11538405775E+01  0.11802351441E+01  0.00000000000E+00 0. -1.
         11    1    3    3    0    0  0.15127036145E+02 -0.15923521728E+02  0.30972186240E+02  0.37969225532E+02  0.51100000000E-03 0. -1.
        -11    1    3    3    0    0 -0.19390181870E+00  0.81603730703E+01  0.61121794329E+01  0.10197451851E+02  0.51100000000E-03 0.  1.
        -12    1    3    3    0    0 -0.14980203681E+02  0.80068521519E+01 -0.38238206250E+02  0.41841087473E+02  0.00000000000E+00 0.  1.
</event>
<event>
 7    1  0.4008281E-015  0.9000776E+02  0.7816164E-02  0.1186339E+00
        -11   -1    0    0    0    0  0.00000000000E+00  0.00000000000E+00  0.45593999997E+02  0.45594000000E+02  0.51100000000E-03 0.  1.
         11   -1    0    0    0    0 -0.00000000000E+00 -0.00000000000E+00 -0.45593999997E+02  0.45594000000E+02  0.51100000000E-03 0. -1.
    9900012    2    1    2    0    0  0.52354936284E-01  0.10033078024E+01  0.61935380444E+00  0.90007759889E+02  0.90000021519E+02 0.  0.
         12    1    1    2    0    0 -0.52354936284E-01 -0.10033078024E+01 -0.61935380444E+00  0.11802401115E+01  0.00000000000E+00 0. -1.
         11    1    3    3    0    0  0.97141986359E+01  0.48858095802E+01  0.23109665254E+02  0.25540035607E+02  0.51100000000E-03 0. -1.
        -11    1    3    3    0    0 -0.20683610113E+02  0.22727368566E+02 -0.61041967275E+01  0.31330595705E+02  0.51100000000E-03 0.  1.
         12    1    3    3    0    0  0.11021766414E+02 -0.26609870344E+02 -0.16386114722E+02  0.33137128577E+02  0.00000000000E+00 0. -1.
</event>
<event>
 7    1  0.4008281E-015  0.9000770E+02  0.7816164E-02  0.1186339E+00
        -11   -1    0    0    0    0  0.00000000000E+00  0.00000000000E+00  0.45593999997E+02  0.45594000000E+02  0.51100000000E-03 0.  1.
         11   -1    0    0    0    0 -0.00000000000E+00 -0.00000000000E+00 -0.45593999997E+02  0.45594000000E+02  0.51100000000E-03 0. -1.
    9900012    2    1    2    0    0 -0.96927193748E-01  0.52720829789E+00  0.10515492400E+01  0.90007703735E+02  0.89999964624E+02 0.  0.
         12    1    1    2    0    0  0.96927193748E-01 -0.52720829789E+00 -0.10515492400E+01  0.11802962655E+01  0.00000000000E+00 0. -1.
         11    1    3    3    0    0 -0.88007517506E+01  0.35524369125E+02 -0.15322867604E+02  0.39676495624E+02  0.51100000000E-03 0. -1.
        -11    1    3    3    0    0  0.33290340579E+01 -0.18489642018E+01 -0.79842294699E+01  0.88458496973E+01  0.51100000000E-03 0.  1.
        -12    1    3    3    0    0  0.53747904989E+01 -0.33148196625E+02  0.24358646314E+02  0.41485358413E+02  0.00000000000E+00 0.  1.
</event>
<event>
 7    1  0.4008281E-015  0.9000770E+02  0.7816164E-02  0.1186339E+00
        -11   -1    0    0    0    0  0.00000000000E+00  0.00000000000E+00  0.45593999997E+02  0.45594000000E+02  0.51100000000E-03 0. -1.
         11   -1    0    0    0    0 -0.00000000000E+00 -0.00000000000E+00 -0.45593999997E+02  0.45594000000E+02  0.51100000000E-03 0.  1.
    9900012    2    1    2    0    0 -0.65068117331E+00  0.28482874339E+00 -0.94264799984E+00  0.90007703997E+02  0.89999964890E+02 0.  0.
         12    1    1    2    0    0  0.65068117331E+00 -0.28482874339E+00  0.94264799984E+00  0.11802960027E+01  0.00000000000E+00 0. -1.
         11    1    3    3    0    0 -0.12260904361E+02 -0.77688976943E+01  0.36991885816E+02  0.39737704559E+02  0.51100000000E-03 0. -1.
        -11    1    3    3    0    0  0.21648991817E+01  0.10567183209E+02  0.31515378458E+00  0.10791268304E+02  0.51100000000E-03 0.  1.
        -12    1    3    3    0    0  0.94453240058E+01 -0.25134567711E+01 -0.38249687600E+02  0.39478731135E+02  0.00000000000E+00 0.  1.
</event>
<event>
 7    1  0.4008281E-015  0.9000781E+02  0.7816164E-02  0.1186339E+00
        -11   -1    0    0    0    0  0.00000000000E+00  0.00000000000E+00  0.45593999997E+02  0.45594000000E+02  0.51100000000E-03 0. -1.
         11   -1    0    0    0    0 -0.00000000000E+00 -0.00000000000E+00 -0.45593999997E+02  0.45594000000E+02  0.51100000000E-03 0.  1.
    9900012    2    1    2    0    0  0.27750000333E+00 -0.12677211969E+00 -0.11400733142E+01  0.90007811632E+02  0.90000073946E+02 0.  0.
         12    1    1    2    0    0 -0.27750000333E+00  0.12677211969E+00  0.11400733142E+01  0.11801883679E+01  0.00000000000E+00 0. -1.
         11    1    3    3    0    0  0.10989040338E+02 -0.67036177619E+01  0.29594905802E+01  0.13208182441E+02  0.51100000000E-03 0. -1.
        -11    1    3    3    0    0  0.32035945768E+02  0.94710005790E+01 -0.58667766825E+01  0.33917852853E+02  0.51100000000E-03 0.  1.
         12    1    3    3    0    0 -0.42747486103E+02 -0.28941549367E+01  0.17672127881E+01  0.42881776338E+02  0.00000000000E+00 0. -1.
</event>
<event>
 7    1  0.4008281E-015  0.9000769E+02  0.7816164E-02  0.1186339E+00
        -11   -1    0    0    0    0  0.00000000000E+00  0.00000000000E+00  0.45593999997E+02  0.45594000000E+02  0.51100000000E-03 0.  1.
         11   -1    0    0    0    0 -0.00000000000E+00 -0.00000000000E+00 -0.45593999997E+02  0.45594000000E+02  0.51100000000E-03 0. -1.
    9900012    2    1    2    0    0  0.38507948809E+00 -0.54187083441E+00 -0.97530188859E+00  0.90007693266E+02  0.89999954017E+02 0.  0.
         12    1    1    2    0    0 -0.38507948809E+00  0.54187083441E+00  0.97530188859E+00  0.11803067344E+01  0.00000000000E+00 0. -1.
         11    1    3    3    0    0 -0.69511108241E+01 -0.71929568379E+01  0.26742876399E+01  0.10354148174E+02  0.51100000000E-03 0. -1.
        -11    1    3    3    0    0  0.69812925341E+01  0.24415003289E+01  0.37533051747E+02  0.38254795033E+02  0.51100000000E-03 0.  1.
         12    1    3    3    0    0  0.35489777808E+00  0.42095856746E+01 -0.41182641276E+02  0.41398750059E+02  0.00000000000E+00 0. -1.
</event>
<event>
 7    1  0.4008281E-015  0.9000771E+02  0.7816164E-02  0.1186339E+00
        -11   -1    0    0    0    0  0.00000000000E+00  0.00000000000E+00  0.45593999997E+02  0.45594000000E+02  0.51100000000E-03 0.  1.
         11   -1    0    0    0    0 -0.00000000000E+00 -0.00000000000E+00 -0.45593999997E+02  0.45594000000E+02  0.51100000000E-03 0. -1.
    9900012    2    1    2    0    0  0.39030255650E+00 -0.76425001370E+00  0.81035844517E+00  0.90007705554E+02  0.89999966468E+02 0.  0.
         12    1    1    2    0    0 -0.39030255650E+00  0.76425001370E+00 -0.81035844517E+00  0.11802944458E+01  0.00000000000E+00 0. -1.
         11    1    3    3    0    0  0.91123759149E+01  0.33864843303E+01  0.59510591881E+01  0.11398191815E+02  0.51100000000E-03 0. -1.
        -11    1    3    3    0    0  0.13733979640E+02  0.23198778858E+02  0.21362924557E+02  0.34397384830E+02  0.51100000000E-03 0.  1.
         12    1    3    3    0    0 -0.22456052998E+02 -0.27349513202E+02 -0.26503625300E+02  0.44212128909E+02  0.00000000000E+00 0. -1.
</event>
<event>
 7    1  0.4008281E-015  0.9000776E+02  0.7816164E-02  0.1186339E+00
        -11   -1    0    0    0    0  0.00000000000E+00  0.00000000000E+00  0.45593999997E+02  0.45594000000E+02  0.51100000000E-03 0. -1.
         11   -1    0    0    0    0 -0.00000000000E+00 -0.00000000000E+00 -0.45593999997E+02  0.45594000000E+02  0.51100000000E-03 0.  1.
    9900012    2    1    2    0    0 -0.72551337561E+00 -0.92783446908E+00 -0.75559259276E-01  0.90007764574E+02  0.90000026266E+02 0.  0.
         12    1    1    2    0    0  0.72551337561E+00  0.92783446908E+00  0.75559259276E-01  0.11802354265E+01  0.00000000000E+00 0. -1.
         11    1    3    3    0    0 -0.15240309339E+02  0.25834363467E+01 -0.30691016335E+01  0.15759459293E+02  0.51100000000E-03 0. -1.
        -11    1    3    3    0    0  0.12056464936E+02 -0.33714256261E+02 -0.15205933784E+02  0.38900255070E+02  0.51100000000E-03 0.  1.
         12    1    3    3    0    0  0.24583310269E+01  0.30202985446E+02  0.18199476158E+02  0.35348050211E+02  0.00000000000E+00 0. -1.
</event>
<event>
 7    1  0.4008281E-015  0.9000773E+02  0.7816164E-02  0.1186339E+00
        -11   -1    0    0    0    0  0.00000000000E+00  0.00000000000E+00  0.45593999997E+02  0.45594000000E+02  0.51100000000E-03 0. -1.
         11   -1    0    0    0    0 -0.00000000000E+00 -0.00000000000E+00 -0.45593999997E+02  0.45594000000E+02  0.51100000000E-03 0.  1.
    9900012    2    1    2    0    0  0.10195576633E+01 -0.34051837125E+00 -0.48743118436E+00  0.90007728951E+02  0.89999990173E+02 0.  0.
         12    1    1    2    0    0 -0.10195576633E+01  0.34051837125E+00  0.48743118436E+00  0.11802710491E+01  0.00000000000E+00 0. -1.
         11    1    3    3    0    0 -0.73847035043E+01  0.76324253004E+01 -0.85656379131E-01  0.10620503712E+02  0.51100000000E-03 0. -1.
        -11    1    3    3    0    0  0.27628715064E+02  0.97022100801E+01 -0.28615108656E+02  0.40942682132E+02  0.51100000000E-03 0.  1.
         12    1    3    3    0    0 -0.19224453896E+02 -0.17675153752E+02  0.28213333851E+02  0.38444543107E+02  0.00000000000E+00 0. -1.
</event>
<event>
 7    1  0.4008281E-015  0.9000770E+02  0.7816164E-02  0.1186339E+00
        -11   -1    0    0    0    0  0.00000000000E+00  0.00000000000E+00  0.45593999997E+02  0.45594000000E+02  0.51100000000E-03 0. -1.
         11   -1    0    0    0    0 -0.00000000000E+00 -0.00000000000E+00 -0.45593999997E+02  0.45594000000E+02  0.51100000000E-03 0.  1.
    9900012    2    1    2    0    0  0.19820149816E+00  0.79587928395E+00 -0.84876196515E+00  0.90007701503E+02  0.89999962363E+02 0.  0.
         12    1    1    2    0    0 -0.19820149816E+00 -0.79587928395E+00  0.84876196515E+00  0.11802984970E+01  0.00000000000E+00 0. -1.
         11    1    3    3    0    0 -0.44451209340E+01  0.18863521349E+01 -0.91290138995E+01  0.10327454649E+02  0.51100000000E-03 0. -1.
        -11    1    3    3    0    0  0.36068345783E+02 -0.21100997971E+02  0.15081127533E+01  0.41814496138E+02  0.51100000000E-03 0.  1.
         12    1    3    3    0    0 -0.31425023351E+02  0.20010525120E+02  0.67721391811E+01  0.37865750716E+02  0.00000000000E+00 0. -1.
</event>
<event>
 7    1  0.4008281E-015  0.9000770E+02  0.7816164E-02  0.1186339E+00
        -11   -1    0    0    0    0  0.00000000000E+00  0.00000000000E+00  0.45593999997E+02  0.45594000000E+02  0.51100000000E-03 0.  1.
         11   -1    0    0    0    0 -0.00000000000E+00 -0.00000000000E+00 -0.45593999997E+02  0.45594000000E+02  0.51100000000E-03 0. -1.
    9900012    2    1    2    0    0  0.50618348081E-01 -0.31333242217E+00  0.11368232139E+01  0.90007700697E+02  0.89999961547E+02 0.  0.
         12    1    1    2    0    0 -0.50618348081E-01  0.31333242217E+00 -0.11368232139E+01  0.11802993026E+01  0.00000000000E+00 0. -1.
         11    1    3    3    0    0 -0.10993294495E+02 -0.36962161744E+02 -0.83342038428E+00  0.38571343176E+02  0.51100000000E-03 0. -1.
        -11    1    3    3    0    0  0.80469737252E+01 -0.50927718651E+01  0.10069437406E+01  0.95762230217E+01  0.51100000000E-03 0.  1.
        -12    1    3    3    0    0  0.29969391184E+01  0.41741601187E+02  0.96329985762E+00  0.41860134499E+02  0.00000000000E+00 0.  1.
</event>
<event>
 7    1  0.4008281E-015  0.9000769E+02  0.7816164E-02  0.1186339E+00
        -11   -1    0    0    0    0  0.00000000000E+00  0.00000000000E+00  0.45593999997E+02  0.45594000000E+02  0.51100000000E-03 0.  1.
         11   -1    0    0    0    0 -0.00000000000E+00 -0.00000000000E+00 -0.45593999997E+02  0.45594000000E+02  0.51100000000E-03 0. -1.
    9900012    2    1    2    0    0  0.64522670806E+00 -0.48825250290E+00  0.85931825294E+00  0.90007688231E+02  0.89999948916E+02 0.  0.
         12    1    1    2    0    0 -0.64522670806E+00  0.48825250290E+00 -0.85931825294E+00  0.11803117687E+01  0.00000000000E+00 0. -1.
         11    1    3    3    0    0 -0.28182216478E+02  0.26111245368E+02 -0.82243326524E+01  0.39289618325E+02  0.51100000000E-03 0. -1.
        -11    1    3    3    0    0  0.56919918292E+01  0.69888469497E+01  0.28892846975E+01  0.94652373977E+01  0.51100000000E-03 0.  1.
        -12    1    3    3    0    0  0.23135451357E+02 -0.33588344821E+02  0.61943662079E+01  0.41252832509E+02  0.00000000000E+00 0.  1.
</event>
<event>
 7    1  0.4008281E-015  0.9000771E+02  0.7816164E-02  0.1186339E+00
        -11   -1    0    0    0    0  0.00000000000E+00  0.00000000000E+00  0.45593999997E+02  0.45594000000E+02  0.51100000000E-03 0. -1.
         11   -1    0    0    0    0 -0.00000000000E+00 -0.00000000000E+00 -0.45593999997E+02  0.45594000000E+02  0.51100000000E-03 0.  1.
    9900012    2    1    2    0    0  0.21460586233E+00 -0.32638851715E+00 -0.11137822656E+01  0.90007705090E+02  0.89999965997E+02 0.  0.
         12    1    1    2    0    0 -0.21460586233E+00  0.32638851715E+00  0.11137822656E+01  0.11802949103E+01  0.00000000000E+00 0. -1.
         11    1    3    3    0    0 -0.22150699756E+02 -0.11516433820E+02  0.30723183661E+02  0.39587823408E+02  0.51100000000E-03 0. -1.
        -11    1    3    3    0    0  0.33054285088E+01 -0.62739754434E+01  0.24294150143E+01  0.74960444945E+01  0.51100000000E-03 0.  1.
        -12    1    3    3    0    0  0.19059877110E+02  0.17464020747E+02 -0.34266380941E+02  0.42923837187E+02  0.00000000000E+00 0.  1.
</event>
<event>
 7    1  0.4008281E-015  0.9000776E+02  0.7816164E-02  0.1186339E+00
        -11   -1    0    0    0    0  0.00000000000E+00  0.00000000000E+00  0.45593999997E+02  0.45594000000E+02  0.51100000000E-03 0.  1.
         11   -1    0    0    0    0 -0.00000000000E+00 -0.00000000000E+00 -0.45593999997E+02  0.45594000000E+02  0.51100000000E-03 0. -1.
    9900012    2    1    2    0    0 -0.75938871823E+00  0.50386057877E+00  0.74995305989E+00  0.90007755830E+02  0.90000017407E+02 0.  0.
         12    1    1    2    0    0  0.75938871823E+00 -0.50386057877E+00 -0.74995305989E+00  0.11802441698E+01  0.00000000000E+00 0. -1.
         11    1    3    3    0    0 -0.16458423267E+02  0.14578891205E+01 -0.39219059992E+02  0.42557488225E+02  0.51100000000E-03 0. -1.
        -11    1    3    3    0    0  0.66198904329E+01 -0.55692296948E+01  0.30828874182E+01  0.91838697634E+01  0.51100000000E-03 0.  1.
        -12    1    3    3    0    0  0.90791441159E+01  0.46152011531E+01  0.36886125633E+02  0.38266397842E+02  0.00000000000E+00 0.  1.
</event>
<event>
 7    1  0.4008281E-015  0.9000779E+02  0.7816164E-02  0.1186339E+00
        -11   -1    0    0    0    0  0.00000000000E+00  0.00000000000E+00  0.45593999997E+02  0.45594000000E+02  0.51100000000E-03 0. -1.
         11   -1    0    0    0    0 -0.00000000000E+00 -0.00000000000E+00 -0.45593999997E+02  0.45594000000E+02  0.51100000000E-03 0.  1.
    9900012    2    1    2    0    0  0.51160981004E+00  0.94943930787E+00 -0.47928514798E+00  0.90007790760E+02  0.90000052798E+02 0.  0.
         12    1    1    2    0    0 -0.51160981004E+00 -0.94943930787E+00  0.47928514798E+00  0.11802092400E+01  0.00000000000E+00 0. -1.
         11    1    3    3    0    0  0.11121103253E+02 -0.14463015397E+02  0.35832255706E+02  0.40209554849E+02  0.51100000000E-03 0. -1.
        -11    1    3    3    0    0  0.78592898581E+01  0.47348042964E+01 -0.19927650659E+01  0.93892449999E+01  0.51100000000E-03 0.  1.
        -12    1    3    3    0    0 -0.18468783301E+02  0.10677650408E+02 -0.34318775788E+02  0.40408990911E+02  0.00000000000E+00 0.  1.
</event>
<event>
 7    1  0.4008281E-015  0.9000781E+02  0.7816164E-02  0.1186339E+00
        -11   -1    0    0    0    0  0.00000000000E+00  0.00000000000E+00  0.45593999997E+02  0.45594000000E+02  0.51100000000E-03 0. -1.
         11   -1    0    0    0    0 -0.00000000000E+00 -0.00000000000E+00 -0.45593999997E+02  0.45594000000E+02  0.51100000000E-03 0.  1.
    9900012    2    1    2    0    0 -0.87504798721E+00  0.71664915394E+00  0.33699025448E+00  0.90007806193E+02  0.90000068435E+02 0.  0.
         12    1    1    2    0    0  0.87504798721E+00 -0.71664915394E+00 -0.33699025448E+00  0.11801938067E+01  0.00000000000E+00 0. -1.
         11    1    3    3    0    0 -0.31728548066E+01  0.38357793276E+02  0.11231755955E+02  0.40094134917E+02  0.51100000000E-03 0. -1.
        -11    1    3    3    0    0 -0.47742033794E+01 -0.21118088906E+01  0.76149116797E+01  0.92325313349E+01  0.51100000000E-03 0.  1.
        -12    1    3    3    0    0  0.70720101987E+01 -0.35529335231E+02 -0.18509677380E+02  0.40681139942E+02  0.00000000000E+00 0.  1.
</event>
<event>
 7    1  0.4008281E-015  0.9000772E+02  0.7816164E-02  0.1186339E+00
        -11   -1    0    0    0    0  0.00000000000E+00  0.00000000000E+00  0.45593999997E+02  0.45594000000E+02  0.51100000000E-03 0.  1.
         11   -1    0    0    0    0 -0.00000000000E+00 -0.00000000000E+00 -0.45593999997E+02  0.45594000000E+02  0.51100000000E-03 0. -1.
    9900012    2    1    2    0    0  0.12167096403E+00  0.86249117459E+00  0.79647594627E+00  0.90007716652E+02  0.89999977711E+02 0.  0.
         12    1    1    2    0    0 -0.12167096403E+00 -0.86249117459E+00 -0.79647594627E+00  0.11802833485E+01  0.00000000000E+00 0. -1.
         11    1    3    3    0    0  0.20781262203E+01 -0.49618027655E+01 -0.23549866291E+00  0.53845663849E+01  0.51100000000E-03 0. -1.
        -11    1    3    3    0    0  0.40594203744E+02 -0.25412384924E+01  0.54341781966E+01  0.41035077234E+02  0.51100000000E-03 0.  1.
         12    1    3    3    0    0 -0.42550659000E+02  0.83655324326E+01 -0.44022035874E+01  0.43588073032E+02  0.00000000000E+00 0. -1.
</event>
<event>
 7    1  0.4290051E-015  0.9000773E+02  0.7816164E-02  0.1186339E+00
        -11   -1    0    0    0    0  0.00000000000E+00  0.00000000000E+00  0.45593999997E+02  0.45594000000E+02  0.51100000000E-03 0.  1.
         11   -1    0    0    0    0 -0.00000000000E+00 -0.00000000000E+00 -0.45593999997E+02  0.45594000000E+02  0.51100000000E-03 0. -1.
    9900012    2    1    2    0    0  0.37127469985E+00  0.11203518716E+01  0.11027501089E-02  0.90007731202E+02  0.89999992454E+02 0.  0.
         12    1    1    2    0    0 -0.37127469985E+00 -0.11203518716E+01 -0.11027501089E-02  0.11802687978E+01  0.00000000000E+00 0. -1.
         11    1    3    3    0    0  0.19106885263E+01  0.88481581030E+01 -0.26269923846E+01  0.94255886665E+01  0.51100000000E-03 0. -1.
        -11    1    3    3    0    0 -0.16769975959E+02  0.13456950155E+02  0.33720683292E+02  0.39992575350E+02  0.51100000000E-03 0.  1.
         12    1    3    3    0    0  0.15230562133E+02 -0.21184756386E+02 -0.31092588157E+02  0.40589567186E+02  0.00000000000E+00 0. -1.
</event>
<event>
 7    1  0.4008281E-015  0.9000791E+02  0.7816164E-02  0.1186339E+00
        -11   -1    0    0    0    0  0.00000000000E+00  0.00000000000E+00  0.45593999997E+02  0.45594000000E+02  0.51100000000E-03 0.  1.
         11   -1    0    0    0    0 -0.00000000000E+00 -0.00000000000E+00 -0.45593999997E+02  0.45594000000E+02  0.51100000000E-03 0. -1.
    9900012    2    1    2    0    0  0.27770562908E-01  0.11531923220E+01 -0.24896779161E+00  0.90007911572E+02  0.90000175205E+02 0.  0.
         12    1    1    2    0    0 -0.27770562908E-01 -0.11531923220E+01  0.24896779161E+00  0.11800884276E+01  0.00000000000E+00 0. -1.
         11    1    3    3    0    0  0.56416445341E+01 -0.60544742162E+01  0.32792278168E+01  0.89015811191E+01  0.51100000000E-03 0. -1.
        -11    1    3    3    0    0  0.13821037356E+02  0.14154986780E+02  0.33389858046E+02  0.38810660197E+02  0.51100000000E-03 0.  1.
         12    1    3    3    0    0 -0.19434911327E+02 -0.69473202417E+01 -0.36918053654E+02  0.42295670257E+02  0.00000000000E+00 0. -1.
</event>
<event>
 7    1  0.4008281E-015  0.9000778E+02  0.7816164E-02  0.1186339E+00
        -11   -1    0    0    0    0  0.00000000000E+00  0.00000000000E+00  0.45593999997E+02  0.45594000000E+02  0.51100000000E-03 0. -1.
         11   -1    0    0    0    0 -0.00000000000E+00 -0.00000000000E+00 -0.45593999997E+02  0.45594000000E+02  0.51100000000E-03 0.  1.
    9900012    2    1    2    0    0  0.20347509276E+00  0.85849253980E-01 -0.11593742821E+01  0.90007779286E+02  0.90000041173E+02 0.  0.
         12    1    1    2    0    0 -0.20347509276E+00 -0.85849253980E-01  0.11593742821E+01  0.11802207140E+01  0.00000000000E+00 0. -1.
         11    1    3    3    0    0  0.11759735228E+02 -0.20892484514E+02  0.27174256875E+02  0.36238481187E+02  0.51100000000E-03 0. -1.
        -11    1    3    3    0    0  0.10375899115E+00 -0.96434020027E+01  0.11224072007E+01  0.97090558913E+01  0.51100000000E-03 0.  1.
        -12    1    3    3    0    0 -0.11660019127E+02  0.30621735771E+02 -0.29456038358E+02  0.44060242207E+02  0.00000000000E+00 0.  1.
</event>
<event>
 7    1  0.4008281E-015  0.9000775E+02  0.7816164E-02  0.1186339E+00
        -11   -1    0    0    0    0  0.00000000000E+00  0.00000000000E+00  0.45593999997E+02  0.45594000000E+02  0.51100000000E-03 0.  1.
         11   -1    0    0    0    0 -0.00000000000E+00 -0.00000000000E+00 -0.45593999997E+02  0.45594000000E+02  0.51100000000E-03 0. -1.
    9900012    2    1    2    0    0 -0.94885887145E+00  0.11904710494E+00  0.69172762205E+00  0.90007748978E+02  0.90000010465E+02 0.  0.
         12    1    1    2    0    0  0.94885887145E+00 -0.11904710494E+00 -0.69172762205E+00  0.11802510217E+01  0.00000000000E+00 0. -1.
         11    1    3    3    0    0 -0.91421852759E+01  0.75573094496E+01  0.25857339146E+02  0.28448101268E+02  0.51100000000E-03 0. -1.
        -11    1    3    3    0    0  0.14308518495E+01  0.11463766118E+02  0.13636236786E+02  0.17872107446E+02  0.51100000000E-03 0.  1.
         12    1    3    3    0    0  0.67624745549E+01 -0.18902028463E+02 -0.38801848310E+02  0.43687540265E+02  0.00000000000E+00 0. -1.
</event>
<event>
 7    1  0.4008281E-015  0.9000781E+02  0.7816164E-02  0.1186339E+00
        -11   -1    0    0    0    0  0.00000000000E+00  0.00000000000E+00  0.45593999997E+02  0.45594000000E+02  0.51100000000E-03 0. -1.
         11   -1    0    0    0    0 -0.00000000000E+00 -0.00000000000E+00 -0.45593999997E+02  0.45594000000E+02  0.51100000000E-03 0.  1.
    9900012    2    1    2    0    0 -0.10246721798E+01  0.45510988794E+00  0.36847638582E+00  0.90007808095E+02  0.90000070362E+02 0.  0.
         12    1    1    2    0    0  0.10246721798E+01 -0.45510988794E+00 -0.36847638582E+00  0.11801919052E+01  0.00000000000E+00 0. -1.
         11    1    3    3    0    0 -0.81765940319E+00  0.40970626032E+02 -0.10338797664E+02  0.42262885630E+02  0.51100000000E-03 0. -1.
        -11    1    3    3    0    0 -0.20574890187E+01 -0.27712577237E+01  0.93103281585E+01  0.99295186748E+01  0.51100000000E-03 0.  1.
        -12    1    3    3    0    0  0.18504762421E+01 -0.37744258420E+02  0.13969458915E+01  0.37815403790E+02  0.00000000000E+00 0.  1.
</event>
<event>
 7    1  0.4008281E-015  0.9000776E+02  0.7816164E-02  0.1186339E+00
        -11   -1    0    0    0    0  0.00000000000E+00  0.00000000000E+00  0.45593999997E+02  0.45594000000E+02  0.51100000000E-03 0.  1.
         11   -1    0    0    0    0 -0.00000000000E+00 -0.00000000000E+00 -0.45593999997E+02  0.45594000000E+02  0.51100000000E-03 0. -1.
    9900012    2    1    2    0    0  0.22206207572E+00  0.97940042725E+00 -0.62002167609E+00  0.90007761193E+02  0.90000022841E+02 0.  0.
         12    1    1    2    0    0 -0.22206207572E+00 -0.97940042725E+00  0.62002167609E+00  0.11802388068E+01  0.00000000000E+00 0. -1.
         11    1    3    3    0    0  0.23579462815E+01 -0.81198055389E+01 -0.39112566613E+02  0.40016047031E+02  0.51100000000E-03 0. -1.
        -11    1    3    3    0    0 -0.45667170157E+01  0.60420668651E+01 -0.31236792200E+01  0.81926093789E+01  0.51100000000E-03 0.  1.
        -12    1    3    3    0    0  0.24308328100E+01  0.30571391010E+01  0.41616224157E+02  0.41799104784E+02  0.00000000000E+00 0.  1.
</event>
<event>
 7    1  0.5018092E-015  0.9000788E+02  0.7816164E-02  0.1186339E+00
        -11   -1    0    0    0    0  0.00000000000E+00  0.00000000000E+00  0.45593999997E+02  0.45594000000E+02  0.51100000000E-03 0.  1.
         11   -1    0    0    0    0 -0.00000000000E+00 -0.00000000000E+00 -0.45593999997E+02  0.45594000000E+02  0.51100000000E-03 0. -1.
    9900012    2    1    2    0    0 -0.45234644475E+00  0.34446441282E+00  0.10341257999E+01  0.90007877461E+02  0.90000140643E+02 0.  0.
         12    1    1    2    0    0  0.45234644475E+00 -0.34446441282E+00 -0.10341257999E+01  0.11801225393E+01  0.00000000000E+00 0. -1.
         11    1    3    3    0    0  0.95800627378E+01 -0.15084330703E+01 -0.13387052654E+00  0.96990151030E+01  0.51100000000E-03 0. -1.
        -11    1    3    3    0    0 -0.15060212628E+02 -0.10229167378E+02  0.37503381299E+02  0.41688721241E+02  0.51100000000E-03 0.  1.
         12    1    3    3    0    0  0.50278034451E+01  0.12082064861E+02 -0.36335384972E+02  0.38620141117E+02  0.00000000000E+00 0. -1.
</event>
<event>
 7    1  0.4008281E-015  0.9000778E+02  0.7816164E-02  0.1186339E+00
        -11   -1    0    0    0    0  0.00000000000E+00  0.00000000000E+00  0.45593999997E+02  0.45594000000E+02  0.51100000000E-03 0. -1.
         11   -1    0    0    0    0 -0.00000000000E+00 -0.00000000000E+00 -0.45593999997E+02  0.45594000000E+02  0.51100000000E-03 0.  1.
    9900012    2    1    2    0    0  0.20634375491E+00  0.11618057050E+01 -0.23354707020E-01  0.90007781510E+02  0.90000043426E+02 0.  0.
         12    1    1    2    0    0 -0.20634375491E+00 -0.11618057050E+01  0.23354707020E-01  0.11802184898E+01  0.00000000000E+00 0. -1.
         11    1    3    3    0    0  0.36656850973E+01  0.42253174077E+01 -0.80044624602E+01  0.97653455631E+01  0.51100000000E-03 0. -1.
        -11    1    3    3    0    0  0.24563013648E+02 -0.37721316459E+01 -0.26150685392E+02  0.36075323468E+02  0.51100000000E-03 0.  1.
         12    1    3    3    0    0 -0.28022354990E+02  0.70861994319E+00  0.34131793145E+02  0.44167112479E+02  0.00000000000E+00 0. -1.
</event>
<event>
 7    1  0.4008281E-015  0.9000748E+02  0.7816164E-02  0.1186340E+00
        -11   -1    0    0    0    0  0.00000000000E+00  0.00000000000E+00  0.45593999997E+02  0.45594000000E+02  0.51100000000E-03 0. -1.
         11   -1    0    0    0    0 -0.00000000000E+00 -0.00000000000E+00 -0.45593999997E+02  0.45594000000E+02  0.51100000000E-03 0.  1.
    9900012    2    1    2    0    0  0.17035989492E+00 -0.11643365994E+01  0.94535541228E-01  0.90007475041E+02  0.89999732911E+02 0.  0.
         12    1    1    2    0    0 -0.17035989492E+00  0.11643365994E+01 -0.94535541228E-01  0.11805249591E+01  0.00000000000E+00 0. -1.
         11    1    3    3    0    0  0.77844299282E+01 -0.27184043945E+02 -0.24327686874E+02  0.37301554169E+02  0.51100000000E-03 0. -1.
        -11    1    3    3    0    0  0.28155342250E+00 -0.22252462411E+01 -0.83973819977E+01  0.86917787501E+01  0.51100000000E-03 0.  1.
        -12    1    3    3    0    0 -0.78956234557E+01  0.28244953587E+02  0.32819604413E+02  0.44014142122E+02  0.00000000000E+00 0.  1.
</event>
<event>
 7    1  0.4008281E-015  0.9000797E+02  0.7816164E-02  0.1186339E+00
        -11   -1    0    0    0    0  0.00000000000E+00  0.00000000000E+00  0.45593999997E+02  0.45594000000E+02  0.51100000000E-03 0.  1.
         11   -1    0    0    0    0 -0.00000000000E+00 -0.00000000000E+00 -0.45593999997E+02  0.45594000000E+02  0.51100000000E-03 0. -1.
    9900012    2    1    2    0    0 -0.53381610641E+00  0.13895483170E+00  0.10431694798E+01  0.90007970066E+02  0.90000234471E+02 0.  0.
         12    1    1    2    0    0  0.53381610641E+00 -0.13895483170E+00 -0.10431694798E+01  0.11800299337E+01  0.00000000000E+00 0. -1.
         11    1    3    3    0    0  0.31638965775E+02  0.52627405267E+01 -0.16844214369E+02  0.36227726277E+02  0.51100000000E-03 0. -1.
        -11    1    3    3    0    0  0.34917829412E+01 -0.85726088292E+01 -0.57109366711E+01  0.10876440970E+02  0.51100000000E-03 0.  1.
        -12    1    3    3    0    0 -0.35664564823E+02  0.34488231341E+01  0.23598320520E+02  0.42903802820E+02  0.00000000000E+00 0.  1.
</event>
<event>
 7    1  0.4008281E-015  0.9000770E+02  0.7816164E-02  0.1186339E+00
        -11   -1    0    0    0    0  0.00000000000E+00  0.00000000000E+00  0.45593999997E+02  0.45594000000E+02  0.51100000000E-03 0.  1.
         11   -1    0    0    0    0 -0.00000000000E+00 -0.00000000000E+00 -0.45593999997E+02  0.45594000000E+02  0.51100000000E-03 0. -1.
    9900012    2    1    2    0    0  0.38323527154E+00 -0.66776381358E+00  0.89460812580E+00  0.90007702799E+02  0.89999963676E+02 0.  0.
         12    1    1    2    0    0 -0.38323527154E+00  0.66776381358E+00 -0.89460812580E+00  0.11802972011E+01  0.00000000000E+00 0. -1.
         11    1    3    3    0    0 -0.99437800438E+01 -0.19759054582E+01 -0.38799921768E+00  0.10145615191E+02  0.51100000000E-03 0. -1.
        -11    1    3    3    0    0 -0.30635603712E+02  0.17071084796E+02  0.64804646814E+01  0.35664528227E+02  0.51100000000E-03 0.  1.
         12    1    3    3    0    0  0.40962619027E+02 -0.15762943152E+02 -0.51978573379E+01  0.44197559381E+02  0.00000000000E+00 0. -1.
</event>
<event>
 7    1  0.4008281E-015  0.9000780E+02  0.7816164E-02  0.1186339E+00
        -11   -1    0    0    0    0  0.00000000000E+00  0.00000000000E+00  0.45593999997E+02  0.45594000000E+02  0.51100000000E-03 0.  1.
         11   -1    0    0    0    0 -0.00000000000E+00 -0.00000000000E+00 -0.45593999997E+02  0.45594000000E+02  0.51100000000E-03 0. -1.
    9900012    2    1    2    0    0 -0.79698661274E+00  0.81176644785E+00 -0.31419809485E+00  0.90007799649E+02  0.90000061804E+02 0.  0.
         12    1    1    2    0    0  0.79698661274E+00 -0.81176644785E+00  0.31419809485E+00  0.11802003514E+01  0.00000000000E+00 0. -1.
         11    1    3    3    0    0 -0.18586090878E+02 -0.26787360183E+02 -0.18108392818E+02  0.37295030908E+02  0.51100000000E-03 0. -1.
        -11    1    3    3    0    0 -0.15648457991E+01 -0.22822559310E+01 -0.81850551620E+01  0.86401714553E+01  0.51100000000E-03 0.  1.
        -12    1    3    3    0    0  0.19353950065E+02  0.29881382562E+02  0.25979249885E+02  0.44072597286E+02  0.00000000000E+00 0.  1.
</event>
<event>
 7    1  0.4008281E-015  0.9000733E+02  0.7816164E-02  0.1186340E+00
        -11   -1    0    0    0    0  0.00000000000E+00  0.00000000000E+00  0.45593999997E+02  0.45594000000E+02  0.51100000000E-03 0.  1.
         11   -1    0    0    0    0 -0.00000000000E+00 -0.00000000000E+00 -0.45593999997E+02  0.45594000000E+02  0.51100000000E-03 0. -1.
    9900012    2    1    2    0    0  0.45858060716E+00  0.58678273855E+00  0.91617097412E+00  0.90007330948E+02  0.89999586916E+02 0.  0.
         12    1    1    2    0    0 -0.45858060716E+00 -0.58678273855E+00 -0.91617097412E+00  0.11806690516E+01  0.00000000000E+00 0. -1.
         11    1    3    3    0    0 -0.93961798962E+01  0.36256704766E+01 -0.59227858949E+01  0.11683881036E+02  0.51100000000E-03 0. -1.
        -11    1    3    3    0    0  0.19216874910E+02  0.16692506359E+02 -0.27598423078E+02  0.37544653501E+02  0.51100000000E-03 0.  1.
         12    1    3    3    0    0 -0.93621144068E+01 -0.19731394097E+02  0.34437379947E+02  0.40778796412E+02  0.00000000000E+00 0. -1.
</event>
<event>
 7    1  0.4008281E-015  0.9000773E+02  0.7816164E-02  0.1186339E+00
        -11   -1    0    0    0    0  0.00000000000E+00  0.00000000000E+00  0.45593999997E+02  0.45594000000E+02  0.51100000000E-03 0. -1.
         11   -1    0    0    0    0 -0.00000000000E+00 -0.00000000000E+00 -0.45593999997E+02  0.45594000000E+02  0.51100000000E-03 0.  1.
    9900012    2    1    2    0    0  0.28055392479E+00 -0.47023459478E+00 -0.10455634020E+01  0.90007731426E+02  0.89999992681E+02 0.  0.
         12    1    1    2    0    0 -0.28055392479E+00  0.47023459478E+00  0.10455634020E+01  0.11802685739E+01  0.00000000000E+00 0. -1.
         11    1    3    3    0    0  0.52828817063E+01  0.20572611940E+02  0.80607857328E+01  0.22718218857E+02  0.51100000000E-03 0. -1.
        -11    1    3    3    0    0 -0.85672198352E+01  0.19703379508E+02  0.80382099098E+01  0.22939774161E+02  0.51100000000E-03 0.  1.
        -12    1    3    3    0    0  0.35648920537E+01 -0.40746226042E+02 -0.17144559045E+02  0.44349738408E+02  0.00000000000E+00 0.  1.
</event>
<event>
 7    1  0.4008281E-015  0.9000776E+02  0.7816164E-02  0.1186339E+00
        -11   -1    0    0    0    0  0.00000000000E+00  0.00000000000E+00  0.45593999997E+02  0.45594000000E+02  0.51100000000E-03 0. -1.
         11   -1    0    0    0    0 -0.00000000000E+00 -0.00000000000E+00 -0.45593999997E+02  0.45594000000E+02  0.51100000000E-03 0.  1.
    9900012    2    1    2    0    0 -0.54993913485E+00  0.10322546868E+01 -0.15806893317E+00  0.90007759102E+02  0.90000020722E+02 0.  0.
         12    1    1    2    0    0  0.54993913485E+00 -0.10322546868E+01  0.15806893317E+00  0.11802408983E+01  0.00000000000E+00 0. -1.
         11    1    3    3    0    0 -0.54289362104E+01 -0.24042944589E+01  0.40855292092E+01  0.72073247049E+01  0.51100000000E-03 0. -1.
        -11    1    3    3    0    0 -0.37011332832E+02 -0.42056707432E+01 -0.12761933985E+02  0.39375035031E+02  0.51100000000E-03 0.  1.
         12    1    3    3    0    0  0.41890329907E+02  0.76422198888E+01  0.85183358431E+01  0.43425399366E+02  0.00000000000E+00 0. -1.
</event>
<event>
 7    1  0.4008281E-015  0.9000775E+02  0.7816164E-02  0.1186339E+00
        -11   -1    0    0    0    0  0.00000000000E+00  0.00000000000E+00  0.45593999997E+02  0.45594000000E+02  0.51100000000E-03 0. -1.
         11   -1    0    0    0    0 -0.00000000000E+00 -0.00000000000E+00 -0.45593999997E+02  0.45594000000E+02  0.51100000000E-03 0.  1.
    9900012    2    1    2    0    0 -0.82621806834E+00  0.37523013538E+00 -0.75468284455E+00  0.90007754201E+02  0.90000015756E+02 0.  0.
         12    1    1    2    0    0  0.82621806834E+00 -0.37523013538E+00  0.75468284455E+00  0.11802457993E+01  0.00000000000E+00 0. -1.
         11    1    3    3    0    0 -0.13797555757E+02  0.20167735012E+02  0.17652479521E+01  0.24499513892E+02  0.51100000000E-03 0. -1.
        -11    1    3    3    0    0  0.39552318730E+01 -0.23740759395E+01 -0.30771721444E+02  0.31115573860E+02  0.51100000000E-03 0.  1.
         12    1    3    3    0    0  0.90161058154E+01 -0.17418428937E+02  0.28251790647E+02  0.34392666449E+02  0.00000000000E+00 0. -1.
</event>
<event>
 7    1  0.4008281E-015  0.9000789E+02  0.7816164E-02  0.1186339E+00
        -11   -1    0    0    0    0  0.00000000000E+00  0.00000000000E+00  0.45593999997E+02  0.45594000000E+02  0.51100000000E-03 0. -1.
         11   -1    0    0    0    0 -0.00000000000E+00 -0.00000000000E+00 -0.45593999997E+02  0.45594000000E+02  0.51100000000E-03 0.  1.
    9900012    2    1    2    0    0 -0.75714508962E+00 -0.74692420919E+00  0.51136863440E+00  0.90007888844E+02  0.90000152176E+02 0.  0.
         12    1    1    2    0    0  0.75714508962E+00  0.74692420919E+00 -0.51136863440E+00  0.11801111563E+01  0.00000000000E+00 0. -1.
         11    1    3    3    0    0 -0.96019751000E+01  0.34068816736E+02  0.58748229594E+01  0.35880297444E+02  0.51100000000E-03 0. -1.
        -11    1    3    3    0    0 -0.88389030477E+00  0.83742784980E+01 -0.51191875694E+01  0.98547391678E+01  0.51100000000E-03 0.  1.
        -12    1    3    3    0    0  0.97287203151E+01 -0.43190019443E+02 -0.24426675559E+00  0.44272852232E+02  0.00000000000E+00 0.  1.
</event>
<event>
 7    1  0.4008281E-015  0.9000774E+02  0.7816164E-02  0.1186339E+00
        -11   -1    0    0    0    0  0.00000000000E+00  0.00000000000E+00  0.45593999997E+02  0.45594000000E+02  0.51100000000E-03 0. -1.
         11   -1    0    0    0    0 -0.00000000000E+00 -0.00000000000E+00 -0.45593999997E+02  0.45594000000E+02  0.51100000000E-03 0.  1.
    9900012    2    1    2    0    0  0.28261025669E+00 -0.16750820978E+00 -0.11336201673E+01  0.90007736368E+02  0.89999997688E+02 0.  0.
         12    1    1    2    0    0 -0.28261025669E+00  0.16750820978E+00  0.11336201673E+01  0.11802636321E+01  0.00000000000E+00 0. -1.
         11    1    3    3    0    0  0.25242521710E+02  0.12468278858E+02  0.25938825140E+02  0.38281399268E+02  0.51100000000E-03 0. -1.
        -11    1    3    3    0    0 -0.48812381098E+01  0.10212668494E+02 -0.48907682298E+00  0.11329796100E+02  0.51100000000E-03 0.  1.
        -12    1    3    3    0    0 -0.20078673344E+02 -0.22848455562E+02 -0.26583368485E+02  0.40396541001E+02  0.00000000000E+00 0.  1.
</event>
<event>
 7    1  0.4008281E-015  0.9000773E+02  0.7816164E-02  0.1186339E+00
        -11   -1    0    0    0    0  0.00000000000E+00  0.00000000000E+00  0.45593999997E+02  0.45594000000E+02  0.51100000000E-03 0.  1.
         11   -1    0    0    0    0 -0.00000000000E+00 -0.00000000000E+00 -0.45593999997E+02  0.45594000000E+02  0.51100000000E-03 0. -1.
    9900012    2    1    2    0    0 -0.11455130406E+01 -0.20761608158E+00 -0.19426450027E+00  0.90007727464E+02  0.89999988666E+02 0.  0.
         12    1    1    2    0    0  0.11455130406E+01  0.20761608158E+00  0.19426450027E+00  0.11802725362E+01  0.00000000000E+00 0. -1.
         11    1    3    3    0    0  0.98003077378E+01  0.20494780405E+01 -0.34374517939E+01  0.10585956126E+02  0.51100000000E-03 0. -1.
        -11    1    3    3    0    0  0.28144465158E+02 -0.12305269121E+02  0.18972717552E+02  0.36103941319E+02  0.51100000000E-03 0.  1.
         12    1    3    3    0    0 -0.39090285937E+02  0.10048174999E+02 -0.15729530258E+02  0.43317830019E+02  0.00000000000E+00 0. -1.
</event>
<event>
 7    1  0.4008281E-015  0.9000778E+02  0.7816164E-02  0.1186339E+00
        -11   -1    0    0    0    0  0.00000000000E+00  0.00000000000E+00  0.45593999997E+02  0.45594000000E+02  0.51100000000E-03 0.  1.
         11   -1    0    0    0    0 -0.00000000000E+00 -0.00000000000E+00 -0.45593999997E+02  0.45594000000E+02  0.51100000000E-03 0. -1.
    9900012    2    1    2    0    0 -0.76084842396E+00 -0.94206400798E-01  0.89730397702E+00  0.90007779852E+02  0.90000041746E+02 0.  0.
         12    1    1    2    0    0  0.76084842396E+00  0.94206400798E-01 -0.89730397702E+00  0.11802201478E+01  0.00000000000E+00 0. -1.
         11    1    3    3    0    0 -0.83374038758E+01  0.34157216756E+02 -0.10799630938E+01  0.35176612691E+02  0.51100000000E-03 0. -1.
        -11    1    3    3    0    0 -0.36192016285E+01  0.92042273299E+01 -0.34715192197E+00  0.98963092053E+01  0.51100000000E-03 0.  1.
        -12    1    3    3    0    0  0.11195757080E+02 -0.43455650487E+02  0.23244189928E+01  0.44934857955E+02  0.00000000000E+00 0.  1.
</event>
<event>
 7    1  0.4008281E-015  0.9000768E+02  0.7816164E-02  0.1186339E+00
        -11   -1    0    0    0    0  0.00000000000E+00  0.00000000000E+00  0.45593999997E+02  0.45594000000E+02  0.51100000000E-03 0.  1.
         11   -1    0    0    0    0 -0.00000000000E+00 -0.00000000000E+00 -0.45593999997E+02  0.45594000000E+02  0.51100000000E-03 0. -1.
    9900012    2    1    2    0    0  0.11611429186E+01 -0.40192042146E-01  0.20806245211E+00  0.90007678746E+02  0.89999939306E+02 0.  0.
         12    1    1    2    0    0 -0.11611429186E+01  0.40192042146E-01 -0.20806245211E+00  0.11803212536E+01  0.00000000000E+00 0. -1.
         11    1    3    3    0    0 -0.22706127857E+02 -0.28268428905E+02  0.12748354392E+02  0.38434266677E+02  0.51100000000E-03 0. -1.
        -11    1    3    3    0    0 -0.85027619733E+01  0.66923168720E+01 -0.52077026647E+01  0.12008506718E+02  0.51100000000E-03 0.  1.
        -12    1    3    3    0    0  0.32370032749E+02  0.21535919991E+02 -0.73325892751E+01  0.39564905352E+02  0.00000000000E+00 0.  1.
</event>
<event>
 7    1  0.4008281E-015  0.9000772E+02  0.7816164E-02  0.1186339E+00
        -11   -1    0    0    0    0  0.00000000000E+00  0.00000000000E+00  0.45593999997E+02  0.45594000000E+02  0.51100000000E-03 0. -1.
         11   -1    0    0    0    0 -0.00000000000E+00 -0.00000000000E+00 -0.45593999997E+02  0.45594000000E+02  0.51100000000E-03 0.  1.
    9900012    2    1    2    0    0  0.76279024554E+00 -0.62443248330E+00 -0.64907921992E+00  0.90007716679E+02  0.89999977739E+02 0.  0.
         12    1    1    2    0    0 -0.76279024554E+00  0.62443248330E+00  0.64907921992E+00  0.11802833213E+01  0.00000000000E+00 0. -1.
         11    1    3    3    0    0  0.40569273230E+02  0.33947521019E+01  0.59973220536E+00  0.40715475574E+02  0.51100000000E-03 0. -1.
        -11    1    3    3    0    0 -0.15262891455E+01 -0.10322227750E+02 -0.11390590004E+01  0.10496447015E+02  0.51100000000E-03 0.  1.
        -12    1    3    3    0    0 -0.38280193839E+02  0.63030431648E+01 -0.10975242488E+00  0.38795794090E+02  0.00000000000E+00 0.  1.
</event>
<event>
 7    1  0.4008281E-015  0.9000763E+02  0.7816164E-02  0.1186339E+00
        -11   -1    0    0    0    0  0.00000000000E+00  0.00000000000E+00  0.45593999997E+02  0.45594000000E+02  0.51100000000E-03 0.  1.
         11   -1    0    0    0    0 -0.00000000000E+00 -0.00000000000E+00 -0.45593999997E+02  0.45594000000E+02  0.51100000000E-03 0. -1.
    9900012    2    1    2    0    0 -0.60888427855E+00 -0.94358347767E+00  0.36356879957E+00  0.90007630517E+02  0.89999890440E+02 0.  0.
         12    1    1    2    0    0  0.60888427855E+00  0.94358347767E+00 -0.36356879957E+00  0.11803694828E+01  0.00000000000E+00 0. -1.
         11    1    3    3    0    0  0.33369339916E+02 -0.14444296552E+01  0.12013124747E+02  0.35495272782E+02  0.51100000000E-03 0. -1.
        -11    1    3    3    0    0  0.25054488650E+01 -0.50946277336E+01  0.10161102403E+02  0.11639609446E+02  0.51100000000E-03 0.  1.
        -12    1    3    3    0    0 -0.36483673059E+02  0.55954739112E+01 -0.21810658350E+02  0.42872748289E+02  0.00000000000E+00 0.  1.
</event>
<event>
 7    1  0.4008281E-015  0.9000778E+02  0.7816164E-02  0.1186339E+00
        -11   -1    0    0    0    0  0.00000000000E+00  0.00000000000E+00  0.45593999997E+02  0.45594000000E+02  0.51100000000E-03 0.  1.
         11   -1    0    0    0    0 -0.00000000000E+00 -0.00000000000E+00 -0.45593999997E+02  0.45594000000E+02  0.51100000000E-03 0. -1.
    9900012    2    1    2    0    0 -0.69020341051E+00 -0.83614516128E+00 -0.46625310021E+00  0.90007783311E+02  0.90000045251E+02 0.  0.
         12    1    1    2    0    0  0.69020341051E+00  0.83614516128E+00  0.46625310021E+00  0.11802166886E+01  0.00000000000E+00 0. -1.
         11    1    3    3    0    0  0.85327784853E+01  0.61713438810E+01  0.25382696244E-01  0.10530642835E+02  0.51100000000E-03 0. -1.
        -11    1    3    3    0    0  0.30155829591E+02 -0.17288907869E+02  0.12209791229E+02  0.36842358716E+02  0.51100000000E-03 0.  1.
         12    1    3    3    0    0 -0.39378811487E+02  0.10281418827E+02 -0.12701427025E+02  0.42634781760E+02  0.00000000000E+00 0. -1.
</event>
<event>
 7    1  0.4008281E-015  0.9000779E+02  0.7816164E-02  0.1186339E+00
        -11   -1    0    0    0    0  0.00000000000E+00  0.00000000000E+00  0.45593999997E+02  0.45594000000E+02  0.51100000000E-03 0. -1.
         11   -1    0    0    0    0 -0.00000000000E+00 -0.00000000000E+00 -0.45593999997E+02  0.45594000000E+02  0.51100000000E-03 0.  1.
    9900012    2    1    2    0    0 -0.17114054180E+00  0.28318405653E+00 -0.11328748627E+01  0.90007793345E+02  0.90000055417E+02 0.  0.
         12    1    1    2    0    0  0.17114054180E+00 -0.28318405653E+00  0.11328748627E+01  0.11802066554E+01  0.00000000000E+00 0. -1.
         11    1    3    3    0    0  0.10145973314E+02 -0.31333688015E+01 -0.15173286392E+02  0.18519918864E+02  0.51100000000E-03 0. -1.
        -11    1    3    3    0    0  0.26885762452E+02 -0.28300007845E+01 -0.74897507287E+01  0.28052620079E+02  0.51100000000E-03 0.  1.
         12    1    3    3    0    0 -0.37202876309E+02  0.62465536425E+01  0.21530162258E+02  0.43435254401E+02  0.00000000000E+00 0. -1.
</event>
<event>
 7    1  0.4008281E-015  0.9000755E+02  0.7816164E-02  0.1186339E+00
        -11   -1    0    0    0    0  0.00000000000E+00  0.00000000000E+00  0.45593999997E+02  0.45594000000E+02  0.51100000000E-03 0.  1.
         11   -1    0    0    0    0 -0.00000000000E+00 -0.00000000000E+00 -0.45593999997E+02  0.45594000000E+02  0.51100000000E-03 0. -1.
    9900012    2    1    2    0    0 -0.47902615697E+00  0.78264525435E+00 -0.74260808058E+00  0.90007548216E+02  0.89999807052E+02 0.  0.
         12    1    1    2    0    0  0.47902615697E+00 -0.78264525435E+00  0.74260808058E+00  0.11804517841E+01  0.00000000000E+00 0. -1.
         11    1    3    3    0    0  0.87632496938E+01  0.27549264322E+02 -0.28967658726E+02  0.40925319329E+02  0.51100000000E-03 0. -1.
        -11    1    3    3    0    0  0.32948048416E+01 -0.88101060461E+01 -0.39165088264E+01  0.10188854162E+02  0.51100000000E-03 0.  1.
        -12    1    3    3    0    0 -0.12537080692E+02 -0.17956513022E+02  0.32141559471E+02  0.38893374724E+02  0.00000000000E+00 0.  1.
</event>
<event>
 7    1  0.4008281E-015  0.9000766E+02  0.7816164E-02  0.1186339E+00
        -11   -1    0    0    0    0  0.00000000000E+00  0.00000000000E+00  0.45593999997E+02  0.45594000000E+02  0.51100000000E-03 0. -1.
         11   -1    0    0    0    0 -0.00000000000E+00 -0.00000000000E+00 -0.45593999997E+02  0.45594000000E+02  0.51100000000E-03 0.  1.
    9900012    2    1    2    0    0  0.15510773848E+00 -0.11711698431E+00 -0.11642239977E+01  0.90007664321E+02  0.89999924690E+02 0.  0.
         12    1    1    2    0    0 -0.15510773848E+00  0.11711698431E+00  0.11642239977E+01  0.11803356791E+01  0.00000000000E+00 0. -1.
         11    1    3    3    0    0 -0.61513762608E+00 -0.33984390080E+01 -0.75546655089E+01  0.83066692003E+01  0.51100000000E-03 0. -1.
        -11    1    3    3    0    0 -0.91315348469E+01  0.21659749507E+02 -0.30984028516E+02  0.38891383374E+02  0.51100000000E-03 0.  1.
         12    1    3    3    0    0  0.99017802114E+01 -0.18378427484E+02  0.37374470027E+02  0.42809611747E+02  0.00000000000E+00 0. -1.
</event>
<event>
 7    1  0.4008281E-015  0.9000779E+02  0.7816164E-02  0.1186339E+00
        -11   -1    0    0    0    0  0.00000000000E+00  0.00000000000E+00  0.45593999997E+02  0.45594000000E+02  0.51100000000E-03 0. -1.
         11   -1    0    0    0    0 -0.00000000000E+00 -0.00000000000E+00 -0.45593999997E+02  0.45594000000E+02  0.51100000000E-03 0.  1.
    9900012    2    1    2    0    0  0.33690626300E-01  0.89925987116E+00 -0.76360813479E+00  0.90007787834E+02  0.90000049833E+02 0.  0.
         12    1    1    2    0    0 -0.33690626300E-01 -0.89925987116E+00  0.76360813479E+00  0.11802121664E+01  0.00000000000E+00 0. -1.
         11    1    3    3    0    0  0.29219966842E+02  0.12591676576E+02 -0.15973634520E+02  0.35602159784E+02  0.51100000000E-03 0. -1.
        -11    1    3    3    0    0  0.91061707417E+01 -0.57365379616E+01 -0.35739067463E+01  0.11340327290E+02  0.51100000000E-03 0.  1.
        -12    1    3    3    0    0 -0.38292446957E+02 -0.59558787436E+01  0.18783933132E+02  0.43065300759E+02  0.00000000000E+00 0.  1.
</event>
<event>
 7    1  0.4008281E-015  0.9000765E+02  0.7816164E-02  0.1186339E+00
        -11   -1    0    0    0    0  0.00000000000E+00  0.00000000000E+00  0.45593999997E+02  0.45594000000E+02  0.51100000000E-03 0.  1.
         11   -1    0    0    0    0 -0.00000000000E+00 -0.00000000000E+00 -0.45593999997E+02  0.45594000000E+02  0.51100000000E-03 0. -1.
    9900012    2    1    2    0    0 -0.31135681145E+00 -0.23318662086E-01  0.11383060449E+01  0.90007649427E+02  0.89999909599E+02 0.  0.
         12    1    1    2    0    0  0.31135681145E+00  0.23318662086E-01 -0.11383060449E+01  0.11803505733E+01  0.00000000000E+00 0. -1.
         11    1    3    3    0    0  0.20561073245E+02  0.19773505288E+02 -0.26708694754E+02  0.39078173193E+02  0.51100000000E-03 0. -1.
        -11    1    3    3    0    0 -0.90535203035E+01 -0.30699081356E+01 -0.60586242902E+01  0.11318016363E+02  0.51100000000E-03 0.  1.
        -12    1    3    3    0    0 -0.11818909753E+02 -0.16726915814E+02  0.33905625089E+02  0.39611459871E+02  0.00000000000E+00 0.  1.
</event>
<event>
 7    1  0.4008281E-015  0.9000807E+02  0.7816164E-02  0.1186338E+00
        -11   -1    0    0    0    0  0.00000000000E+00  0.00000000000E+00  0.45593999997E+02  0.45594000000E+02  0.51100000000E-03 0. -1.
         11   -1    0    0    0    0 -0.00000000000E+00 -0.00000000000E+00 -0.45593999997E+02  0.45594000000E+02  0.51100000000E-03 0.  1.
    9900012    2    1    2    0    0  0.82004582865E+00  0.66859390411E+00 -0.52223771524E+00  0.90008074070E+02  0.90000339847E+02 0.  0.
         12    1    1    2    0    0 -0.82004582865E+00 -0.66859390411E+00  0.52223771524E+00  0.11799259303E+01  0.00000000000E+00 0. -1.
         11    1    3    3    0    0  0.22527327378E+01 -0.27113368223E+02  0.21469649424E+02  0.34657688726E+02  0.51100000000E-03 0. -1.
        -11    1    3    3    0    0  0.69757727474E+01 -0.83464124670E+01  0.21554275568E+01  0.11089178270E+02  0.51100000000E-03 0.  1.
        -12    1    3    3    0    0 -0.84084596566E+01  0.36128374594E+02 -0.24147314696E+02  0.44261207074E+02  0.00000000000E+00 0.  1.
</event>
<event>
 7    1  0.4008281E-015  0.9000775E+02  0.7816164E-02  0.1186339E+00
        -11   -1    0    0    0    0  0.00000000000E+00  0.00000000000E+00  0.45593999997E+02  0.45594000000E+02  0.51100000000E-03 0. -1.
         11   -1    0    0    0    0 -0.00000000000E+00 -0.00000000000E+00 -0.45593999997E+02  0.45594000000E+02  0.51100000000E-03 0.  1.
    9900012    2    1    2    0    0  0.97892615680E+00  0.12971550219E+00  0.64642354548E+00  0.90007751750E+02  0.90000013273E+02 0.  0.
         12    1    1    2    0    0 -0.97892615680E+00 -0.12971550219E+00 -0.64642354548E+00  0.11802482502E+01  0.00000000000E+00 0. -1.
         11    1    3    3    0    0 -0.11873227893E+01  0.11394141929E+02 -0.77139760220E+01  0.13810924373E+02  0.51100000000E-03 0. -1.
        -11    1    3    3    0    0 -0.23879240909E+02 -0.24694904912E+01 -0.23857095292E+02  0.33844903985E+02  0.51100000000E-03 0.  1.
         12    1    3    3    0    0  0.26045489856E+02 -0.87949359359E+01  0.32217494860E+02  0.42351923392E+02  0.00000000000E+00 0. -1.
</event>
<event>
 7    1  0.4008281E-015  0.9000775E+02  0.7816164E-02  0.1186339E+00
        -11   -1    0    0    0    0  0.00000000000E+00  0.00000000000E+00  0.45593999997E+02  0.45594000000E+02  0.51100000000E-03 0.  1.
         11   -1    0    0    0    0 -0.00000000000E+00 -0.00000000000E+00 -0.45593999997E+02  0.45594000000E+02  0.51100000000E-03 0. -1.
    9900012    2    1    2    0    0 -0.46808605278E+00 -0.78732276092E-01  0.10805927254E+01  0.90007752584E+02  0.90000014118E+02 0.  0.
         12    1    1    2    0    0  0.46808605278E+00  0.78732276092E-01 -0.10805927254E+01  0.11802474157E+01  0.00000000000E+00 0. -1.
         11    1    3    3    0    0  0.29582193628E+02 -0.14627833711E+02 -0.19389553479E+02  0.38275768879E+02  0.51100000000E-03 0. -1.
        -11    1    3    3    0    0  0.14404182011E+01 -0.56830412082E+01 -0.39237658180E+01  0.70546226280E+01  0.51100000000E-03 0.  1.
        -12    1    3    3    0    0 -0.31490697882E+02  0.20232142643E+02  0.24393912023E+02  0.44677361077E+02  0.00000000000E+00 0.  1.
</event>
<event>
 7    1  0.4008281E-015  0.9000777E+02  0.7816164E-02  0.1186339E+00
        -11   -1    0    0    0    0  0.00000000000E+00  0.00000000000E+00  0.45593999997E+02  0.45594000000E+02  0.51100000000E-03 0. -1.
         11   -1    0    0    0    0 -0.00000000000E+00 -0.00000000000E+00 -0.45593999997E+02  0.45594000000E+02  0.51100000000E-03 0.  1.
    9900012    2    1    2    0    0  0.19692038061E+00  0.11548438885E+01  0.14314907446E+00  0.90007773877E+02  0.90000035692E+02 0.  0.
         12    1    1    2    0    0 -0.19692038061E+00 -0.11548438885E+01 -0.14314907446E+00  0.11802261227E+01  0.00000000000E+00 0. -1.
         11    1    3    3    0    0 -0.72586416746E+01 -0.46695691248E+01 -0.13444041236E+01  0.87349972799E+01  0.51100000000E-03 0. -1.
        -11    1    3    3    0    0 -0.12329139081E+02 -0.30686922267E+02 -0.15352621873E+02  0.36460908756E+02  0.51100000000E-03 0.  1.
         12    1    3    3    0    0  0.19784701137E+02  0.36511335280E+02  0.16840175071E+02  0.44811867841E+02  0.00000000000E+00 0. -1.
</event>
<event>
 7    1  0.4008281E-015  0.9000773E+02  0.7816164E-02  0.1186339E+00
        -11   -1    0    0    0    0  0.00000000000E+00  0.00000000000E+00  0.45593999997E+02  0.45594000000E+02  0.51100000000E-03 0. -1.
         11   -1    0    0    0    0 -0.00000000000E+00 -0.00000000000E+00 -0.45593999997E+02  0.45594000000E+02  0.51100000000E-03 0.  1.
    9900012    2    1    2    0    0 -0.10688985911E+01 -0.14483914743E+00 -0.47908587972E+00  0.90007726364E+02  0.89999987552E+02 0.  0.
         12    1    1    2    0    0  0.10688985911E+01  0.14483914743E+00  0.47908587972E+00  0.11802736364E+01  0.00000000000E+00 0. -1.
         11    1    3    3    0    0 -0.19381914782E+02  0.18423241273E+01  0.35573885070E+02  0.40553101953E+02  0.51100000000E-03 0. -1.
        -11    1    3    3    0    0 -0.68773133125E+01 -0.22747006506E+01 -0.14869109701E+02  0.16539713571E+02  0.51100000000E-03 0.  1.
        -12    1    3    3    0    0  0.25190329503E+02  0.28753737589E+00 -0.21183861248E+02  0.32914910840E+02  0.00000000000E+00 0.  1.
</event>
<event>
 7    1  0.4008281E-015  0.9000773E+02  0.7816164E-02  0.1186339E+00
        -11   -1    0    0    0    0  0.00000000000E+00  0.00000000000E+00  0.45593999997E+02  0.45594000000E+02  0.51100000000E-03 0.  1.
         11   -1    0    0    0    0 -0.00000000000E+00 -0.00000000000E+00 -0.45593999997E+02  0.45594000000E+02  0.51100000000E-03 0. -1.
    9900012    2    1    2    0    0 -0.73588561570E-01  0.79911732941E+00  0.86546130799E+00  0.90007734327E+02  0.89999995620E+02 0.  0.
         12    1    1    2    0    0  0.73588561570E-01 -0.79911732941E+00 -0.86546130799E+00  0.11802656727E+01  0.00000000000E+00 0. -1.
         11    1    3    3    0    0 -0.19688601960E+02 -0.59190344679E+01 -0.30218541766E+02  0.36549094146E+02  0.51100000000E-03 0. -1.
        -11    1    3    3    0    0  0.12101294630E+01 -0.66929857448E+01 -0.65682859418E+01  0.94553081373E+01  0.51100000000E-03 0.  1.
        -12    1    3    3    0    0  0.18404883935E+02  0.13411137542E+02  0.37652289016E+02  0.44003332044E+02  0.00000000000E+00 0.  1.
</event>
<event>
 7    1  0.4008281E-015  0.9000743E+02  0.7816164E-02  0.1186340E+00
        -11   -1    0    0    0    0  0.00000000000E+00  0.00000000000E+00  0.45593999997E+02  0.45594000000E+02  0.51100000000E-03 0. -1.
         11   -1    0    0    0    0 -0.00000000000E+00 -0.00000000000E+00 -0.45593999997E+02  0.45594000000E+02  0.51100000000E-03 0.  1.
    9900012    2    1    2    0    0  0.64989292588E+00  0.58395787516E+00 -0.79397039586E+00  0.90007425308E+02  0.89999682521E+02 0.  0.
         12    1    1    2    0    0 -0.64989292588E+00 -0.58395787516E+00  0.79397039586E+00  0.11805746925E+01  0.00000000000E+00 0. -1.
         11    1    3    3    0    0 -0.10267806238E+02 -0.21221861617E+00  0.60103451044E+00  0.10287571357E+02  0.51100000000E-03 0. -1.
        -11    1    3    3    0    0  0.13606973941E+02  0.24186690335E+02 -0.31187518108E+02  0.41746940189E+02  0.51100000000E-03 0.  1.
         12    1    3    3    0    0 -0.26892747771E+01 -0.23390513843E+02  0.29792513201E+02  0.37972913762E+02  0.00000000000E+00 0. -1.
</event>
<event>
 7    1  0.4008281E-015  0.9000780E+02  0.7816164E-02  0.1186339E+00
        -11   -1    0    0    0    0  0.00000000000E+00  0.00000000000E+00  0.45593999997E+02  0.45594000000E+02  0.51100000000E-03 0. -1.
         11   -1    0    0    0    0 -0.00000000000E+00 -0.00000000000E+00 -0.45593999997E+02  0.45594000000E+02  0.51100000000E-03 0.  1.
    9900012    2    1    2    0    0  0.27018894022E+00 -0.13536982345E+00 -0.11408563817E+01  0.90007796485E+02  0.90000058599E+02 0.  0.
         12    1    1    2    0    0 -0.27018894022E+00  0.13536982345E+00  0.11408563817E+01  0.11802035148E+01  0.00000000000E+00 0. -1.
         11    1    3    3    0    0 -0.29790963712E+02  0.22711801177E+02  0.63529034661E+01  0.37995878912E+02  0.51100000000E-03 0. -1.
        -11    1    3    3    0    0 -0.53125931355E+01 -0.73498163071E+01  0.62564398405E+01  0.11017553508E+02  0.51100000000E-03 0.  1.
        -12    1    3    3    0    0  0.35373745788E+02 -0.15497354694E+02 -0.13750199688E+02  0.40994364064E+02  0.00000000000E+00 0.  1.
</event>
<event>
 7    1  0.4008281E-015  0.9000783E+02  0.7816164E-02  0.1186339E+00
        -11   -1    0    0    0    0  0.00000000000E+00  0.00000000000E+00  0.45593999997E+02  0.45594000000E+02  0.51100000000E-03 0. -1.
         11   -1    0    0    0    0 -0.00000000000E+00 -0.00000000000E+00 -0.45593999997E+02  0.45594000000E+02  0.51100000000E-03 0.  1.
    9900012    2    1    2    0    0 -0.92898415051E+00 -0.48649417447E+00  0.54139488585E+00  0.90007831980E+02  0.90000094562E+02 0.  0.
         12    1    1    2    0    0  0.92898415051E+00  0.48649417447E+00 -0.54139488585E+00  0.11801680203E+01  0.00000000000E+00 0. -1.
         11    1    3    3    0    0 -0.22848703210E+01 -0.29262333150E+01  0.84424690236E+01  0.92227304674E+01  0.51100000000E-03 0. -1.
        -11    1    3    3    0    0  0.15973616597E+02 -0.28689621355E+02  0.18262422509E+02  0.37573486355E+02  0.51100000000E-03 0.  1.
         12    1    3    3    0    0 -0.14617730427E+02  0.31129360496E+02 -0.26163496647E+02  0.43211615157E+02  0.00000000000E+00 0. -1.
</event>
<event>
 7    1  0.4008281E-015  0.9000771E+02  0.7816164E-02  0.1186339E+00
        -11   -1    0    0    0    0  0.00000000000E+00  0.00000000000E+00  0.45593999997E+02  0.45594000000E+02  0.51100000000E-03 0.  1.
         11   -1    0    0    0    0 -0.00000000000E+00 -0.00000000000E+00 -0.45593999997E+02  0.45594000000E+02  0.51100000000E-03 0. -1.
    9900012    2    1    2    0    0 -0.42322986736E-01  0.11570787089E+01  0.22903768235E+00  0.90007711631E+02  0.89999972625E+02 0.  0.
         12    1    1    2    0    0  0.42322986736E-01 -0.11570787089E+01 -0.22903768235E+00  0.11802883689E+01  0.00000000000E+00 0. -1.
         11    1    3    3    0    0  0.34525540920E+02 -0.54558929335E+01  0.21183314901E+02  0.40871904458E+02  0.51100000000E-03 0. -1.
        -11    1    3    3    0    0 -0.67333358997E+01 -0.48883649503E+01  0.47149436031E+01  0.95637135918E+01  0.51100000000E-03 0.  1.
        -12    1    3    3    0    0 -0.27834528007E+02  0.11501336593E+02 -0.25669220822E+02  0.39572093581E+02  0.00000000000E+00 0.  1.
</event>
<event>
 7    1  0.4008281E-015  0.9000725E+02  0.7816164E-02  0.1186340E+00
        -11   -1    0    0    0    0  0.00000000000E+00  0.00000000000E+00  0.45593999997E+02  0.45594000000E+02  0.51100000000E-03 0. -1.
         11   -1    0    0    0    0 -0.00000000000E+00 -0.00000000000E+00 -0.45593999997E+02  0.45594000000E+02  0.51100000000E-03 0.  1.
    9900012    2    1    2    0    0  0.42925795287E+00  0.51946116235E+00 -0.96957661020E+00  0.90007245541E+02  0.89999500381E+02 0.  0.
         12    1    1    2    0    0 -0.42925795287E+00 -0.51946116235E+00  0.96957661020E+00  0.11807544590E+01  0.00000000000E+00 0. -1.
         11    1    3    3    0    0  0.86310212581E+01  0.35215822304E+02  0.11535136167E+02  0.38048758655E+02  0.51100000000E-03 0. -1.
        -11    1    3    3    0    0 -0.78690805375E+01  0.53214813127E+01  0.13795992891E+01  0.95991607095E+01  0.51100000000E-03 0.  1.
        -12    1    3    3    0    0 -0.33268276771E+00 -0.40017842455E+02 -0.13884312066E+02  0.42359326176E+02  0.00000000000E+00 0.  1.
</event>
<event>
 7    1  0.4008281E-015  0.9000786E+02  0.7816164E-02  0.1186339E+00
        -11   -1    0    0    0    0  0.00000000000E+00  0.00000000000E+00  0.45593999997E+02  0.45594000000E+02  0.51100000000E-03 0. -1.
         11   -1    0    0    0    0 -0.00000000000E+00 -0.00000000000E+00 -0.45593999997E+02  0.45594000000E+02  0.51100000000E-03 0.  1.
    9900012    2    1    2    0    0  0.14154982409E+00 -0.33217750172E+00 -0.11235473111E+01  0.90007857294E+02  0.90000120211E+02 0.  0.
         12    1    1    2    0    0 -0.14154982409E+00  0.33217750172E+00  0.11235473111E+01  0.11801427057E+01  0.00000000000E+00 0. -1.
         11    1    3    3    0    0  0.70984803582E+01 -0.50711677733E+01  0.27444118130E+01  0.91453246219E+01  0.51100000000E-03 0. -1.
        -11    1    3    3    0    0 -0.13819954125E+02  0.29893298287E+02  0.25454870120E+02  0.41623921338E+02  0.51100000000E-03 0.  1.
         12    1    3    3    0    0  0.68630235905E+01 -0.25154308015E+02 -0.29322829244E+02  0.39238611334E+02  0.00000000000E+00 0. -1.
</event>
<event>
 7    1  0.4008281E-015  0.9000765E+02  0.7816164E-02  0.1186339E+00
        -11   -1    0    0    0    0  0.00000000000E+00  0.00000000000E+00  0.45593999997E+02  0.45594000000E+02  0.51100000000E-03 0. -1.
         11   -1    0    0    0    0 -0.00000000000E+00 -0.00000000000E+00 -0.45593999997E+02  0.45594000000E+02  0.51100000000E-03 0.  1.
    9900012    2    1    2    0    0 -0.33074200878E+00 -0.28934428145E-01 -0.11326930920E+01  0.90007652120E+02  0.89999912328E+02 0.  0.
         12    1    1    2    0    0  0.33074200878E+00  0.28934428145E-01  0.11326930920E+01  0.11803478801E+01  0.00000000000E+00 0. -1.
         11    1    3    3    0    0 -0.22772668597E+01 -0.34421512576E+00  0.85529494741E+01  0.88576166868E+01  0.51100000000E-03 0. -1.
        -11    1    3    3    0    0 -0.14332076821E+02 -0.24727947043E+02  0.23136203250E+02  0.36771778473E+02  0.51100000000E-03 0.  1.
         12    1    3    3    0    0  0.16278601672E+02  0.25043227741E+02 -0.32821845816E+02  0.44378256960E+02  0.00000000000E+00 0. -1.
</event>
<event>
 7    1  0.4008281E-015  0.9000769E+02  0.7816164E-02  0.1186339E+00
        -11   -1    0    0    0    0  0.00000000000E+00  0.00000000000E+00  0.45593999997E+02  0.45594000000E+02  0.51100000000E-03 0.  1.
         11   -1    0    0    0    0 -0.00000000000E+00 -0.00000000000E+00 -0.45593999997E+02  0.45594000000E+02  0.51100000000E-03 0. -1.
    9900012    2    1    2    0    0  0.34614511955E+00 -0.19190735639E+00  0.11119763520E+01  0.90007688056E+02  0.89999948739E+02 0.  0.
         12    1    1    2    0    0 -0.34614511955E+00  0.19190735639E+00 -0.11119763520E+01  0.11803119437E+01  0.00000000000E+00 0. -1.
         11    1    3    3    0    0 -0.11608992623E+02  0.12085237559E+02 -0.24955728282E+02  0.30060107300E+02  0.51100000000E-03 0. -1.
        -11    1    3    3    0    0  0.94697247220E+00  0.17097455676E+01 -0.15032354324E+02  0.15158880682E+02  0.51100000000E-03 0.  1.
        -12    1    3    3    0    0  0.11008165270E+02 -0.13986890483E+02  0.41100058957E+02  0.44788700074E+02  0.00000000000E+00 0.  1.
</event>
<event>
 7    1  0.4008281E-015  0.9000776E+02  0.7816164E-02  0.1186339E+00
        -11   -1    0    0    0    0  0.00000000000E+00  0.00000000000E+00  0.45593999997E+02  0.45594000000E+02  0.51100000000E-03 0.  1.
         11   -1    0    0    0    0 -0.00000000000E+00 -0.00000000000E+00 -0.45593999997E+02  0.45594000000E+02  0.51100000000E-03 0. -1.
    9900012    2    1    2    0    0 -0.12689569585E+00 -0.98197490451E+00  0.64233499311E+00  0.90007757875E+02  0.90000019479E+02 0.  0.
         12    1    1    2    0    0  0.12689569585E+00  0.98197490451E+00 -0.64233499311E+00  0.11802421252E+01  0.00000000000E+00 0. -1.
         11    1    3    3    0    0 -0.30158115348E+02  0.19483906029E+02 -0.19732259785E+02  0.40969459259E+02  0.51100000000E-03 0. -1.
        -11    1    3    3    0    0 -0.24281288115E+01 -0.10157843896E+02  0.62298839788E+01  0.12160964468E+02  0.51100000000E-03 0.  1.
        -12    1    3    3    0    0  0.32459348464E+02 -0.10308037037E+02  0.14144710799E+02  0.36877334148E+02  0.00000000000E+00 0.  1.
</event>
<event>
 7    1  0.4008281E-015  0.9000800E+02  0.7816164E-02  0.1186339E+00
        -11   -1    0    0    0    0  0.00000000000E+00  0.00000000000E+00  0.45593999997E+02  0.45594000000E+02  0.51100000000E-03 0.  1.
         11   -1    0    0    0    0 -0.00000000000E+00 -0.00000000000E+00 -0.45593999997E+02  0.45594000000E+02  0.51100000000E-03 0. -1.
    9900012    2    1    2    0    0  0.42043854641E+00  0.75671614010E+00  0.80187612413E+00  0.90008002879E+02  0.90000267716E+02 0.  0.
         12    1    1    2    0    0 -0.42043854641E+00 -0.75671614010E+00 -0.80187612413E+00  0.11799971214E+01  0.00000000000E+00 0. -1.
         11    1    3    3    0    0 -0.17984734808E+02  0.29170565904E+02  0.16564988887E+02  0.38062730569E+02  0.51100000000E-03 0. -1.
        -11    1    3    3    0    0  0.16805056151E+01  0.26023170133E+01  0.85762903556E+01  0.91186023866E+01  0.51100000000E-03 0.  1.
        -12    1    3    3    0    0  0.16724667739E+02 -0.31016166778E+02 -0.24339403118E+02  0.42826669923E+02  0.00000000000E+00 0.  1.
</event>
<event>
 7    1  0.4008281E-015  0.9000774E+02  0.7816164E-02  0.1186339E+00
        -11   -1    0    0    0    0  0.00000000000E+00  0.00000000000E+00  0.45593999997E+02  0.45594000000E+02  0.51100000000E-03 0. -1.
         11   -1    0    0    0    0 -0.00000000000E+00 -0.00000000000E+00 -0.45593999997E+02  0.45594000000E+02  0.51100000000E-03 0.  1.
    9900012    2    1    2    0    0  0.10613807253E+01  0.93699400956E-01 -0.50763789091E+00  0.90007743735E+02  0.90000005153E+02 0.  0.
         12    1    1    2    0    0 -0.10613807253E+01 -0.93699400956E-01  0.50763789091E+00  0.11802562646E+01  0.00000000000E+00 0. -1.
         11    1    3    3    0    0  0.17378116989E+02  0.61818347583E+01 -0.14227089047E+02  0.23294293165E+02  0.51100000000E-03 0. -1.
        -11    1    3    3    0    0  0.21294927642E+02 -0.26167023313E+01 -0.82857077114E+01  0.22999435360E+02  0.51100000000E-03 0.  1.
         12    1    3    3    0    0 -0.37611663905E+02 -0.34714330260E+01  0.22005158868E+02  0.43714015210E+02  0.00000000000E+00 0. -1.
</event>
<event>
 7    1  0.4008281E-015  0.9000775E+02  0.7816164E-02  0.1186339E+00
        -11   -1    0    0    0    0  0.00000000000E+00  0.00000000000E+00  0.45593999997E+02  0.45594000000E+02  0.51100000000E-03 0.  1.
         11   -1    0    0    0    0 -0.00000000000E+00 -0.00000000000E+00 -0.45593999997E+02  0.45594000000E+02  0.51100000000E-03 0. -1.
    9900012    2    1    2    0    0  0.39047556261E+00 -0.11501264107E+00  0.11078338845E+01  0.90007747913E+02  0.90000009386E+02 0.  0.
         12    1    1    2    0    0 -0.39047556261E+00  0.11501264107E+00 -0.11078338845E+01  0.11802520868E+01  0.00000000000E+00 0. -1.
         11    1    3    3    0    0  0.41578441983E+00 -0.80400222902E+01  0.43862922387E+01  0.91681183989E+01  0.51100000000E-03 0. -1.
        -11    1    3    3    0    0  0.69528825620E+01  0.11361526732E+02  0.37255991862E+02  0.39565588527E+02  0.51100000000E-03 0.  1.
         12    1    3    3    0    0 -0.69781914192E+01 -0.34365170825E+01 -0.40534450216E+02  0.41274040988E+02  0.00000000000E+00 0. -1.
</event>
<event>
 7    1  0.4008281E-015  0.9000767E+02  0.7816164E-02  0.1186339E+00
        -11   -1    0    0    0    0  0.00000000000E+00  0.00000000000E+00  0.45593999997E+02  0.45594000000E+02  0.51100000000E-03 0.  1.
         11   -1    0    0    0    0 -0.00000000000E+00 -0.00000000000E+00 -0.45593999997E+02  0.45594000000E+02  0.51100000000E-03 0. -1.
    9900012    2    1    2    0    0 -0.25464478120E+00  0.53722270042E+00  0.10196737175E+01  0.90007666706E+02  0.89999927107E+02 0.  0.
         12    1    1    2    0    0  0.25464478120E+00 -0.53722270042E+00 -0.10196737175E+01  0.11803332939E+01  0.00000000000E+00 0. -1.
         11    1    3    3    0    0  0.79551406009E-01 -0.92825836088E+01  0.21098244577E+01  0.95196662958E+01  0.51100000000E-03 0. -1.
        -11    1    3    3    0    0  0.11021966845E+02 -0.18437871445E+02 -0.31057244392E+02  0.37762299798E+02  0.51100000000E-03 0.  1.
         12    1    3    3    0    0 -0.11356163032E+02  0.28257677754E+02  0.29967093652E+02  0.42725700612E+02  0.00000000000E+00 0. -1.
</event>
<event>
 7    1  0.4008281E-015  0.9000812E+02  0.7816164E-02  0.1186338E+00
        -11   -1    0    0    0    0  0.00000000000E+00  0.00000000000E+00  0.45593999997E+02  0.45594000000E+02  0.51100000000E-03 0.  1.
         11   -1    0    0    0    0 -0.00000000000E+00 -0.00000000000E+00 -0.45593999997E+02  0.45594000000E+02  0.51100000000E-03 0. -1.
    9900012    2    1    2    0    0  0.74105331793E+00  0.43773953028E+00 -0.80706307290E+00  0.90008115802E+02  0.90000382130E+02 0.  0.
         12    1    1    2    0    0 -0.74105331793E+00 -0.43773953028E+00  0.80706307290E+00  0.11798841977E+01  0.00000000000E+00 0. -1.
         11    1    3    3    0    0  0.38546147262E+02 -0.98994453852E+01 -0.16304553292E+02  0.43007475466E+02  0.51100000000E-03 0. -1.
        -11    1    3    3    0    0 -0.41065098232E+01  0.26036527771E+01  0.11137000385E+02  0.12152168883E+02  0.51100000000E-03 0.  1.
        -12    1    3    3    0    0 -0.33698584120E+02  0.77335321383E+01  0.43604898332E+01  0.34848471453E+02  0.00000000000E+00 0.  1.
</event>
<event>
 7    1  0.4008281E-015  0.9000771E+02  0.7816164E-02  0.1186339E+00
        -11   -1    0    0    0    0  0.00000000000E+00  0.00000000000E+00  0.45593999997E+02  0.45594000000E+02  0.51100000000E-03 0.  1.
         11   -1    0    0    0    0 -0.00000000000E+00 -0.00000000000E+00 -0.45593999997E+02  0.45594000000E+02  0.51100000000E-03 0. -1.
    9900012    2    1    2    0    0 -0.63193413790E+00 -0.71948405118E+00  0.68998359340E+00  0.90007713842E+02  0.89999974865E+02 0.  0.
         12    1    1    2    0    0  0.63193413790E+00  0.71948405118E+00 -0.68998359340E+00  0.11802861576E+01  0.00000000000E+00 0. -1.
         11    1    3    3    0    0 -0.19832483367E+02  0.20647864532E+02 -0.31857712209E+02  0.42831945248E+02  0.51100000000E-03 0. -1.
        -11    1    3    3    0    0  0.72472733369E+01 -0.94578942797E+01  0.17288680976E+01  0.12040088047E+02  0.51100000000E-03 0.  1.
        -12    1    3    3    0    0  0.11953275893E+02 -0.11909454304E+02  0.30818827705E+02  0.35135680547E+02  0.00000000000E+00 0.  1.
</event>
<event>
 7    1  0.4008281E-015  0.9000762E+02  0.7816164E-02  0.1186339E+00
        -11   -1    0    0    0    0  0.00000000000E+00  0.00000000000E+00  0.45593999997E+02  0.45594000000E+02  0.51100000000E-03 0.  1.
         11   -1    0    0    0    0 -0.00000000000E+00 -0.00000000000E+00 -0.45593999997E+02  0.45594000000E+02  0.51100000000E-03 0. -1.
    9900012    2    1    2    0    0 -0.10677955420E+01 -0.46668134925E+00 -0.18792617998E+00  0.90007620802E+02  0.89999880597E+02 0.  0.
         12    1    1    2    0    0  0.10677955420E+01  0.46668134925E+00  0.18792617998E+00  0.11803791977E+01  0.00000000000E+00 0. -1.
         11    1    3    3    0    0  0.63751375489E+01 -0.47019703113E+01 -0.53566870507E+01  0.95626879065E+01  0.51100000000E-03 0. -1.
        -11    1    3    3    0    0  0.35451311822E+02 -0.61223744645E+01  0.49674487127E+01  0.36317413536E+02  0.51100000000E-03 0.  1.
         12    1    3    3    0    0 -0.42894244913E+02  0.10357663427E+02  0.20131215795E+00  0.44127519360E+02  0.00000000000E+00 0. -1.
</event>
<event>
 7    1  0.4008281E-015  0.9000778E+02  0.7816164E-02  0.1186339E+00
        -11   -1    0    0    0    0  0.00000000000E+00  0.00000000000E+00  0.45593999997E+02  0.45594000000E+02  0.51100000000E-03 0. -1.
         11   -1    0    0    0    0 -0.00000000000E+00 -0.00000000000E+00 -0.45593999997E+02  0.45594000000E+02  0.51100000000E-03 0.  1.
    9900012    2    1    2    0    0 -0.10929512875E+00  0.50209070871E+00 -0.10624878819E+01  0.90007779256E+02  0.90000041142E+02 0.  0.
         12    1    1    2    0    0  0.10929512875E+00 -0.50209070871E+00  0.10624878819E+01  0.11802207439E+01  0.00000000000E+00 0. -1.
         11    1    3    3    0    0  0.68549855182E+00  0.84422604707E+01 -0.26045642206E+01  0.88614572819E+01  0.51100000000E-03 0. -1.
        -11    1    3    3    0    0 -0.21913377241E+02  0.95003117280E+01 -0.30664363661E+02  0.38868434803E+02  0.51100000000E-03 0.  1.
         12    1    3    3    0    0  0.21118583561E+02 -0.17440481490E+02  0.32206440000E+02  0.42277887171E+02  0.00000000000E+00 0. -1.
</event>
<event>
 7    1  0.4008281E-015  0.9000738E+02  0.7816164E-02  0.1186340E+00
        -11   -1    0    0    0    0  0.00000000000E+00  0.00000000000E+00  0.45593999997E+02  0.45594000000E+02  0.51100000000E-03 0. -1.
         11   -1    0    0    0    0 -0.00000000000E+00 -0.00000000000E+00 -0.45593999997E+02  0.45594000000E+02  0.51100000000E-03 0.  1.
    9900012    2    1    2    0    0  0.30099263035E+00  0.45014683179E+00 -0.10491162321E+01  0.90007375757E+02  0.89999632317E+02 0.  0.
         12    1    1    2    0    0 -0.30099263035E+00 -0.45014683179E+00  0.10491162321E+01  0.11806242426E+01  0.00000000000E+00 0. -1.
         11    1    3    3    0    0 -0.10497499491E+02  0.43177603870E+00  0.42194420869E+01  0.11321997081E+02  0.51100000000E-03 0. -1.
        -11    1    3    3    0    0 -0.69192425556E+01 -0.18153516077E+02 -0.34733087333E+02  0.39797153409E+02  0.51100000000E-03 0.  1.
         12    1    3    3    0    0  0.17717734677E+02  0.18171886870E+02  0.29464529014E+02  0.38888225268E+02  0.00000000000E+00 0. -1.
</event>
<event>
 7    1  0.4008281E-015  0.9000790E+02  0.7816164E-02  0.1186339E+00
        -11   -1    0    0    0    0  0.00000000000E+00  0.00000000000E+00  0.45593999997E+02  0.45594000000E+02  0.51100000000E-03 0. -1.
         11   -1    0    0    0    0 -0.00000000000E+00 -0.00000000000E+00 -0.45593999997E+02  0.45594000000E+02  0.51100000000E-03 0.  1.
    9900012    2    1    2    0    0  0.18269168280E+00  0.88291441703E+00 -0.76139698593E+00  0.90007898526E+02  0.90000161986E+02 0.  0.
         12    1    1    2    0    0 -0.18269168280E+00 -0.88291441703E+00  0.76139698593E+00  0.11801014740E+01  0.00000000000E+00 0. -1.
         11    1    3    3    0    0 -0.31512697346E+02  0.24618543864E+02 -0.75981391405E+01  0.40704477821E+02  0.51100000000E-03 0. -1.
        -11    1    3    3    0    0  0.45092354130E+01 -0.34657550447E+01 -0.99532596095E+01  0.11463509024E+02  0.51100000000E-03 0.  1.
        -12    1    3    3    0    0  0.27186153616E+02 -0.20269874403E+02  0.16790001764E+02  0.37839911680E+02  0.00000000000E+00 0.  1.
</event>
<event>
 7    1  0.4008281E-015  0.9000771E+02  0.7816164E-02  0.1186339E+00
        -11   -1    0    0    0    0  0.00000000000E+00  0.00000000000E+00  0.45593999997E+02  0.45594000000E+02  0.51100000000E-03 0.  1.
         11   -1    0    0    0    0 -0.00000000000E+00 -0.00000000000E+00 -0.45593999997E+02  0.45594000000E+02  0.51100000000E-03 0. -1.
    9900012    2    1    2    0    0  0.48283787168E+00 -0.52298281591E-01  0.10757424380E+01  0.90007707954E+02  0.89999968899E+02 0.  0.
         12    1    1    2    0    0 -0.48283787168E+00  0.52298281591E-01 -0.10757424380E+01  0.11802920459E+01  0.00000000000E+00 0. -1.
         11    1    3    3    0    0 -0.27161501244E+01 -0.15463136325E+02 -0.33074767466E+02  0.36611832783E+02  0.51100000000E-03 0. -1.
        -11    1    3    3    0    0 -0.28155047938E+01 -0.45529807457E+01 -0.60693610025E+01  0.80928267098E+01  0.51100000000E-03 0.  1.
        -12    1    3    3    0    0  0.60144927899E+01  0.19963818789E+02  0.40219870907E+02  0.45303048462E+02  0.00000000000E+00 0.  1.
</event>
<event>
 7    1  0.4008281E-015  0.9000768E+02  0.7816164E-02  0.1186339E+00
        -11   -1    0    0    0    0  0.00000000000E+00  0.00000000000E+00  0.45593999997E+02  0.45594000000E+02  0.51100000000E-03 0. -1.
         11   -1    0    0    0    0 -0.00000000000E+00 -0.00000000000E+00 -0.45593999997E+02  0.45594000000E+02  0.51100000000E-03 0.  1.
    9900012    2    1    2    0    0 -0.95657279403E+00  0.36307315173E+00 -0.58847613534E+00  0.90007678948E+02  0.89999939510E+02 0.  0.
         12    1    1    2    0    0  0.95657279403E+00 -0.36307315173E+00  0.58847613534E+00  0.11803210519E+01  0.00000000000E+00 0. -1.
         11    1    3    3    0    0  0.13507898308E+01 -0.59319723698E+01 -0.66662310052E+01  0.90250521017E+01  0.51100000000E-03 0. -1.
        -11    1    3    3    0    0 -0.21745835649E+02 -0.29063205928E+02 -0.98382683570E+01  0.37607749619E+02  0.51100000000E-03 0.  1.
         12    1    3    3    0    0  0.19438473024E+02  0.35358251450E+02  0.15916023227E+02  0.43374877227E+02  0.00000000000E+00 0. -1.
</event>
<event>
 7    1  0.4008281E-015  0.9000775E+02  0.7816164E-02  0.1186339E+00
        -11   -1    0    0    0    0  0.00000000000E+00  0.00000000000E+00  0.45593999997E+02  0.45594000000E+02  0.51100000000E-03 0. -1.
         11   -1    0    0    0    0 -0.00000000000E+00 -0.00000000000E+00 -0.45593999997E+02  0.45594000000E+02  0.51100000000E-03 0.  1.
    9900012    2    1    2    0    0  0.10038008574E+01 -0.15524572213E+00 -0.60106851826E+00  0.90007745468E+02  0.90000006909E+02 0.  0.
         12    1    1    2    0    0 -0.10038008574E+01  0.15524572213E+00  0.60106851826E+00  0.11802545316E+01  0.00000000000E+00 0. -1.
         11    1    3    3    0    0  0.17404338772E+02  0.66647806249E+01  0.49997524527E+01  0.19295798343E+02  0.51100000000E-03 0. -1.
        -11    1    3    3    0    0  0.55624465431E+01 -0.27693555363E+02 -0.22414749603E+02  0.36059600943E+02  0.51100000000E-03 0.  1.
         12    1    3    3    0    0 -0.21962984457E+02  0.20873529016E+02  0.16813928632E+02  0.34652346182E+02  0.00000000000E+00 0. -1.
</event>
<event>
 7    1  0.4008281E-015  0.9000773E+02  0.7816164E-02  0.1186339E+00
        -11   -1    0    0    0    0  0.00000000000E+00  0.00000000000E+00  0.45593999997E+02  0.45594000000E+02  0.51100000000E-03 0.  1.
         11   -1    0    0    0    0 -0.00000000000E+00 -0.00000000000E+00 -0.45593999997E+02  0.45594000000E+02  0.51100000000E-03 0. -1.
    9900012    2    1    2    0    0 -0.10638491970E+01 -0.42297917438E+00  0.28696698888E+00  0.90007730307E+02  0.89999991547E+02 0.  0.
         12    1    1    2    0    0  0.10638491970E+01  0.42297917438E+00 -0.28696698888E+00  0.11802696932E+01  0.00000000000E+00 0. -1.
         11    1    3    3    0    0 -0.18711108743E+01  0.26850985108E+01 -0.78322836771E+01  0.84885498041E+01  0.51100000000E-03 0. -1.
        -11    1    3    3    0    0 -0.99799572797E-01  0.36846274501E+02 -0.91773740781E+01  0.37972122666E+02  0.51100000000E-03 0.  1.
         12    1    3    3    0    0  0.90706125005E+00 -0.39954352186E+02  0.17296624744E+02  0.43547057837E+02  0.00000000000E+00 0. -1.
</event>
<event>
 7    1  0.4008281E-015  0.9000778E+02  0.7816164E-02  0.1186339E+00
        -11   -1    0    0    0    0  0.00000000000E+00  0.00000000000E+00  0.45593999997E+02  0.45594000000E+02  0.51100000000E-03 0. -1.
         11   -1    0    0    0    0 -0.00000000000E+00 -0.00000000000E+00 -0.45593999997E+02  0.45594000000E+02  0.51100000000E-03 0.  1.
    9900012    2    1    2    0    0  0.27881294087E+00 -0.74349148597E+00 -0.87315350384E+00  0.90007782526E+02  0.90000044455E+02 0.  0.
         12    1    1    2    0    0 -0.27881294087E+00  0.74349148597E+00  0.87315350384E+00  0.11802174744E+01  0.00000000000E+00 0. -1.
         11    1    3    3    0    0  0.28733442064E+01 -0.39031175816E+02  0.15526551034E+01  0.39167582650E+02  0.51100000000E-03 0. -1.
        -11    1    3    3    0    0  0.34754954672E+01 -0.27540381486E+01 -0.78330585335E+01  0.90011444337E+01  0.51100000000E-03 0.  1.
        -12    1    3    3    0    0 -0.60700267327E+01  0.41041722478E+02  0.54072499262E+01  0.41839055442E+02  0.00000000000E+00 0.  1.
</event>
<event>
 7    1  0.4008281E-015  0.9000832E+02  0.7816164E-02  0.1186338E+00
        -11   -1    0    0    0    0  0.00000000000E+00  0.00000000000E+00  0.45593999997E+02  0.45594000000E+02  0.51100000000E-03 0.  1.
         11   -1    0    0    0    0 -0.00000000000E+00 -0.00000000000E+00 -0.45593999997E+02  0.45594000000E+02  0.51100000000E-03 0. -1.
    9900012    2    1    2    0    0 -0.83305966651E+00  0.64928797729E+00  0.52543923610E+00  0.90008317977E+02  0.90000586972E+02 0.  0.
         12    1    1    2    0    0  0.83305966651E+00 -0.64928797729E+00 -0.52543923610E+00  0.11796820234E+01  0.00000000000E+00 0. -1.
         11    1    3    3    0    0 -0.33340069799E+02  0.12724516349E+02 -0.12911058222E+02  0.37949558564E+02  0.51100000000E-03 0. -1.
        -11    1    3    3    0    0 -0.66094466277E+01 -0.15609866454E+01  0.90532803879E+01  0.11317391487E+02  0.51100000000E-03 0.  1.
        -12    1    3    3    0    0  0.39116456760E+02 -0.10514241726E+02  0.43832170699E+01  0.40741367926E+02  0.00000000000E+00 0.  1.
</event>
<event>
 7    1  0.4008281E-015  0.9000787E+02  0.7816164E-02  0.1186339E+00
        -11   -1    0    0    0    0  0.00000000000E+00  0.00000000000E+00  0.45593999997E+02  0.45594000000E+02  0.51100000000E-03 0. -1.
         11   -1    0    0    0    0 -0.00000000000E+00 -0.00000000000E+00 -0.45593999997E+02  0.45594000000E+02  0.51100000000E-03 0.  1.
    9900012    2    1    2    0    0 -0.63416872997E+00 -0.64824342312E+00 -0.75519465703E+00  0.90007869294E+02  0.90000132368E+02 0.  0.
         12    1    1    2    0    0  0.63416872997E+00  0.64824342312E+00  0.75519465703E+00  0.11801307062E+01  0.00000000000E+00 0. -1.
         11    1    3    3    0    0 -0.51615882029E+01  0.10644213409E+02  0.33131394078E+02  0.35179973645E+02  0.51100000000E-03 0. -1.
        -11    1    3    3    0    0  0.66296653767E+01  0.25323565058E+00  0.85365169531E+01  0.10811508371E+02  0.51100000000E-03 0.  1.
        -12    1    3    3    0    0 -0.21022459037E+01 -0.11545692483E+02 -0.42423105688E+02  0.44016387278E+02  0.00000000000E+00 0.  1.
</event>
<event>
 7    1  0.4008281E-015  0.9000774E+02  0.7816164E-02  0.1186339E+00
        -11   -1    0    0    0    0  0.00000000000E+00  0.00000000000E+00  0.45593999997E+02  0.45594000000E+02  0.51100000000E-03 0.  1.
         11   -1    0    0    0    0 -0.00000000000E+00 -0.00000000000E+00 -0.45593999997E+02  0.45594000000E+02  0.51100000000E-03 0. -1.
    9900012    2    1    2    0    0 -0.14230370227E+00 -0.33097262981E+00  0.11239342119E+01  0.90007736751E+02  0.89999998076E+02 0.  0.
         12    1    1    2    0    0  0.14230370227E+00  0.33097262981E+00 -0.11239342119E+01  0.11802632494E+01  0.00000000000E+00 0. -1.
         11    1    3    3    0    0  0.13920130208E+02  0.29310035694E+02  0.86604948419E+01  0.33583513642E+02  0.51100000000E-03 0. -1.
        -11    1    3    3    0    0 -0.36354206839E+01  0.95533316416E+01  0.80128765470E+01  0.12988018318E+02  0.51100000000E-03 0.  1.
        -12    1    3    3    0    0 -0.10427013226E+02 -0.39194339965E+02 -0.15549437177E+02  0.43436204791E+02  0.00000000000E+00 0.  1.
</event>
<event>
 7    1  0.4008281E-015  0.9000773E+02  0.7816164E-02  0.1186339E+00
        -11   -1    0    0    0    0  0.00000000000E+00  0.00000000000E+00  0.45593999997E+02  0.45594000000E+02  0.51100000000E-03 0. -1.
         11   -1    0    0    0    0 -0.00000000000E+00 -0.00000000000E+00 -0.45593999997E+02  0.45594000000E+02  0.51100000000E-03 0.  1.
    9900012    2    1    2    0    0  0.28069348200E-01 -0.77661124620E-01 -0.11773745926E+01  0.90007733051E+02  0.89999994328E+02 0.  0.
         12    1    1    2    0    0 -0.28069348200E-01  0.77661124620E-01  0.11773745926E+01  0.11802669485E+01  0.00000000000E+00 0. -1.
         11    1    3    3    0    0  0.52772843663E+01  0.76574732138E+01 -0.23443052472E+01  0.95907452086E+01  0.51100000000E-03 0. -1.
        -11    1    3    3    0    0  0.21730719356E+02 -0.35341916374E+02  0.41805432167E+01  0.41698347192E+02  0.51100000000E-03 0.  1.
         12    1    3    3    0    0 -0.26979934374E+02  0.27606782036E+02 -0.30136125621E+01  0.38718640651E+02  0.00000000000E+00 0. -1.
</event>
<event>
 7    1  0.4008281E-015  0.9000775E+02  0.7816164E-02  0.1186339E+00
        -11   -1    0    0    0    0  0.00000000000E+00  0.00000000000E+00  0.45593999997E+02  0.45594000000E+02  0.51100000000E-03 0.  1.
         11   -1    0    0    0    0 -0.00000000000E+00 -0.00000000000E+00 -0.45593999997E+02  0.45594000000E+02  0.51100000000E-03 0. -1.
    9900012    2    1    2    0    0  0.46546083275E+00 -0.96669171388E+00  0.49177111274E+00  0.90007751940E+02  0.90000013465E+02 0.  0.
         12    1    1    2    0    0 -0.46546083275E+00  0.96669171388E+00 -0.49177111274E+00  0.11802480603E+01  0.00000000000E+00 0. -1.
         11    1    3    3    0    0  0.11262762891E+02 -0.79873636355E+01 -0.36044048109E+02  0.38598202162E+02  0.51100000000E-03 0. -1.
        -11    1    3    3    0    0  0.70234203742E+01 -0.80609696673E+01  0.41111490137E+01  0.11454658974E+02  0.51100000000E-03 0.  1.
        -12    1    3    3    0    0 -0.17820722433E+02  0.15081641589E+02  0.32424670208E+02  0.39954890804E+02  0.00000000000E+00 0.  1.
</event>
<event>
 7    1  0.4008281E-015  0.9000776E+02  0.7816164E-02  0.1186339E+00
        -11   -1    0    0    0    0  0.00000000000E+00  0.00000000000E+00  0.45593999997E+02  0.45594000000E+02  0.51100000000E-03 0.  1.
         11   -1    0    0    0    0 -0.00000000000E+00 -0.00000000000E+00 -0.45593999997E+02  0.45594000000E+02  0.51100000000E-03 0. -1.
    9900012    2    1    2    0    0 -0.93930963414E+00 -0.20845218069E+00  0.68353365189E+00  0.90007757163E+02  0.90000018758E+02 0.  0.
         12    1    1    2    0    0  0.93930963414E+00  0.20845218069E+00 -0.68353365189E+00  0.11802428367E+01  0.00000000000E+00 0. -1.
         11    1    3    3    0    0 -0.19460797444E+01  0.17881103191E+02 -0.32698932111E+02  0.37319448538E+02  0.51100000000E-03 0. -1.
        -11    1    3    3    0    0  0.53395061592E+01 -0.43038531579E+01 -0.69991116954E+01  0.97990327489E+01  0.51100000000E-03 0.  1.
        -12    1    3    3    0    0 -0.43327360490E+01 -0.13785702213E+02  0.40381577458E+02  0.42889275877E+02  0.00000000000E+00 0.  1.
</event>
<event>
 7    1  0.4008281E-015  0.9000771E+02  0.7816164E-02  0.1186339E+00
        -11   -1    0    0    0    0  0.00000000000E+00  0.00000000000E+00  0.45593999997E+02  0.45594000000E+02  0.51100000000E-03 0. -1.
         11   -1    0    0    0    0 -0.00000000000E+00 -0.00000000000E+00 -0.45593999997E+02  0.45594000000E+02  0.51100000000E-03 0.  1.
    9900012    2    1    2    0    0  0.69443498756E+00 -0.87800195628E+00 -0.37411795427E+00  0.90007706972E+02  0.89999967904E+02 0.  0.
         12    1    1    2    0    0 -0.69443498756E+00  0.87800195628E+00  0.37411795427E+00  0.11802930276E+01  0.00000000000E+00 0. -1.
         11    1    3    3    0    0  0.79322416733E+00  0.10139444600E+02 -0.27174866717E+02  0.29015701314E+02  0.51100000000E-03 0. -1.
        -11    1    3    3    0    0 -0.11294538266E+02 -0.21070822198E+02 -0.62213319492E+01  0.24703261206E+02  0.51100000000E-03 0.  1.
         12    1    3    3    0    0  0.11195749086E+02  0.10053375642E+02  0.33022080712E+02  0.36288744453E+02  0.00000000000E+00 0. -1.
</event>
<event>
 7    1  0.4008281E-015  0.9000789E+02  0.7816164E-02  0.1186339E+00
        -11   -1    0    0    0    0  0.00000000000E+00  0.00000000000E+00  0.45593999997E+02  0.45594000000E+02  0.51100000000E-03 0.  1.
         11   -1    0    0    0    0 -0.00000000000E+00 -0.00000000000E+00 -0.45593999997E+02  0.45594000000E+02  0.51100000000E-03 0. -1.
    9900012    2    1    2    0    0  0.71039488469E+00 -0.89479635304E+00  0.29553363150E+00  0.90007889186E+02  0.90000152523E+02 0.  0.
         12    1    1    2    0    0 -0.71039488469E+00  0.89479635304E+00 -0.29553363150E+00  0.11801108138E+01  0.00000000000E+00 0. -1.
         11    1    3    3    0    0  0.40403563636E+02 -0.11640401398E+02  0.25949143230E+01  0.42126956688E+02  0.51100000000E-03 0. -1.
        -11    1    3    3    0    0 -0.22455909508E+01  0.88163449516E+01  0.38570259786E+01  0.98816631538E+01  0.51100000000E-03 0.  1.
        -12    1    3    3    0    0 -0.37447577800E+02  0.19292600936E+01 -0.61564066702E+01  0.37999269344E+02  0.00000000000E+00 0.  1.
</event>
<event>
 7    1  0.4008281E-015  0.9000794E+02  0.7816164E-02  0.1186339E+00
        -11   -1    0    0    0    0  0.00000000000E+00  0.00000000000E+00  0.45593999997E+02  0.45594000000E+02  0.51100000000E-03 0. -1.
         11   -1    0    0    0    0 -0.00000000000E+00 -0.00000000000E+00 -0.45593999997E+02  0.45594000000E+02  0.51100000000E-03 0.  1.
    9900012    2    1    2    0    0 -0.11543344875E+01 -0.13806271716E+00  0.20245241715E+00  0.90007942203E+02  0.90000206240E+02 0.  0.
         12    1    1    2    0    0  0.11543344875E+01  0.13806271716E+00 -0.20245241715E+00  0.11800577970E+01  0.00000000000E+00 0. -1.
         11    1    3    3    0    0 -0.56476159734E+01  0.53969800260E+01 -0.13056786511E+01  0.79200856425E+01  0.51100000000E-03 0. -1.
        -11    1    3    3    0    0 -0.16291684427E+02 -0.36183589591E+02 -0.13805073195E+02  0.42014892399E+02  0.51100000000E-03 0.  1.
         12    1    3    3    0    0  0.20784965913E+02  0.30648546848E+02  0.15313204263E+02  0.40072964161E+02  0.00000000000E+00 0. -1.
</event>
<event>
 7    1  0.4008281E-015  0.9000773E+02  0.7816164E-02  0.1186339E+00
        -11   -1    0    0    0    0  0.00000000000E+00  0.00000000000E+00  0.45593999997E+02  0.45594000000E+02  0.51100000000E-03 0. -1.
         11   -1    0    0    0    0 -0.00000000000E+00 -0.00000000000E+00 -0.45593999997E+02  0.45594000000E+02  0.51100000000E-03 0.  1.
    9900012    2    1    2    0    0  0.10841969222E+01 -0.30791523611E+00  0.35034210140E+00  0.90007731240E+02  0.89999992492E+02 0.  0.
         12    1    1    2    0    0 -0.10841969222E+01  0.30791523611E+00 -0.35034210140E+00  0.11802687604E+01  0.00000000000E+00 0. -1.
         11    1    3    3    0    0  0.31694635482E+00  0.36287758036E+01  0.77652238275E+01  0.85771306494E+01  0.51100000000E-03 0. -1.
        -11    1    3    3    0    0  0.19129147114E+02  0.22357720301E+01 -0.39503408577E+02  0.43948176701E+02  0.51100000000E-03 0.  1.
         12    1    3    3    0    0 -0.18361896546E+02 -0.61724630697E+01  0.32088526851E+02  0.37482423889E+02  0.00000000000E+00 0. -1.
</event>
<event>
 7    1  0.4008281E-015  0.9000770E+02  0.7816164E-02  0.1186339E+00
        -11   -1    0    0    0    0  0.00000000000E+00  0.00000000000E+00  0.45593999997E+02  0.45594000000E+02  0.51100000000E-03 0.  1.
         11   -1    0    0    0    0 -0.00000000000E+00 -0.00000000000E+00 -0.45593999997E+02  0.45594000000E+02  0.51100000000E-03 0. -1.
    9900012    2    1    2    0    0 -0.27951095820E+00  0.11044231574E+01  0.30858188062E+00  0.90007703570E+02  0.89999964457E+02 0.  0.
         12    1    1    2    0    0  0.27951095820E+00 -0.11044231574E+01 -0.30858188062E+00  0.11802964303E+01  0.00000000000E+00 0. -1.
         11    1    3    3    0    0 -0.23550481384E+02 -0.18880590510E+02  0.19199491008E+02  0.35773206827E+02  0.51100000000E-03 0. -1.
        -11    1    3    3    0    0 -0.10168666947E+02 -0.19653640537E+01 -0.96694399610E+00  0.10401895226E+02  0.51100000000E-03 0.  1.
        -12    1    3    3    0    0  0.33439637373E+02  0.21950377721E+02 -0.17923965132E+02  0.43832601517E+02  0.00000000000E+00 0.  1.
</event>
<event>
 7    1  0.4008281E-015  0.9000770E+02  0.7816164E-02  0.1186339E+00
        -11   -1    0    0    0    0  0.00000000000E+00  0.00000000000E+00  0.45593999997E+02  0.45594000000E+02  0.51100000000E-03 0.  1.
         11   -1    0    0    0    0 -0.00000000000E+00 -0.00000000000E+00 -0.45593999997E+02  0.45594000000E+02  0.51100000000E-03 0. -1.
    9900012    2    1    2    0    0  0.82879814596E+00  0.55597532363E+00  0.63015767723E+00  0.90007697655E+02  0.89999958464E+02 0.  0.
         12    1    1    2    0    0 -0.82879814596E+00 -0.55597532363E+00 -0.63015767723E+00  0.11803023449E+01  0.00000000000E+00 0. -1.
         11    1    3    3    0    0  0.18520502483E+02  0.26154444329E+01  0.12741756952E+02  0.22631878674E+02  0.51100000000E-03 0. -1.
        -11    1    3    3    0    0  0.25622534467E+01 -0.19523538587E+02  0.18297368992E+02  0.26879870052E+02  0.51100000000E-03 0.  1.
         12    1    3    3    0    0 -0.20253957784E+02  0.17464069478E+02 -0.30408968267E+02  0.40495948930E+02  0.00000000000E+00 0. -1.
</event>
<event>
 7    1  0.4008281E-015  0.9000772E+02  0.7816164E-02  0.1186339E+00
        -11   -1    0    0    0    0  0.00000000000E+00  0.00000000000E+00  0.45593999997E+02  0.45594000000E+02  0.51100000000E-03 0.  1.
         11   -1    0    0    0    0 -0.00000000000E+00 -0.00000000000E+00 -0.45593999997E+02  0.45594000000E+02  0.51100000000E-03 0. -1.
    9900012    2    1    2    0    0  0.93052895217E+00  0.60098599411E+00  0.40740755888E+00  0.90007724941E+02  0.89999986110E+02 0.  0.
         12    1    1    2    0    0 -0.93052895217E+00 -0.60098599411E+00 -0.40740755888E+00  0.11802750590E+01  0.00000000000E+00 0. -1.
         11    1    3    3    0    0  0.90181236450E+01  0.24009258875E+01 -0.65259393322E+01  0.11387663660E+02  0.51100000000E-03 0. -1.
        -11    1    3    3    0    0 -0.15668644365E+02  0.18264945023E+02  0.35505743098E+02  0.42892568425E+02  0.51100000000E-03 0.  1.
         12    1    3    3    0    0  0.75810496722E+01 -0.20064884916E+02 -0.28572396207E+02  0.35727492856E+02  0.00000000000E+00 0. -1.
</event>
<event>
 7    1  0.4008281E-015  0.9000779E+02  0.7816164E-02  0.1186339E+00
        -11   -1    0    0    0    0  0.00000000000E+00  0.00000000000E+00  0.45593999997E+02  0.45594000000E+02  0.51100000000E-03 0. -1.
         11   -1    0    0    0    0 -0.00000000000E+00 -0.00000000000E+00 -0.45593999997E+02  0.45594000000E+02  0.51100000000E-03 0.  1.
    9900012    2    1    2    0    0  0.53315463028E-01 -0.11780179158E+01  0.48261476520E-01  0.90007789036E+02  0.90000051052E+02 0.  0.
         12    1    1    2    0    0 -0.53315463028E-01  0.11780179158E+01 -0.48261476520E-01  0.11802109636E+01  0.00000000000E+00 0. -1.
         11    1    3    3    0    0 -0.55139917737E+01  0.45201580093E+00 -0.70174379246E+01  0.89360426840E+01  0.51100000000E-03 0. -1.
        -11    1    3    3    0    0  0.24838954006E+02  0.78670541815E+01 -0.29066256947E+02  0.39034746967E+02  0.51100000000E-03 0.  1.
         12    1    3    3    0    0 -0.19271646770E+02 -0.94970878983E+01  0.36131956348E+02  0.42036999385E+02  0.00000000000E+00 0. -1.
</event>
<event>
 7    1  0.4008281E-015  0.9000765E+02  0.7816164E-02  0.1186339E+00
        -11   -1    0    0    0    0  0.00000000000E+00  0.00000000000E+00  0.45593999997E+02  0.45594000000E+02  0.51100000000E-03 0. -1.
         11   -1    0    0    0    0 -0.00000000000E+00 -0.00000000000E+00 -0.45593999997E+02  0.45594000000E+02  0.51100000000E-03 0.  1.
    9900012    2    1    2    0    0  0.90032303219E+00  0.37488643574E+00 -0.66490342881E+00  0.90007653453E+02  0.89999913678E+02 0.  0.
         12    1    1    2    0    0 -0.90032303219E+00 -0.37488643574E+00  0.66490342881E+00  0.11803465473E+01  0.00000000000E+00 0. -1.
         11    1    3    3    0    0  0.21408912964E+02  0.27000508051E+02  0.11021689166E+02  0.36177985318E+02  0.51100000000E-03 0. -1.
        -11    1    3    3    0    0  0.27875630407E+01  0.78896635319E+01  0.40723294191E+01  0.93059747212E+01  0.51100000000E-03 0.  1.
        -12    1    3    3    0    0 -0.23296152973E+02 -0.34515285148E+02 -0.15758922014E+02  0.44523693414E+02  0.00000000000E+00 0.  1.
</event>
<event>
 7    1  0.4008281E-015  0.9000832E+02  0.7816164E-02  0.1186338E+00
        -11   -1    0    0    0    0  0.00000000000E+00  0.00000000000E+00  0.45593999997E+02  0.45594000000E+02  0.51100000000E-03 0. -1.
         11   -1    0    0    0    0 -0.00000000000E+00 -0.00000000000E+00 -0.45593999997E+02  0.45594000000E+02  0.51100000000E-03 0.  1.
    9900012    2    1    2    0    0 -0.32123893370E+00 -0.70217005474E+00 -0.89185919900E+00  0.90008317810E+02  0.90000586803E+02 0.  0.
         12    1    1    2    0    0  0.32123893370E+00  0.70217005474E+00  0.89185919900E+00  0.11796821899E+01  0.00000000000E+00 0. -1.
         11    1    3    3    0    0  0.55649423342E+01 -0.83862560610E+01  0.24610811168E+00  0.10067693051E+02  0.51100000000E-03 0. -1.
        -11    1    3    3    0    0  0.32111791775E+02  0.59008199621E+01 -0.19150824319E+02  0.37851564295E+02  0.51100000000E-03 0.  1.
         12    1    3    3    0    0 -0.37997973043E+02  0.17832660441E+01  0.18012857008E+02  0.42089060464E+02  0.00000000000E+00 0. -1.
</event>
<event>
 7    1  0.4008281E-015  0.9000773E+02  0.7816164E-02  0.1186339E+00
        -11   -1    0    0    0    0  0.00000000000E+00  0.00000000000E+00  0.45593999997E+02  0.45594000000E+02  0.51100000000E-03 0.  1.
         11   -1    0    0    0    0 -0.00000000000E+00 -0.00000000000E+00 -0.45593999997E+02  0.45594000000E+02  0.51100000000E-03 0. -1.
    9900012    2    1    2    0    0 -0.40192393363E+00  0.66614237681E+00  0.88755400764E+00  0.90007728577E+02  0.89999989795E+02 0.  0.
         12    1    1    2    0    0  0.40192393363E+00 -0.66614237681E+00 -0.88755400764E+00  0.11802714226E+01  0.00000000000E+00 0. -1.
         11    1    3    3    0    0  0.78640854970E+00  0.88009589535E+01  0.17221037687E+01  0.90022751879E+01  0.51100000000E-03 0. -1.
        -11    1    3    3    0    0 -0.37614388123E+02 -0.41522055710E+01 -0.16336067745E+02  0.41218322559E+02  0.51100000000E-03 0.  1.
         12    1    3    3    0    0  0.36426055640E+02 -0.39826110057E+01  0.15501517984E+02  0.39787130830E+02  0.00000000000E+00 0. -1.
</event>
<event>
 7    1  0.4008281E-015  0.9000776E+02  0.7816164E-02  0.1186339E+00
        -11   -1    0    0    0    0  0.00000000000E+00  0.00000000000E+00  0.45593999997E+02  0.45594000000E+02  0.51100000000E-03 0.  1.
         11   -1    0    0    0    0 -0.00000000000E+00 -0.00000000000E+00 -0.45593999997E+02  0.45594000000E+02  0.51100000000E-03 0. -1.
    9900012    2    1    2    0    0 -0.10773762062E+01  0.43272983951E+00 -0.21205855128E+00  0.90007761281E+02  0.90000022930E+02 0.  0.
         12    1    1    2    0    0  0.10773762062E+01 -0.43272983951E+00  0.21205855128E+00  0.11802387185E+01  0.00000000000E+00 0. -1.
         11    1    3    3    0    0 -0.81018519745E+01  0.18150861580E+01  0.30155257174E+01  0.88333424472E+01  0.51100000000E-03 0. -1.
        -11    1    3    3    0    0 -0.28401628488E+02 -0.23271427747E+02  0.89390732963E+01  0.37790460196E+02  0.51100000000E-03 0.  1.
         12    1    3    3    0    0  0.35426104257E+02  0.21889071428E+02 -0.12166657565E+02  0.43383958638E+02  0.00000000000E+00 0. -1.
</event>
<event>
 7    1  0.4008281E-015  0.9000771E+02  0.7816164E-02  0.1186339E+00
        -11   -1    0    0    0    0  0.00000000000E+00  0.00000000000E+00  0.45593999997E+02  0.45594000000E+02  0.51100000000E-03 0.  1.
         11   -1    0    0    0    0 -0.00000000000E+00 -0.00000000000E+00 -0.45593999997E+02  0.45594000000E+02  0.51100000000E-03 0. -1.
    9900012    2    1    2    0    0  0.70049102223E+00 -0.21835727212E+00 -0.92450911024E+00  0.90007709923E+02  0.89999970894E+02 0.  0.
         12    1    1    2    0    0 -0.70049102223E+00  0.21835727212E+00  0.92450911024E+00  0.11802900768E+01  0.00000000000E+00 0. -1.
         11    1    3    3    0    0 -0.41411644647E+02 -0.26246075539E+01 -0.68761451185E+01  0.42060602102E+02  0.51100000000E-03 0. -1.
        -11    1    3    3    0    0  0.58171173010E+01 -0.50981446512E+01 -0.51080923760E+01  0.92694412216E+01  0.51100000000E-03 0.  1.
        -12    1    3    3    0    0  0.36295018368E+02  0.75043949329E+01  0.11059728384E+02  0.38677666600E+02  0.00000000000E+00 0.  1.
</event>
<event>
 7    1  0.4008281E-015  0.9000798E+02  0.7816164E-02  0.1186339E+00
        -11   -1    0    0    0    0  0.00000000000E+00  0.00000000000E+00  0.45593999997E+02  0.45594000000E+02  0.51100000000E-03 0.  1.
         11   -1    0    0    0    0 -0.00000000000E+00 -0.00000000000E+00 -0.45593999997E+02  0.45594000000E+02  0.51100000000E-03 0. -1.
    9900012    2    1    2    0    0  0.20883568258E+00  0.45866597572E+00  0.10669907073E+01  0.90007976276E+02  0.90000240763E+02 0.  0.
         12    1    1    2    0    0 -0.20883568258E+00 -0.45866597572E+00 -0.10669907073E+01  0.11800237239E+01  0.00000000000E+00 0. -1.
         11    1    3    3    0    0 -0.55463620123E+01  0.78965025915E+01  0.36624773867E+01  0.10321367430E+02  0.51100000000E-03 0. -1.
        -11    1    3    3    0    0  0.14079645751E+02 -0.37333564702E+02  0.16579117936E+02  0.43207622356E+02  0.51100000000E-03 0.  1.
         12    1    3    3    0    0 -0.83244480562E+01  0.29895728086E+02 -0.19174604615E+02  0.36478986491E+02  0.00000000000E+00 0. -1.
</event>
<event>
 7    1  0.4008281E-015  0.9000772E+02  0.7816164E-02  0.1186339E+00
        -11   -1    0    0    0    0  0.00000000000E+00  0.00000000000E+00  0.45593999997E+02  0.45594000000E+02  0.51100000000E-03 0.  1.
         11   -1    0    0    0    0 -0.00000000000E+00 -0.00000000000E+00 -0.45593999997E+02  0.45594000000E+02  0.51100000000E-03 0. -1.
    9900012    2    1    2    0    0  0.77025301925E+00  0.84228421320E+00 -0.30056515820E+00  0.90007715363E+02  0.89999976406E+02 0.  0.
         12    1    1    2    0    0 -0.77025301925E+00 -0.84228421320E+00  0.30056515820E+00  0.11802846368E+01  0.00000000000E+00 0. -1.
         11    1    3    3    0    0 -0.22221525919E+01 -0.66560391351E+01  0.41158765788E+01  0.81351864996E+01  0.51100000000E-03 0. -1.
        -11    1    3    3    0    0 -0.58532202346E+01 -0.73483016136E+01  0.36376377885E+02  0.37569916050E+02  0.51100000000E-03 0.  1.
         12    1    3    3    0    0  0.88456258458E+01  0.14846624962E+02 -0.40792819622E+02  0.44302612813E+02  0.00000000000E+00 0. -1.
</event>
<event>
 7    1  0.4008281E-015  0.9000784E+02  0.7816164E-02  0.1186339E+00
        -11   -1    0    0    0    0  0.00000000000E+00  0.00000000000E+00  0.45593999997E+02  0.45594000000E+02  0.51100000000E-03 0.  1.
         11   -1    0    0    0    0 -0.00000000000E+00 -0.00000000000E+00 -0.45593999997E+02  0.45594000000E+02  0.51100000000E-03 0. -1.
    9900012    2    1    2    0    0 -0.62301002183E+00  0.76783453427E+00  0.64424827572E+00  0.90007844417E+02  0.90000107163E+02 0.  0.
         12    1    1    2    0    0  0.62301002183E+00 -0.76783453427E+00 -0.64424827572E+00  0.11801555830E+01  0.00000000000E+00 0. -1.
         11    1    3    3    0    0 -0.10593688663E+02  0.27870555955E+02  0.19834149719E+02  0.35810440155E+02  0.51100000000E-03 0. -1.
        -11    1    3    3    0    0 -0.25586727773E+01 -0.15026354921E+02  0.11379570855E+02  0.19021902683E+02  0.51100000000E-03 0.  1.
        -12    1    3    3    0    0  0.12529351418E+02 -0.12076366500E+02 -0.30569472298E+02  0.35175501579E+02  0.00000000000E+00 0.  1.
</event>
<event>
 7    1  0.8886376E-015  0.9000770E+02  0.7816164E-02  0.1186339E+00
        -11   -1    0    0    0    0  0.00000000000E+00  0.00000000000E+00  0.45593999997E+02  0.45594000000E+02  0.51100000000E-03 0.  1.
         11   -1    0    0    0    0 -0.00000000000E+00 -0.00000000000E+00 -0.45593999997E+02  0.45594000000E+02  0.51100000000E-03 0. -1.
    9900012    2    1    2    0    0  0.59357366221E+00 -0.70747633376E+00  0.73501565926E+00  0.90007703226E+02  0.89999964109E+02 0.  0.
         12    1    1    2    0    0 -0.59357366221E+00  0.70747633376E+00 -0.73501565926E+00  0.11802967740E+01  0.00000000000E+00 0. -1.
         11    1    3    3    0    0 -0.41597888000E+01 -0.77266129762E+01 -0.31893166304E+01  0.93368159334E+01  0.51100000000E-03 0. -1.
        -11    1    3    3    0    0 -0.88320904326E+01  0.69302274139E+01  0.40303420276E+02  0.41837776705E+02  0.51100000000E-03 0.  1.
         12    1    3    3    0    0  0.13585452895E+02  0.88909228557E-01 -0.36379087986E+02  0.38833110588E+02  0.00000000000E+00 0. -1.
</event>
<event>
 7    1  0.4008281E-015  0.9000759E+02  0.7816164E-02  0.1186339E+00
        -11   -1    0    0    0    0  0.00000000000E+00  0.00000000000E+00  0.45593999997E+02  0.45594000000E+02  0.51100000000E-03 0. -1.
         11   -1    0    0    0    0 -0.00000000000E+00 -0.00000000000E+00 -0.45593999997E+02  0.45594000000E+02  0.51100000000E-03 0.  1.
    9900012    2    1    2    0    0  0.53557684773E+00  0.10500172379E+01 -0.63088516150E-01  0.90007593748E+02  0.89999853185E+02 0.  0.
         12    1    1    2    0    0 -0.53557684773E+00 -0.10500172379E+01  0.63088516150E-01  0.11804062523E+01  0.00000000000E+00 0. -1.
         11    1    3    3    0    0 -0.39103311902E+02  0.89316475325E+01  0.11904034800E+02  0.41839567089E+02  0.51100000000E-03 0. -1.
        -11    1    3    3    0    0  0.90643532978E+01  0.20793520471E+01  0.62550115321E+01  0.11207648066E+02  0.51100000000E-03 0.  1.
        -12    1    3    3    0    0  0.30574535452E+02 -0.99609823416E+01 -0.18222134848E+02  0.36960378593E+02  0.00000000000E+00 0.  1.
</event>
<event>
 7    1  0.4008281E-015  0.9000761E+02  0.7816164E-02  0.1186339E+00
        -11   -1    0    0    0    0  0.00000000000E+00  0.00000000000E+00  0.45593999997E+02  0.45594000000E+02  0.51100000000E-03 0. -1.
         11   -1    0    0    0    0 -0.00000000000E+00 -0.00000000000E+00 -0.45593999997E+02  0.45594000000E+02  0.51100000000E-03 0.  1.
    9900012    2    1    2    0    0  0.43564215988E+00 -0.40279548822E-02 -0.10970528788E+01  0.90007607974E+02  0.89999867599E+02 0.  0.
         12    1    1    2    0    0 -0.43564215988E+00  0.40279548822E-02  0.10970528788E+01  0.11803920259E+01  0.00000000000E+00 0. -1.
         11    1    3    3    0    0 -0.28084996243E+02 -0.73634548908E+01  0.21052865759E+02  0.35863778926E+02  0.51100000000E-03 0. -1.
        -11    1    3    3    0    0 -0.11650043526E+01  0.75990815752E+01  0.85089560786E+01  0.11467589535E+02  0.51100000000E-03 0.  1.
        -12    1    3    3    0    0  0.29685642756E+02 -0.23965463928E+00 -0.30658874716E+02  0.42676239514E+02  0.00000000000E+00 0.  1.
</event>
<event>
 7    1  0.4008281E-015  0.9000777E+02  0.7816164E-02  0.1186339E+00
        -11   -1    0    0    0    0  0.00000000000E+00  0.00000000000E+00  0.45593999997E+02  0.45594000000E+02  0.51100000000E-03 0.  1.
         11   -1    0    0    0    0 -0.00000000000E+00 -0.00000000000E+00 -0.45593999997E+02  0.45594000000E+02  0.51100000000E-03 0. -1.
    9900012    2    1    2    0    0 -0.49462621093E+00  0.57275119892E+00  0.90567797658E+00  0.90007766285E+02  0.90000028000E+02 0.  0.
         12    1    1    2    0    0  0.49462621093E+00 -0.57275119892E+00 -0.90567797658E+00  0.11802337148E+01  0.00000000000E+00 0. -1.
         11    1    3    3    0    0 -0.53345373936E+01 -0.95226188108E+00 -0.73993489849E+01  0.91713934358E+01  0.51100000000E-03 0. -1.
        -11    1    3    3    0    0 -0.21638572187E+02  0.41227394919E+01  0.36144576395E+02  0.42327948099E+02  0.51100000000E-03 0.  1.
         12    1    3    3    0    0  0.26478483370E+02 -0.25977264119E+01 -0.27839549434E+02  0.38508424750E+02  0.00000000000E+00 0. -1.
</event>
<event>
 7    1  0.4008281E-015  0.9000747E+02  0.7816164E-02  0.1186340E+00
        -11   -1    0    0    0    0  0.00000000000E+00  0.00000000000E+00  0.45593999997E+02  0.45594000000E+02  0.51100000000E-03 0. -1.
         11   -1    0    0    0    0 -0.00000000000E+00 -0.00000000000E+00 -0.45593999997E+02  0.45594000000E+02  0.51100000000E-03 0.  1.
    9900012    2    1    2    0    0 -0.97370880346E+00 -0.32010235212E+00 -0.58572593930E+00  0.90007470786E+02  0.89999728600E+02 0.  0.
         12    1    1    2    0    0  0.97370880346E+00  0.32010235212E+00  0.58572593930E+00  0.11805292143E+01  0.00000000000E+00 0. -1.
         11    1    3    3    0    0 -0.47647367698E+01  0.35943879510E+02  0.66495571076E+01  0.36863013994E+02  0.51100000000E-03 0. -1.
        -11    1    3    3    0    0 -0.75578534966E+01  0.31497989123E+01  0.58832584312E+01  0.10082416015E+02  0.51100000000E-03 0.  1.
        -12    1    3    3    0    0  0.11348881463E+02 -0.39413780774E+02 -0.13118541478E+02  0.43062040777E+02  0.00000000000E+00 0.  1.
</event>
<event>
 7    1  0.4008281E-015  0.9000785E+02  0.7816164E-02  0.1186339E+00
        -11   -1    0    0    0    0  0.00000000000E+00  0.00000000000E+00  0.45593999997E+02  0.45594000000E+02  0.51100000000E-03 0.  1.
         11   -1    0    0    0    0 -0.00000000000E+00 -0.00000000000E+00 -0.45593999997E+02  0.45594000000E+02  0.51100000000E-03 0. -1.
    9900012    2    1    2    0    0 -0.65036671599E+00 -0.98109713894E+00  0.85034007370E-01  0.90007847788E+02  0.90000110579E+02 0.  0.
         12    1    1    2    0    0  0.65036671599E+00  0.98109713894E+00 -0.85034007370E-01  0.11801522121E+01  0.00000000000E+00 0. -1.
         11    1    3    3    0    0  0.40940090920E+01 -0.10060146338E+02 -0.25193684720E+01  0.11149648988E+02  0.51100000000E-03 0. -1.
        -11    1    3    3    0    0  0.21639784475E+02 -0.26686475227E+02  0.41940190354E+00  0.34360211443E+02  0.51100000000E-03 0.  1.
         12    1    3    3    0    0 -0.26384160283E+02  0.35765524426E+02  0.21850005758E+01  0.44497987357E+02  0.00000000000E+00 0. -1.
</event>
<event>
 7    1  0.4008281E-015  0.9000778E+02  0.7816164E-02  0.1186339E+00
        -11   -1    0    0    0    0  0.00000000000E+00  0.00000000000E+00  0.45593999997E+02  0.45594000000E+02  0.51100000000E-03 0.  1.
         11   -1    0    0    0    0 -0.00000000000E+00 -0.00000000000E+00 -0.45593999997E+02  0.45594000000E+02  0.51100000000E-03 0. -1.
    9900012    2    1    2    0    0  0.84854889756E+00  0.17855396524E+00  0.80062581698E+00  0.90007780339E+02  0.90000042239E+02 0.  0.
         12    1    1    2    0    0 -0.84854889756E+00 -0.17855396524E+00 -0.80062581698E+00  0.11802196613E+01  0.00000000000E+00 0. -1.
         11    1    3    3    0    0  0.31433903857E+02 -0.39596236884E+01 -0.28651097262E+02  0.42715972493E+02  0.51100000000E-03 0. -1.
        -11    1    3    3    0    0 -0.47512454806E+01  0.82844489156E+01  0.28205366596E+01  0.99580045572E+01  0.51100000000E-03 0.  1.
        -12    1    3    3    0    0 -0.25834109478E+02 -0.41462712620E+01  0.26631186419E+02  0.37333803289E+02  0.00000000000E+00 0.  1.
</event>
<event>
 7    1  0.4008281E-015  0.9000778E+02  0.7816164E-02  0.1186339E+00
        -11   -1    0    0    0    0  0.00000000000E+00  0.00000000000E+00  0.45593999997E+02  0.45594000000E+02  0.51100000000E-03 0.  1.
         11   -1    0    0    0    0 -0.00000000000E+00 -0.00000000000E+00 -0.45593999997E+02  0.45594000000E+02  0.51100000000E-03 0. -1.
    9900012    2    1    2    0    0 -0.23881717706E-03  0.10347865106E+01  0.56757877474E+00  0.90007775934E+02  0.90000037777E+02 0.  0.
         12    1    1    2    0    0  0.23881717706E-03 -0.10347865106E+01 -0.56757877474E+00  0.11802240656E+01  0.00000000000E+00 0. -1.
         11    1    3    3    0    0  0.10497298717E+01  0.84542154252E+01  0.71326015309E+00  0.85489433012E+01  0.51100000000E-03 0. -1.
        -11    1    3    3    0    0  0.36435144259E+02 -0.39203304629E+01  0.16629980835E+02  0.40242328349E+02  0.51100000000E-03 0.  1.
         12    1    3    3    0    0 -0.37485112948E+02 -0.34990984518E+01 -0.16775662214E+02  0.41216504284E+02  0.00000000000E+00 0. -1.
</event>
<event>
 7    1  0.4008281E-015  0.9000772E+02  0.7816164E-02  0.1186339E+00
        -11   -1    0    0    0    0  0.00000000000E+00  0.00000000000E+00  0.45593999997E+02  0.45594000000E+02  0.51100000000E-03 0.  1.
         11   -1    0    0    0    0 -0.00000000000E+00 -0.00000000000E+00 -0.45593999997E+02  0.45594000000E+02  0.51100000000E-03 0. -1.
    9900012    2    1    2    0    0  0.85890581127E+00  0.78955583673E+00  0.17870046946E+00  0.90007723986E+02  0.89999985142E+02 0.  0.
         12    1    1    2    0    0 -0.85890581127E+00 -0.78955583673E+00 -0.17870046946E+00  0.11802760142E+01  0.00000000000E+00 0. -1.
         11    1    3    3    0    0  0.97333326542E+01 -0.34834997624E+01  0.11057557632E+01  0.10396885650E+02  0.51100000000E-03 0. -1.
        -11    1    3    3    0    0 -0.24993354797E+02 -0.29245339358E+02  0.11899353673E+02  0.40268502285E+02  0.51100000000E-03 0.  1.
         12    1    3    3    0    0  0.16118927954E+02  0.33518394958E+02 -0.12826408967E+02  0.39342336050E+02  0.00000000000E+00 0. -1.
</event>
<event>
 7    1  0.4008281E-015  0.9000776E+02  0.7816164E-02  0.1186339E+00
        -11   -1    0    0    0    0  0.00000000000E+00  0.00000000000E+00  0.45593999997E+02  0.45594000000E+02  0.51100000000E-03 0.  1.
         11   -1    0    0    0    0 -0.00000000000E+00 -0.00000000000E+00 -0.45593999997E+02  0.45594000000E+02  0.51100000000E-03 0. -1.
    9900012    2    1    2    0    0  0.97260435295E+00 -0.58085374826E+00  0.33107571385E+00  0.90007762129E+02  0.90000023789E+02 0.  0.
         12    1    1    2    0    0 -0.97260435295E+00  0.58085374826E+00 -0.33107571385E+00  0.11802378712E+01  0.00000000000E+00 0. -1.
         11    1    3    3    0    0 -0.15989483278E+01  0.33547761117E+01  0.92838470378E+01  0.10000048730E+02  0.51100000000E-03 0. -1.
        -11    1    3    3    0    0  0.11087034214E+02 -0.25754207883E+02  0.25797488189E+02  0.38101337883E+02  0.51100000000E-03 0.  1.
         12    1    3    3    0    0 -0.85154815335E+01  0.21818578023E+02 -0.34750259513E+02  0.41906375516E+02  0.00000000000E+00 0. -1.
</event>
<event>
 7    1  0.4008281E-015  0.9000765E+02  0.7816164E-02  0.1186339E+00
        -11   -1    0    0    0    0  0.00000000000E+00  0.00000000000E+00  0.45593999997E+02  0.45594000000E+02  0.51100000000E-03 0.  1.
         11   -1    0    0    0    0 -0.00000000000E+00 -0.00000000000E+00 -0.45593999997E+02  0.45594000000E+02  0.51100000000E-03 0. -1.
    9900012    2    1    2    0    0 -0.72882736982E+00  0.92843038810E+00  0.65593599169E-02  0.90007654565E+02  0.89999914805E+02 0.  0.
         12    1    1    2    0    0  0.72882736982E+00 -0.92843038810E+00 -0.65593599169E-02  0.11803454349E+01  0.00000000000E+00 0. -1.
         11    1    3    3    0    0  0.28317778091E+02  0.17089959052E+02 -0.26068632466E+02  0.42113380953E+02  0.51100000000E-03 0. -1.
        -11    1    3    3    0    0 -0.42204335562E+01 -0.69639716792E+01 -0.29010362662E+01  0.86443607416E+01  0.51100000000E-03 0.  1.
        -12    1    3    3    0    0 -0.24826171904E+02 -0.91975569846E+01  0.28976228092E+02  0.39249912871E+02  0.00000000000E+00 0.  1.
</event>
<event>
 7    1  0.4008281E-015  0.9000776E+02  0.7816164E-02  0.1186339E+00
        -11   -1    0    0    0    0  0.00000000000E+00  0.00000000000E+00  0.45593999997E+02  0.45594000000E+02  0.51100000000E-03 0.  1.
         11   -1    0    0    0    0 -0.00000000000E+00 -0.00000000000E+00 -0.45593999997E+02  0.45594000000E+02  0.51100000000E-03 0. -1.
    9900012    2    1    2    0    0 -0.32826013234E+00  0.11291985886E+01  0.10058209168E+00  0.90007762344E+02  0.90000024007E+02 0.  0.
         12    1    1    2    0    0  0.32826013234E+00 -0.11291985886E+01 -0.10058209168E+00  0.11802376558E+01  0.00000000000E+00 0. -1.
         11    1    3    3    0    0 -0.13205579238E+02  0.11747501093E+02 -0.37447230837E+02  0.41408769633E+02  0.51100000000E-03 0. -1.
        -11    1    3    3    0    0  0.83949864421E+01 -0.33033917672E+01 -0.10287479575E+01  0.90800064511E+01  0.51100000000E-03 0.  1.
        -12    1    3    3    0    0  0.44823326632E+01 -0.73149107373E+01  0.38576560886E+02  0.39518986260E+02  0.00000000000E+00 0.  1.
</event>
<event>
 7    1  0.4008281E-015  0.9000776E+02  0.7816164E-02  0.1186339E+00
        -11   -1    0    0    0    0  0.00000000000E+00  0.00000000000E+00  0.45593999997E+02  0.45594000000E+02  0.51100000000E-03 0. -1.
         11   -1    0    0    0    0 -0.00000000000E+00 -0.00000000000E+00 -0.45593999997E+02  0.45594000000E+02  0.51100000000E-03 0.  1.
    9900012    2    1    2    0    0 -0.32022272895E-02 -0.90361941142E+00 -0.75922849761E+00  0.90007760106E+02  0.90000021740E+02 0.  0.
         12    1    1    2    0    0  0.32022272895E-02  0.90361941142E+00  0.75922849761E+00  0.11802398936E+01  0.00000000000E+00 0. -1.
         11    1    3    3    0    0 -0.92792502600E+00 -0.71758150898E+01 -0.62576872212E+01  0.95661913360E+01  0.51100000000E-03 0. -1.
        -11    1    3    3    0    0  0.15249008516E+02 -0.32935787760E+02 -0.67973170397E+01  0.36925626539E+02  0.51100000000E-03 0.  1.
         12    1    3    3    0    0 -0.14324285718E+02  0.39207983439E+02  0.12295775763E+02  0.43515942231E+02  0.00000000000E+00 0. -1.
</event>
<event>
 7    1  0.4008281E-015  0.9000769E+02  0.7816164E-02  0.1186339E+00
        -11   -1    0    0    0    0  0.00000000000E+00  0.00000000000E+00  0.45593999997E+02  0.45594000000E+02  0.51100000000E-03 0.  1.
         11   -1    0    0    0    0 -0.00000000000E+00 -0.00000000000E+00 -0.45593999997E+02  0.45594000000E+02  0.51100000000E-03 0. -1.
    9900012    2    1    2    0    0  0.41256082635E+00  0.36822447658E-01  0.11052498282E+01  0.90007686690E+02  0.89999947354E+02 0.  0.
         12    1    1    2    0    0 -0.41256082635E+00 -0.36822447658E-01 -0.11052498282E+01  0.11803133105E+01  0.00000000000E+00 0. -1.
         11    1    3    3    0    0 -0.34308561825E+01  0.62430185630E+01 -0.53911072269E+01  0.89336494399E+01  0.51100000000E-03 0. -1.
        -11    1    3    3    0    0  0.13085514815E+02  0.57685285151E+01  0.40988098041E+02  0.43411182896E+02  0.51100000000E-03 0.  1.
         12    1    3    3    0    0 -0.92420978062E+01 -0.11974724630E+02 -0.34491740986E+02  0.37662854353E+02  0.00000000000E+00 0. -1.
</event>
<event>
 7    1  0.4008281E-015  0.9000772E+02  0.7816164E-02  0.1186339E+00
        -11   -1    0    0    0    0  0.00000000000E+00  0.00000000000E+00  0.45593999997E+02  0.45594000000E+02  0.51100000000E-03 0.  1.
         11   -1    0    0    0    0 -0.00000000000E+00 -0.00000000000E+00 -0.45593999997E+02  0.45594000000E+02  0.51100000000E-03 0. -1.
    9900012    2    1    2    0    0 -0.57491892405E+00  0.71562445830E+00  0.74189186451E+00  0.90007723052E+02  0.89999984197E+02 0.  0.
         12    1    1    2    0    0  0.57491892405E+00 -0.71562445830E+00 -0.74189186451E+00  0.11802769477E+01  0.00000000000E+00 0. -1.
         11    1    3    3    0    0  0.65614605668E+01 -0.22553500885E+01  0.68447793329E+01  0.97463004862E+01  0.51100000000E-03 0. -1.
        -11    1    3    3    0    0  0.12392658804E+02 -0.32652097068E+02  0.10357823063E+02  0.36428312259E+02  0.51100000000E-03 0.  1.
         12    1    3    3    0    0 -0.19529038295E+02  0.35623071615E+02 -0.16460710531E+02  0.43833110307E+02  0.00000000000E+00 0. -1.
</event>
<event>
 7    1  0.4008281E-015  0.9000763E+02  0.7816164E-02  0.1186339E+00
        -11   -1    0    0    0    0  0.00000000000E+00  0.00000000000E+00  0.45593999997E+02  0.45594000000E+02  0.51100000000E-03 0.  1.
         11   -1    0    0    0    0 -0.00000000000E+00 -0.00000000000E+00 -0.45593999997E+02  0.45594000000E+02  0.51100000000E-03 0. -1.
    9900012    2    1    2    0    0 -0.26472358202E+00 -0.23842248807E+00  0.11253224004E+01  0.90007629566E+02  0.89999889476E+02 0.  0.
         12    1    1    2    0    0  0.26472358202E+00  0.23842248807E+00 -0.11253224004E+01  0.11803704344E+01  0.00000000000E+00 0. -1.
         11    1    3    3    0    0  0.17115150635E+01  0.11091855396E+02 -0.13585854230E+01  0.11305056150E+02  0.51100000000E-03 0. -1.
        -11    1    3    3    0    0 -0.36404152547E+02 -0.10114899794E+02  0.16859479351E+02  0.41374092918E+02  0.51100000000E-03 0.  1.
         12    1    3    3    0    0  0.34427913901E+02 -0.12153780906E+01 -0.14375571528E+02  0.37328480498E+02  0.00000000000E+00 0. -1.
</event>
<event>
 7    1  0.4176377E-015  0.9000789E+02  0.7816164E-02  0.1186339E+00
        -11   -1    0    0    0    0  0.00000000000E+00  0.00000000000E+00  0.45593999997E+02  0.45594000000E+02  0.51100000000E-03 0.  1.
         11   -1    0    0    0    0 -0.00000000000E+00 -0.00000000000E+00 -0.45593999997E+02  0.45594000000E+02  0.51100000000E-03 0. -1.
    9900012    2    1    2    0    0  0.63903959583E-01  0.59888751195E+00  0.10148415670E+01  0.90007892643E+02  0.90000156026E+02 0.  0.
         12    1    1    2    0    0 -0.63903959583E-01 -0.59888751195E+00 -0.10148415670E+01  0.11801073571E+01  0.00000000000E+00 0. -1.
         11    1    3    3    0    0 -0.71293897549E+01  0.65667671498E+01  0.25656416632E+01  0.10026621888E+02  0.51100000000E-03 0. -1.
        -11    1    3    3    0    0  0.37953828855E+01  0.98400251477E+01  0.36842413042E+02  0.38322244521E+02  0.51100000000E-03 0.  1.
         12    1    3    3    0    0  0.33979108290E+01 -0.15807904786E+02 -0.38393213138E+02  0.41659026234E+02  0.00000000000E+00 0. -1.
</event>
<event>
 7    1  0.4008281E-015  0.9000768E+02  0.7816164E-02  0.1186339E+00
        -11   -1    0    0    0    0  0.00000000000E+00  0.00000000000E+00  0.45593999997E+02  0.45594000000E+02  0.51100000000E-03 0.  1.
         11   -1    0    0    0    0 -0.00000000000E+00 -0.00000000000E+00 -0.45593999997E+02  0.45594000000E+02  0.51100000000E-03 0. -1.
    9900012    2    1    2    0    0 -0.26923099713E-01  0.53129836632E+00  0.10536413185E+01  0.90007676809E+02  0.89999937343E+02 0.  0.
         12    1    1    2    0    0  0.26923099713E-01 -0.53129836632E+00 -0.10536413185E+01  0.11803231911E+01  0.00000000000E+00 0. -1.
         11    1    3    3    0    0  0.20710682832E+00 -0.85696275013E+01  0.30508164670E+01  0.90988400429E+01  0.51100000000E-03 0. -1.
        -11    1    3    3    0    0 -0.14600060161E+02 -0.19055925347E+02 -0.30177455939E+02  0.38561235649E+02  0.51100000000E-03 0.  1.
         12    1    3    3    0    0  0.14366030233E+02  0.28156851214E+02  0.28180280791E+02  0.42347601117E+02  0.00000000000E+00 0. -1.
</event>
<event>
 7    1  0.4008281E-015  0.9000768E+02  0.7816164E-02  0.1186339E+00
        -11   -1    0    0    0    0  0.00000000000E+00  0.00000000000E+00  0.45593999997E+02  0.45594000000E+02  0.51100000000E-03 0.  1.
         11   -1    0    0    0    0 -0.00000000000E+00 -0.00000000000E+00 -0.45593999997E+02  0.45594000000E+02  0.51100000000E-03 0. -1.
    9900012    2    1    2    0    0 -0.10837161834E+01  0.37252246197E+00  0.28273346810E+00  0.90007681414E+02  0.89999942009E+02 0.  0.
         12    1    1    2    0    0  0.10837161834E+01 -0.37252246197E+00 -0.28273346810E+00  0.11803185861E+01  0.00000000000E+00 0. -1.
         11    1    3    3    0    0  0.23578468965E+01 -0.22122032138E+02 -0.31194617154E+02  0.38315113044E+02  0.51100000000E-03 0. -1.
        -11    1    3    3    0    0 -0.58034468310E+01  0.10655610752E+02 -0.51095219676E+01  0.13165456719E+02  0.51100000000E-03 0.  1.
        -12    1    3    3    0    0  0.23618837511E+01  0.11838943848E+02  0.36586872590E+02  0.38527111651E+02  0.00000000000E+00 0.  1.
</event>
<event>
 7    1  0.4008281E-015  0.9000766E+02  0.7816164E-02  0.1186339E+00
        -11   -1    0    0    0    0  0.00000000000E+00  0.00000000000E+00  0.45593999997E+02  0.45594000000E+02  0.51100000000E-03 0.  1.
         11   -1    0    0    0    0 -0.00000000000E+00 -0.00000000000E+00 -0.45593999997E+02  0.45594000000E+02  0.51100000000E-03 0. -1.
    9900012    2    1    2    0    0  0.32645990060E+00  0.65638359184E+00  0.92508380407E+00  0.90007662959E+02  0.89999923310E+02 0.  0.
         12    1    1    2    0    0 -0.32645990060E+00 -0.65638359184E+00 -0.92508380407E+00  0.11803370412E+01  0.00000000000E+00 0. -1.
         11    1    3    3    0    0 -0.12356995379E+02 -0.76058394842E+01  0.16171535103E+02  0.21727003404E+02  0.51100000000E-03 0. -1.
        -11    1    3    3    0    0 -0.16166175289E+02 -0.11724651479E+02  0.12483638971E+02  0.23551091652E+02  0.51100000000E-03 0.  1.
         12    1    3    3    0    0  0.28849630568E+02  0.19986874555E+02 -0.27730090271E+02  0.44729567903E+02  0.00000000000E+00 0. -1.
</event>
<event>
 7    1  0.4008281E-015  0.9000774E+02  0.7816164E-02  0.1186339E+00
        -11   -1    0    0    0    0  0.00000000000E+00  0.00000000000E+00  0.45593999997E+02  0.45594000000E+02  0.51100000000E-03 0.  1.
         11   -1    0    0    0    0 -0.00000000000E+00 -0.00000000000E+00 -0.45593999997E+02  0.45594000000E+02  0.51100000000E-03 0. -1.
    9900012    2    1    2    0    0 -0.55972180097E+00 -0.38763085814E+00  0.96408300307E+00  0.90007744852E+02  0.90000006284E+02 0.  0.
         12    1    1    2    0    0  0.55972180097E+00  0.38763085814E+00 -0.96408300307E+00  0.11802551476E+01  0.00000000000E+00 0. -1.
         11    1    3    3    0    0 -0.15778068373E+01 -0.27052626801E+01  0.96013686300E+01  0.10099217812E+02  0.51100000000E-03 0. -1.
        -11    1    3    3    0    0 -0.25915423907E+02  0.14786663599E+01  0.25520210644E+02  0.36401604389E+02  0.51100000000E-03 0.  1.
         12    1    3    3    0    0  0.26933508944E+02  0.83896546200E+00 -0.34157496271E+02  0.43506922651E+02  0.00000000000E+00 0. -1.
</event>
<event>
 7    1  0.4008281E-015  0.9000772E+02  0.7816164E-02  0.1186339E+00
        -11   -1    0    0    0    0  0.00000000000E+00  0.00000000000E+00  0.45593999997E+02  0.45594000000E+02  0.51100000000E-03 0.  1.
         11   -1    0    0    0    0 -0.00000000000E+00 -0.00000000000E+00 -0.45593999997E+02  0.45594000000E+02  0.51100000000E-03 0. -1.
    9900012    2    1    2    0    0 -0.86997982598E+00 -0.37006764610E+00  0.70657892088E+00  0.90007716673E+02  0.89999977733E+02 0.  0.
         12    1    1    2    0    0  0.86997982598E+00  0.37006764610E+00 -0.70657892088E+00  0.11802833269E+01  0.00000000000E+00 0. -1.
         11    1    3    3    0    0 -0.21935763692E+01  0.23984567117E+01  0.81580585114E+01  0.87817020459E+01  0.51100000000E-03 0. -1.
        -11    1    3    3    0    0  0.15314175863E+02  0.17795628589E+02  0.28865879587E+02  0.37208162865E+02  0.51100000000E-03 0.  1.
         12    1    3    3    0    0 -0.13990579320E+02 -0.20564152947E+02 -0.36317359177E+02  0.44017851762E+02  0.00000000000E+00 0. -1.
</event>
<event>
 7    1  0.4008281E-015  0.9000775E+02  0.7816164E-02  0.1186339E+00
        -11   -1    0    0    0    0  0.00000000000E+00  0.00000000000E+00  0.45593999997E+02  0.45594000000E+02  0.51100000000E-03 0. -1.
         11   -1    0    0    0    0 -0.00000000000E+00 -0.00000000000E+00 -0.45593999997E+02  0.45594000000E+02  0.51100000000E-03 0.  1.
    9900012    2    1    2    0    0 -0.22779369832E+00  0.11166673257E+01 -0.30685977935E+00  0.90007746294E+02  0.90000007745E+02 0.  0.
         12    1    1    2    0    0  0.22779369832E+00 -0.11166673257E+01  0.30685977935E+00  0.11802537056E+01  0.00000000000E+00 0. -1.
         11    1    3    3    0    0  0.18047932520E+02  0.14896590120E+02  0.29024326559E+02  0.37283344779E+02  0.51100000000E-03 0. -1.
        -11    1    3    3    0    0  0.18071331881E+01 -0.31821513397E+01  0.81315030505E+01  0.89170151749E+01  0.51100000000E-03 0.  1.
        -12    1    3    3    0    0 -0.20082859406E+02 -0.10597771455E+02 -0.37462689389E+02  0.43807386340E+02  0.00000000000E+00 0.  1.
</event>
<event>
 7    1  0.4008281E-015  0.9000761E+02  0.7816164E-02  0.1186339E+00
        -11   -1    0    0    0    0  0.00000000000E+00  0.00000000000E+00  0.45593999997E+02  0.45594000000E+02  0.51100000000E-03 0.  1.
         11   -1    0    0    0    0 -0.00000000000E+00 -0.00000000000E+00 -0.45593999997E+02  0.45594000000E+02  0.51100000000E-03 0. -1.
    9900012    2    1    2    0    0 -0.47327098046E+00 -0.50782244891E+00  0.95470255744E+00  0.90007607678E+02  0.89999867299E+02 0.  0.
         12    1    1    2    0    0  0.47327098046E+00  0.50782244891E+00 -0.95470255744E+00  0.11803923220E+01  0.00000000000E+00 0. -1.
         11    1    3    3    0    0  0.57703548060E+01  0.53746527374E+01  0.30426044736E+01  0.84522972545E+01  0.51100000000E-03 0. -1.
        -11    1    3    3    0    0  0.77989326599E+01  0.10275599313E+02  0.35791484050E+02  0.38045257558E+02  0.51100000000E-03 0.  1.
         12    1    3    3    0    0 -0.14042558446E+02 -0.16158074499E+02 -0.37879385966E+02  0.43510052866E+02  0.00000000000E+00 0. -1.
</event>
<event>
 7    1  0.4008281E-015  0.9000779E+02  0.7816164E-02  0.1186339E+00
        -11   -1    0    0    0    0  0.00000000000E+00  0.00000000000E+00  0.45593999997E+02  0.45594000000E+02  0.51100000000E-03 0.  1.
         11   -1    0    0    0    0 -0.00000000000E+00 -0.00000000000E+00 -0.45593999997E+02  0.45594000000E+02  0.51100000000E-03 0. -1.
    9900012    2    1    2    0    0 -0.91992508460E+00  0.46269528377E+00 -0.57667232015E+00  0.90007788133E+02  0.90000050136E+02 0.  0.
         12    1    1    2    0    0  0.91992508460E+00 -0.46269528377E+00  0.57667232015E+00  0.11802118673E+01  0.00000000000E+00 0. -1.
         11    1    3    3    0    0 -0.36172115070E+02  0.12299262214E+02  0.76840923962E+01  0.38971002500E+02  0.51100000000E-03 0. -1.
        -11    1    3    3    0    0  0.64713195104E+00  0.95534292828E+01 -0.28155231179E+00  0.95794604644E+01  0.51100000000E-03 0.  1.
        -12    1    3    3    0    0  0.34605058034E+02 -0.21389996213E+02 -0.79792124045E+01  0.41457325169E+02  0.00000000000E+00 0.  1.
</event>
<event>
 7    1  0.4008281E-015  0.9000766E+02  0.7816164E-02  0.1186339E+00
        -11   -1    0    0    0    0  0.00000000000E+00  0.00000000000E+00  0.45593999997E+02  0.45594000000E+02  0.51100000000E-03 0.  1.
         11   -1    0    0    0    0 -0.00000000000E+00 -0.00000000000E+00 -0.45593999997E+02  0.45594000000E+02  0.51100000000E-03 0. -1.
    9900012    2    1    2    0    0  0.19371571756E+00 -0.10662884604E-01  0.11642867718E+01  0.90007659726E+02  0.89999920034E+02 0.  0.
         12    1    1    2    0    0 -0.19371571756E+00  0.10662884604E-01 -0.11642867718E+01  0.11803402744E+01  0.00000000000E+00 0. -1.
         11    1    3    3    0    0  0.36872854747E+02  0.67724846987E+00 -0.87303609511E+01  0.37898354651E+02  0.51100000000E-03 0. -1.
        -11    1    3    3    0    0  0.33866427521E+01 -0.67383401108E+01 -0.48765824400E+01  0.89808481300E+01  0.51100000000E-03 0.  1.
        -12    1    3    3    0    0 -0.40065781781E+02  0.60504287563E+01  0.14771230163E+02  0.43128456944E+02  0.00000000000E+00 0.  1.
</event>
<event>
 7    1  0.4008281E-015  0.9000774E+02  0.7816164E-02  0.1186339E+00
        -11   -1    0    0    0    0  0.00000000000E+00  0.00000000000E+00  0.45593999997E+02  0.45594000000E+02  0.51100000000E-03 0.  1.
         11   -1    0    0    0    0 -0.00000000000E+00 -0.00000000000E+00 -0.45593999997E+02  0.45594000000E+02  0.51100000000E-03 0. -1.
    9900012    2    1    2    0    0 -0.84054741786E-01  0.11219088632E+01  0.35673811701E+00  0.90007742917E+02  0.90000004324E+02 0.  0.
         12    1    1    2    0    0  0.84054741786E-01 -0.11219088632E+01 -0.35673811701E+00  0.11802570826E+01  0.00000000000E+00 0. -1.
         11    1    3    3    0    0 -0.14495765758E+02  0.29753153729E+02 -0.25622516050E+02  0.41855593542E+02  0.51100000000E-03 0. -1.
        -11    1    3    3    0    0  0.89727047408E+01  0.70281064318E+00  0.66333867965E+00  0.90245992505E+01  0.51100000000E-03 0.  1.
        -12    1    3    3    0    0  0.54390062753E+01 -0.29334055509E+02  0.25315915487E+02  0.39127550125E+02  0.00000000000E+00 0.  1.
</event>
<event>
 7    1  0.4008281E-015  0.9000747E+02  0.7816164E-02  0.1186340E+00
        -11   -1    0    0    0    0  0.00000000000E+00  0.00000000000E+00  0.45593999997E+02  0.45594000000E+02  0.51100000000E-03 0.  1.
         11   -1    0    0    0    0 -0.00000000000E+00 -0.00000000000E+00 -0.45593999997E+02  0.45594000000E+02  0.51100000000E-03 0. -1.
    9900012    2    1    2    0    0  0.46710553315E+00  0.54438095312E+00  0.93761554682E+00  0.90007465750E+02  0.89999723498E+02 0.  0.
         12    1    1    2    0    0 -0.46710553315E+00 -0.54438095312E+00 -0.93761554682E+00  0.11805342498E+01  0.00000000000E+00 0. -1.
         11    1    3    3    0    0  0.74413579558E+01 -0.24132419383E+01 -0.43956281975E+01  0.89732431367E+01  0.51100000000E-03 0. -1.
        -11    1    3    3    0    0 -0.16547397603E+02  0.38769285803E+02 -0.52632220282E+01  0.42480294202E+02  0.51100000000E-03 0.  1.
         12    1    3    3    0    0  0.95731451800E+01 -0.35811662911E+02  0.10596465772E+02  0.38553928412E+02  0.00000000000E+00 0. -1.
</event>
<event>
 7    1  0.4008281E-015  0.9000778E+02  0.7816164E-02  0.1186339E+00
        -11   -1    0    0    0    0  0.00000000000E+00  0.00000000000E+00  0.45593999997E+02  0.45594000000E+02  0.51100000000E-03 0.  1.
         11   -1    0    0    0    0 -0.00000000000E+00 -0.00000000000E+00 -0.45593999997E+02  0.45594000000E+02  0.51100000000E-03 0. -1.
    9900012    2    1    2    0    0 -0.72931477486E+00  0.88250120047E+00 -0.28672656729E+00  0.90007779455E+02  0.90000041344E+02 0.  0.
         12    1    1    2    0    0  0.72931477486E+00 -0.88250120047E+00  0.28672656729E+00  0.11802205447E+01  0.00000000000E+00 0. -1.
         11    1    3    3    0    0 -0.77266608119E+01 -0.37621856497E+02 -0.32667300448E+01  0.38545776669E+02  0.51100000000E-03 0. -1.
        -11    1    3    3    0    0  0.75071419433E+01 -0.30231347476E+01 -0.45048389258E+01  0.92622944170E+01  0.51100000000E-03 0.  1.
        -12    1    3    3    0    0 -0.50979590632E+00  0.41527492445E+02  0.74848424033E+01  0.42199708369E+02  0.00000000000E+00 0.  1.
</event>
<event>
 7    1  0.4008281E-015  0.9000752E+02  0.7816164E-02  0.1186339E+00
        -11   -1    0    0    0    0  0.00000000000E+00  0.00000000000E+00  0.45593999997E+02  0.45594000000E+02  0.51100000000E-03 0. -1.
         11   -1    0    0    0    0 -0.00000000000E+00 -0.00000000000E+00 -0.45593999997E+02  0.45594000000E+02  0.51100000000E-03 0.  1.
    9900012    2    1    2    0    0 -0.18919575902E+00 -0.11642301937E+01  0.48097378277E-01  0.90007516905E+02  0.89999775328E+02 0.  0.
         12    1    1    2    0    0  0.18919575902E+00  0.11642301937E+01 -0.48097378277E-01  0.11804830947E+01  0.00000000000E+00 0. -1.
         11    1    3    3    0    0  0.17172290955E+02  0.17032485189E+02  0.25621103469E+02  0.35233990287E+02  0.51100000000E-03 0. -1.
        -11    1    3    3    0    0  0.75653640957E+00 -0.23783329357E+01  0.10845860223E+02  0.11129308115E+02  0.51100000000E-03 0.  1.
        -12    1    3    3    0    0 -0.18118023123E+02 -0.15818382447E+02 -0.36418866314E+02  0.43644218503E+02  0.00000000000E+00 0.  1.
</event>
<event>
 7    1  0.4008281E-015  0.9000777E+02  0.7816164E-02  0.1186339E+00
        -11   -1    0    0    0    0  0.00000000000E+00  0.00000000000E+00  0.45593999997E+02  0.45594000000E+02  0.51100000000E-03 0.  1.
         11   -1    0    0    0    0 -0.00000000000E+00 -0.00000000000E+00 -0.45593999997E+02  0.45594000000E+02  0.51100000000E-03 0. -1.
    9900012    2    1    2    0    0 -0.37764641907E+00 -0.14975041849E+00  0.11081074372E+01  0.90007769473E+02  0.90000031230E+02 0.  0.
         12    1    1    2    0    0  0.37764641907E+00  0.14975041849E+00 -0.11081074372E+01  0.11802305275E+01  0.00000000000E+00 0. -1.
         11    1    3    3    0    0 -0.69130316501E+01  0.10800276032E+01 -0.56253298367E+01  0.89777949549E+01  0.51100000000E-03 0. -1.
        -11    1    3    3    0    0 -0.56709812508E+01  0.37483706195E+02  0.12744401196E+02  0.39995099957E+02  0.51100000000E-03 0.  1.
         12    1    3    3    0    0  0.12206366482E+02 -0.38713484217E+02 -0.60109639217E+01  0.41034874560E+02  0.00000000000E+00 0. -1.
</event>
<event>
 7    1  0.4566153E-015  0.9000774E+02  0.7816164E-02  0.1186339E+00
        -11   -1    0    0    0    0  0.00000000000E+00  0.00000000000E+00  0.45593999997E+02  0.45594000000E+02  0.51100000000E-03 0. -1.
         11   -1    0    0    0    0 -0.00000000000E+00 -0.00000000000E+00 -0.45593999997E+02  0.45594000000E+02  0.51100000000E-03 0.  1.
    9900012    2    1    2    0    0  0.83638274958E+00  0.12564408826E-01 -0.83265899399E+00  0.90007739449E+02  0.90000000810E+02 0.  0.
         12    1    1    2    0    0 -0.83638274958E+00 -0.12564408826E-01  0.83265899399E+00  0.11802605511E+01  0.00000000000E+00 0. -1.
         11    1    3    3    0    0  0.37409663154E+01 -0.18366919450E+02  0.35622735791E+02  0.40253172106E+02  0.51100000000E-03 0. -1.
        -11    1    3    3    0    0 -0.44738288101E+01  0.66520154273E+01  0.30028957799E+01  0.85604811076E+01  0.51100000000E-03 0.  1.
        -12    1    3    3    0    0  0.15692452443E+01  0.11727468432E+02 -0.39458290565E+02  0.41194086236E+02  0.00000000000E+00 0.  1.
</event>
<event>
 7    1  0.4008281E-015  0.9000766E+02  0.7816164E-02  0.1186339E+00
        -11   -1    0    0    0    0  0.00000000000E+00  0.00000000000E+00  0.45593999997E+02  0.45594000000E+02  0.51100000000E-03 0. -1.
         11   -1    0    0    0    0 -0.00000000000E+00 -0.00000000000E+00 -0.45593999997E+02  0.45594000000E+02  0.51100000000E-03 0.  1.
    9900012    2    1    2    0    0  0.45331695750E+00 -0.10896807655E+01 -0.17407778961E-01  0.90007659598E+02  0.89999919904E+02 0.  0.
         12    1    1    2    0    0 -0.45331695750E+00  0.10896807655E+01  0.17407778961E-01  0.11803404023E+01  0.00000000000E+00 0. -1.
         11    1    3    3    0    0 -0.48401167122E+01 -0.55215569202E+01 -0.12975519118E+01  0.74564040821E+01  0.51100000000E-03 0. -1.
        -11    1    3    3    0    0  0.41571576077E+02 -0.63173656977E+00 -0.12500515685E+02  0.43414950435E+02  0.51100000000E-03 0.  1.
         12    1    3    3    0    0 -0.36278142407E+02  0.50636127245E+01  0.13780659818E+02  0.39136305081E+02  0.00000000000E+00 0. -1.
</event>
<event>
 7    1  0.4008281E-015  0.9000772E+02  0.7816164E-02  0.1186339E+00
        -11   -1    0    0    0    0  0.00000000000E+00  0.00000000000E+00  0.45593999997E+02  0.45594000000E+02  0.51100000000E-03 0.  1.
         11   -1    0    0    0    0 -0.00000000000E+00 -0.00000000000E+00 -0.45593999997E+02  0.45594000000E+02  0.51100000000E-03 0. -1.
    9900012    2    1    2    0    0 -0.47078164615E+00  0.50215465109E+00  0.95877776167E+00  0.90007724842E+02  0.89999986010E+02 0.  0.
         12    1    1    2    0    0  0.47078164615E+00 -0.50215465109E+00 -0.95877776167E+00  0.11802751579E+01  0.00000000000E+00 0. -1.
         11    1    3    3    0    0 -0.11866464555E+02  0.32753950037E+02 -0.20090277285E+02  0.40215090025E+02  0.51100000000E-03 0. -1.
        -11    1    3    3    0    0 -0.58027579156E+01  0.11841585799E+01 -0.12845341512E+01  0.60600543905E+01  0.51100000000E-03 0.  1.
        -12    1    3    3    0    0  0.17198440824E+02 -0.33435953965E+02  0.22333589198E+02  0.43732580427E+02  0.00000000000E+00 0.  1.
</event>
<event>
 7    1  0.4008281E-015  0.9000771E+02  0.7816164E-02  0.1186339E+00
        -11   -1    0    0    0    0  0.00000000000E+00  0.00000000000E+00  0.45593999997E+02  0.45594000000E+02  0.51100000000E-03 0.  1.
         11   -1    0    0    0    0 -0.00000000000E+00 -0.00000000000E+00 -0.45593999997E+02  0.45594000000E+02  0.51100000000E-03 0. -1.
    9900012    2    1    2    0    0 -0.64421115928E+00 -0.94556179857E+00 -0.28980039565E+00  0.90007712153E+02  0.89999973153E+02 0.  0.
         12    1    1    2    0    0  0.64421115928E+00  0.94556179857E+00  0.28980039565E+00  0.11802878471E+01  0.00000000000E+00 0. -1.
         11    1    3    3    0    0  0.70799297175E+01 -0.76520556194E+01  0.28529436755E+01  0.10808267571E+02  0.51100000000E-03 0. -1.
        -11    1    3    3    0    0  0.26380566009E+01 -0.29300092764E+02  0.19618074838E+02  0.35359915713E+02  0.51100000000E-03 0.  1.
         12    1    3    3    0    0 -0.10362197478E+02  0.36006586585E+02 -0.22760818909E+02  0.43839528869E+02  0.00000000000E+00 0. -1.
</event>
<event>
 7    1  0.4008281E-015  0.9000762E+02  0.7816164E-02  0.1186339E+00
        -11   -1    0    0    0    0  0.00000000000E+00  0.00000000000E+00  0.45593999997E+02  0.45594000000E+02  0.51100000000E-03 0. -1.
         11   -1    0    0    0    0 -0.00000000000E+00 -0.00000000000E+00 -0.45593999997E+02  0.45594000000E+02  0.51100000000E-03 0.  1.
    9900012    2    1    2    0    0 -0.73784094925E+00 -0.75506170755E+00 -0.52798364086E+00  0.90007621174E+02  0.89999880973E+02 0.  0.
         12    1    1    2    0    0  0.73784094925E+00  0.75506170755E+00  0.52798364086E+00  0.11803788263E+01  0.00000000000E+00 0. -1.
         11    1    3    3    0    0  0.57393957303E+01 -0.24837719508E+02  0.29899773046E+02  0.39291849055E+02  0.51100000000E-03 0. -1.
        -11    1    3    3    0    0 -0.85240411673E+01 -0.56136071980E+01 -0.41791937645E+01  0.11028940311E+02  0.51100000000E-03 0.  1.
        -12    1    3    3    0    0  0.20468044878E+01  0.29696264998E+02 -0.26248562922E+02  0.39686831808E+02  0.00000000000E+00 0.  1.
</event>
<event>
 7    1  0.4008281E-015  0.9000776E+02  0.7816164E-02  0.1186339E+00
        -11   -1    0    0    0    0  0.00000000000E+00  0.00000000000E+00  0.45593999997E+02  0.45594000000E+02  0.51100000000E-03 0.  1.
         11   -1    0    0    0    0 -0.00000000000E+00 -0.00000000000E+00 -0.45593999997E+02  0.45594000000E+02  0.51100000000E-03 0. -1.
    9900012    2    1    2    0    0 -0.12803133874E-02 -0.11572995048E+01 -0.23155942573E+00  0.90007761231E+02  0.90000022880E+02 0.  0.
         12    1    1    2    0    0  0.12803133874E-02  0.11572995048E+01  0.23155942573E+00  0.11802387685E+01  0.00000000000E+00 0. -1.
         11    1    3    3    0    0  0.35142046647E+01  0.70881349462E+01 -0.63648630604E+01  0.10153953589E+02  0.51100000000E-03 0. -1.
        -11    1    3    3    0    0  0.19031087228E+02  0.29473051695E+02 -0.20978776817E+01  0.35146040294E+02  0.51100000000E-03 0.  1.
         12    1    3    3    0    0 -0.22546572206E+02 -0.37718486146E+02  0.82311813164E+01  0.44707767349E+02  0.00000000000E+00 0. -1.
</event>
<event>
 7    1  0.4008281E-015  0.9000771E+02  0.7816164E-02  0.1186339E+00
        -11   -1    0    0    0    0  0.00000000000E+00  0.00000000000E+00  0.45593999997E+02  0.45594000000E+02  0.51100000000E-03 0. -1.
         11   -1    0    0    0    0 -0.00000000000E+00 -0.00000000000E+00 -0.45593999997E+02  0.45594000000E+02  0.51100000000E-03 0.  1.
    9900012    2    1    2    0    0 -0.43522578357E+00  0.10844224314E+01  0.16641374654E+00  0.90007708923E+02  0.89999969880E+02 0.  0.
         12    1    1    2    0    0  0.43522578357E+00 -0.10844224314E+01 -0.16641374654E+00  0.11802910774E+01  0.00000000000E+00 0. -1.
         11    1    3    3    0    0 -0.16184946204E+01  0.81372805691E+01  0.36069332738E+02  0.37011236460E+02  0.51100000000E-03 0. -1.
        -11    1    3    3    0    0 -0.87120224868E+01  0.50182070910E+00  0.51258103404E+01  0.10120528234E+02  0.51100000000E-03 0.  1.
        -12    1    3    3    0    0  0.98952913237E+01 -0.75546788468E+01 -0.41028729332E+02  0.42875944228E+02  0.00000000000E+00 0.  1.
</event>
<event>
 7    1  0.4008281E-015  0.9000769E+02  0.7816164E-02  0.1186339E+00
        -11   -1    0    0    0    0  0.00000000000E+00  0.00000000000E+00  0.45593999997E+02  0.45594000000E+02  0.51100000000E-03 0.  1.
         11   -1    0    0    0    0 -0.00000000000E+00 -0.00000000000E+00 -0.45593999997E+02  0.45594000000E+02  0.51100000000E-03 0. -1.
    9900012    2    1    2    0    0  0.50085511175E+00  0.83852569766E+00  0.66267781521E+00  0.90007693652E+02  0.89999954408E+02 0.  0.
         12    1    1    2    0    0 -0.50085511175E+00 -0.83852569766E+00 -0.66267781521E+00  0.11803063481E+01  0.00000000000E+00 0. -1.
         11    1    3    3    0    0  0.41684912108E+01  0.19545637407E+01 -0.37948242098E+02  0.38226505425E+02  0.51100000000E-03 0. -1.
        -11    1    3    3    0    0  0.72000840449E+01  0.11102151231E+01 -0.36076325896E+01  0.81295018935E+01  0.51100000000E-03 0.  1.
        -12    1    3    3    0    0 -0.10867720144E+02 -0.22262531661E+01  0.42218552503E+02  0.43651686333E+02  0.00000000000E+00 0.  1.
</event>
<event>
 7    1  0.4008281E-015  0.9000858E+02  0.7816164E-02  0.1186337E+00
        -11   -1    0    0    0    0  0.00000000000E+00  0.00000000000E+00  0.45593999997E+02  0.45594000000E+02  0.51100000000E-03 0.  1.
         11   -1    0    0    0    0 -0.00000000000E+00 -0.00000000000E+00 -0.45593999997E+02  0.45594000000E+02  0.51100000000E-03 0. -1.
    9900012    2    1    2    0    0  0.28423143057E+00  0.11103655514E+01  0.27809937244E+00  0.90008577080E+02  0.90000849493E+02 0.  0.
         12    1    1    2    0    0 -0.28423143057E+00 -0.11103655514E+01 -0.27809937244E+00  0.11794229203E+01  0.00000000000E+00 0. -1.
         11    1    3    3    0    0  0.82504245299E+01 -0.36896821327E+02  0.79707444690E+01  0.38639069562E+02  0.51100000000E-03 0. -1.
        -11    1    3    3    0    0 -0.33659808324E+01  0.47696347493E+00  0.93101365213E+01  0.99114057241E+01  0.51100000000E-03 0.  1.
        -12    1    3    3    0    0 -0.46002122669E+01  0.37530223403E+02 -0.17002781618E+02  0.41458101794E+02  0.00000000000E+00 0.  1.
</event>
<event>
 7    1  0.4008281E-015  0.9000776E+02  0.7816164E-02  0.1186339E+00
        -11   -1    0    0    0    0  0.00000000000E+00  0.00000000000E+00  0.45593999997E+02  0.45594000000E+02  0.51100000000E-03 0.  1.
         11   -1    0    0    0    0 -0.00000000000E+00 -0.00000000000E+00 -0.45593999997E+02  0.45594000000E+02  0.51100000000E-03 0. -1.
    9900012    2    1    2    0    0 -0.79576736318E+00  0.73777847325E+00  0.46412097543E+00  0.90007758054E+02  0.90000019660E+02 0.  0.
         12    1    1    2    0    0  0.79576736318E+00 -0.73777847325E+00 -0.46412097543E+00  0.11802419463E+01  0.00000000000E+00 0. -1.
         11    1    3    3    0    0  0.51867437249E+01  0.40206106191E+01 -0.38626138601E+02  0.39179665692E+02  0.51100000000E-03 0. -1.
        -11    1    3    3    0    0  0.68938550576E+01 -0.77428222864E+01  0.10492633981E+01  0.10420052229E+02  0.51100000000E-03 0.  1.
        -12    1    3    3    0    0 -0.12876366146E+02  0.44599901406E+01  0.38040996178E+02  0.40408040133E+02  0.00000000000E+00 0.  1.
</event>
<event>
 7    1  0.4008281E-015  0.9000663E+02  0.7816164E-02  0.1186341E+00
        -11   -1    0    0    0    0  0.00000000000E+00  0.00000000000E+00  0.45593999997E+02  0.45594000000E+02  0.51100000000E-03 0. -1.
         11   -1    0    0    0    0 -0.00000000000E+00 -0.00000000000E+00 -0.45593999997E+02  0.45594000000E+02  0.51100000000E-03 0.  1.
    9900012    2    1    2    0    0 -0.96939189354E+00 -0.58531391520E+00 -0.33664058329E+00  0.90006627957E+02  0.89998874639E+02 0.  0.
         12    1    1    2    0    0  0.96939189354E+00  0.58531391520E+00  0.33664058329E+00  0.11813720434E+01  0.00000000000E+00 0. -1.
         11    1    3    3    0    0  0.19232270882E+02 -0.36788355479E+02 -0.64534905473E+01  0.42010842441E+02  0.51100000000E-03 0. -1.
        -11    1    3    3    0    0  0.32660423984E+01  0.61107924309E+01 -0.46502999346E+01  0.83447053168E+01  0.51100000000E-03 0.  1.
        -12    1    3    3    0    0 -0.23467705174E+02  0.30092249133E+02  0.10767149899E+02  0.39651080199E+02  0.00000000000E+00 0.  1.
</event>
<event>
 7    1  0.4008281E-015  0.9000772E+02  0.7816164E-02  0.1186339E+00
        -11   -1    0    0    0    0  0.00000000000E+00  0.00000000000E+00  0.45593999997E+02  0.45594000000E+02  0.51100000000E-03 0. -1.
         11   -1    0    0    0    0 -0.00000000000E+00 -0.00000000000E+00 -0.45593999997E+02  0.45594000000E+02  0.51100000000E-03 0.  1.
    9900012    2    1    2    0    0  0.10052117724E+01 -0.61576005026E+00  0.58664640292E-01  0.90007723470E+02  0.89999984620E+02 0.  0.
         12    1    1    2    0    0 -0.10052117724E+01  0.61576005026E+00 -0.58664640292E-01  0.11802765298E+01  0.00000000000E+00 0. -1.
         11    1    3    3    0    0  0.39646458251E+01 -0.52178022863E+01 -0.93743871010E+01  0.11437788729E+02  0.51100000000E-03 0. -1.
        -11    1    3    3    0    0  0.29445673651E+02  0.35721569513E+01 -0.19184611371E+02  0.35325023931E+02  0.51100000000E-03 0.  1.
         12    1    3    3    0    0 -0.32405107704E+02  0.10298852848E+01  0.28617663112E+02  0.43244910810E+02  0.00000000000E+00 0. -1.
</event>
<event>
 7    1  0.4008281E-015  0.9000821E+02  0.7816164E-02  0.1186338E+00
        -11   -1    0    0    0    0  0.00000000000E+00  0.00000000000E+00  0.45593999997E+02  0.45594000000E+02  0.51100000000E-03 0. -1.
         11   -1    0    0    0    0 -0.00000000000E+00 -0.00000000000E+00 -0.45593999997E+02  0.45594000000E+02  0.51100000000E-03 0.  1.
    9900012    2    1    2    0    0  0.88236107822E+00  0.73328596993E+00  0.27500755798E+00  0.90008212501E+02  0.90000480105E+02 0.  0.
         12    1    1    2    0    0 -0.88236107822E+00 -0.73328596993E+00 -0.27500755798E+00  0.11797874991E+01  0.00000000000E+00 0. -1.
         11    1    3    3    0    0  0.37949734839E+01  0.15801703394E+01 -0.10560910324E+02  0.11332766175E+02  0.51100000000E-03 0. -1.
        -11    1    3    3    0    0 -0.35279047152E+02 -0.94392165089E+00 -0.13908833817E+02  0.37933597436E+02  0.51100000000E-03 0.  1.
         12    1    3    3    0    0  0.32366434746E+02  0.97037281464E-01  0.24744751699E+02  0.40741848891E+02  0.00000000000E+00 0. -1.
</event>
<event>
 7    1  0.4008281E-015  0.9000775E+02  0.7816164E-02  0.1186339E+00
        -11   -1    0    0    0    0  0.00000000000E+00  0.00000000000E+00  0.45593999997E+02  0.45594000000E+02  0.51100000000E-03 0.  1.
         11   -1    0    0    0    0 -0.00000000000E+00 -0.00000000000E+00 -0.45593999997E+02  0.45594000000E+02  0.51100000000E-03 0. -1.
    9900012    2    1    2    0    0  0.21347071885E+00  0.17280499927E-01  0.11606542514E+01  0.90007751444E+02  0.90000012963E+02 0.  0.
         12    1    1    2    0    0 -0.21347071885E+00 -0.17280499927E-01 -0.11606542514E+01  0.11802485563E+01  0.00000000000E+00 0. -1.
         11    1    3    3    0    0 -0.25734191702E+01  0.78365645074E+01 -0.62355285792E+01  0.10340021587E+02  0.51100000000E-03 0. -1.
        -11    1    3    3    0    0 -0.14285704176E+02 -0.40091656706E+02  0.81046706429E+00  0.42568522859E+02  0.51100000000E-03 0.  1.
         12    1    3    3    0    0  0.17072594065E+02  0.32272372699E+02  0.65857157663E+01  0.37099206998E+02  0.00000000000E+00 0. -1.
</event>
<event>
 7    1  0.4008281E-015  0.9000774E+02  0.7816164E-02  0.1186339E+00
        -11   -1    0    0    0    0  0.00000000000E+00  0.00000000000E+00  0.45593999997E+02  0.45594000000E+02  0.51100000000E-03 0. -1.
         11   -1    0    0    0    0 -0.00000000000E+00 -0.00000000000E+00 -0.45593999997E+02  0.45594000000E+02  0.51100000000E-03 0.  1.
    9900012    2    1    2    0    0  0.50822683907E+00 -0.36916121658E+00 -0.99921764265E+00  0.90007741375E+02  0.90000002761E+02 0.  0.
         12    1    1    2    0    0 -0.50822683907E+00  0.36916121658E+00  0.99921764265E+00  0.11802586247E+01  0.00000000000E+00 0. -1.
         11    1    3    3    0    0  0.10917360435E+02  0.17287085941E+02  0.24738487942E+02  0.32094000765E+02  0.51100000000E-03 0. -1.
        -11    1    3    3    0    0  0.15905773392E+02  0.52087771797E+00  0.13911820398E+01  0.15974990721E+02  0.51100000000E-03 0.  1.
        -12    1    3    3    0    0 -0.26314906988E+02 -0.18177124875E+02 -0.27128887624E+02  0.41938749889E+02  0.00000000000E+00 0.  1.
</event>
<event>
 7    1  0.4008281E-015  0.9000774E+02  0.7816164E-02  0.1186339E+00
        -11   -1    0    0    0    0  0.00000000000E+00  0.00000000000E+00  0.45593999997E+02  0.45594000000E+02  0.51100000000E-03 0. -1.
         11   -1    0    0    0    0 -0.00000000000E+00 -0.00000000000E+00 -0.45593999997E+02  0.45594000000E+02  0.51100000000E-03 0.  1.
    9900012    2    1    2    0    0 -0.39291426829E+00 -0.24214344488E-01 -0.11126705347E+01  0.90007744233E+02  0.90000005657E+02 0.  0.
         12    1    1    2    0    0  0.39291426829E+00  0.24214344488E-01  0.11126705347E+01  0.11802557669E+01  0.00000000000E+00 0. -1.
         11    1    3    3    0    0 -0.19747684593E+02  0.56417638176E+00  0.12364861919E+02  0.23306204159E+02  0.51100000000E-03 0. -1.
        -11    1    3    3    0    0 -0.12008558721E+02 -0.22746145437E+02 -0.11705836106E+02  0.28259851627E+02  0.51100000000E-03 0.  1.
         12    1    3    3    0    0  0.31363329046E+02  0.22157754711E+02 -0.17716963469E+01  0.38441688446E+02  0.00000000000E+00 0. -1.
</event>
<event>
 7    1  0.4008281E-015  0.9000786E+02  0.7816164E-02  0.1186339E+00
        -11   -1    0    0    0    0  0.00000000000E+00  0.00000000000E+00  0.45593999997E+02  0.45594000000E+02  0.51100000000E-03 0.  1.
         11   -1    0    0    0    0 -0.00000000000E+00 -0.00000000000E+00 -0.45593999997E+02  0.45594000000E+02  0.51100000000E-03 0. -1.
    9900012    2    1    2    0    0  0.53737257196E+00 -0.31585539533E+00  0.10020967024E+01  0.90007859452E+02  0.90000122397E+02 0.  0.
         12    1    1    2    0    0 -0.53737257196E+00  0.31585539533E+00 -0.10020967024E+01  0.11801405479E+01  0.00000000000E+00 0. -1.
         11    1    3    3    0    0 -0.27944265948E+02 -0.12490852510E+02 -0.23242846080E+02  0.38433491775E+02  0.51100000000E-03 0. -1.
        -11    1    3    3    0    0 -0.74241551946E+01 -0.40909384013E+00  0.47540569904E+01  0.88253326426E+01  0.51100000000E-03 0.  1.
        -12    1    3    3    0    0  0.35905793715E+02  0.12584090955E+02  0.19490885792E+02  0.42749035035E+02  0.00000000000E+00 0.  1.
</event>
<event>
 7    1  0.4008281E-015  0.9000777E+02  0.7816164E-02  0.1186339E+00
        -11   -1    0    0    0    0  0.00000000000E+00  0.00000000000E+00  0.45593999997E+02  0.45594000000E+02  0.51100000000E-03 0. -1.
         11   -1    0    0    0    0 -0.00000000000E+00 -0.00000000000E+00 -0.45593999997E+02  0.45594000000E+02  0.51100000000E-03 0.  1.
    9900012    2    1    2    0    0 -0.65332143020E+00  0.57314243636E+00 -0.79850746947E+00  0.90007773190E+02  0.90000034996E+02 0.  0.
         12    1    1    2    0    0  0.65332143020E+00 -0.57314243636E+00  0.79850746947E+00  0.11802268097E+01  0.00000000000E+00 0. -1.
         11    1    3    3    0    0 -0.99938713554E+01 -0.61273722301E+01  0.80156978537E+01  0.14201181904E+02  0.51100000000E-03 0. -1.
        -11    1    3    3    0    0  0.34620019108E+01 -0.25550581630E+02 -0.27805466973E+02  0.37920465091E+02  0.51100000000E-03 0.  1.
         12    1    3    3    0    0  0.58785480144E+01  0.32251096296E+02  0.18991261650E+02  0.37886126196E+02  0.00000000000E+00 0. -1.
</event>
<event>
 7    1  0.4008281E-015  0.9000799E+02  0.7816164E-02  0.1186339E+00
        -11   -1    0    0    0    0  0.00000000000E+00  0.00000000000E+00  0.45593999997E+02  0.45594000000E+02  0.51100000000E-03 0. -1.
         11   -1    0    0    0    0 -0.00000000000E+00 -0.00000000000E+00 -0.45593999997E+02  0.45594000000E+02  0.51100000000E-03 0.  1.
    9900012    2    1    2    0    0  0.29268171484E+00  0.85454529808E+00 -0.75928145102E+00  0.90007992129E+02  0.90000256825E+02 0.  0.
         12    1    1    2    0    0 -0.29268171484E+00 -0.85454529808E+00  0.75928145102E+00  0.11800078705E+01  0.00000000000E+00 0. -1.
         11    1    3    3    0    0 -0.10792135324E+02 -0.31918175745E+02 -0.17399628595E+02  0.37920801722E+02  0.51100000000E-03 0. -1.
        -11    1    3    3    0    0 -0.11032508344E+02  0.22812201231E+01  0.67834729634E+01  0.13150502322E+02  0.51100000000E-03 0.  1.
        -12    1    3    3    0    0  0.22117325383E+02  0.30491500920E+02  0.98568741803E+01  0.38936688085E+02  0.00000000000E+00 0.  1.
</event>
<event>
 7    1  0.4008281E-015  0.9000682E+02  0.7816164E-02  0.1186341E+00
        -11   -1    0    0    0    0  0.00000000000E+00  0.00000000000E+00  0.45593999997E+02  0.45594000000E+02  0.51100000000E-03 0. -1.
         11   -1    0    0    0    0 -0.00000000000E+00 -0.00000000000E+00 -0.45593999997E+02  0.45594000000E+02  0.51100000000E-03 0.  1.
    9900012    2    1    2    0    0  0.10601757613E+01  0.32750710666E+00  0.40491590598E+00  0.90006818202E+02  0.89999067397E+02 0.  0.
         12    1    1    2    0    0 -0.10601757613E+01 -0.32750710666E+00 -0.40491590598E+00  0.11811817983E+01  0.00000000000E+00 0. -1.
         11    1    3    3    0    0 -0.27278296493E+02 -0.10475815785E+02  0.31677106819E+02  0.43096255900E+02  0.51100000000E-03 0. -1.
        -11    1    3    3    0    0  0.93179209730E+00 -0.19420938800E+01 -0.92912149765E+01  0.95376433752E+01  0.51100000000E-03 0.  1.
        -12    1    3    3    0    0  0.27406680157E+02  0.12745416771E+02 -0.21980975937E+02  0.37372918926E+02  0.00000000000E+00 0.  1.
</event>
<event>
 7    1  0.4008281E-015  0.9000750E+02  0.7816164E-02  0.1186340E+00
        -11   -1    0    0    0    0  0.00000000000E+00  0.00000000000E+00  0.45593999997E+02  0.45594000000E+02  0.51100000000E-03 0. -1.
         11   -1    0    0    0    0 -0.00000000000E+00 -0.00000000000E+00 -0.45593999997E+02  0.45594000000E+02  0.51100000000E-03 0.  1.
    9900012    2    1    2    0    0  0.10245490582E+01  0.19737536213E-01 -0.58608689873E+00  0.90007496635E+02  0.89999754790E+02 0.  0.
         12    1    1    2    0    0 -0.10245490582E+01 -0.19737536213E-01  0.58608689873E+00  0.11805033655E+01  0.00000000000E+00 0. -1.
         11    1    3    3    0    0 -0.83609360824E+01 -0.33373986214E+01  0.36496732903E+02  0.37590623759E+02  0.51100000000E-03 0. -1.
        -11    1    3    3    0    0 -0.68473386879E+01 -0.47467161401E+00  0.40928329960E+01  0.79914105415E+01  0.51100000000E-03 0.  1.
        -12    1    3    3    0    0  0.16232823829E+02  0.38318077717E+01 -0.41175652798E+02  0.44425462334E+02  0.00000000000E+00 0.  1.
</event>
<event>
 7    1  0.4008281E-015  0.9000765E+02  0.7816164E-02  0.1186339E+00
        -11   -1    0    0    0    0  0.00000000000E+00  0.00000000000E+00  0.45593999997E+02  0.45594000000E+02  0.51100000000E-03 0. -1.
         11   -1    0    0    0    0 -0.00000000000E+00 -0.00000000000E+00 -0.45593999997E+02  0.45594000000E+02  0.51100000000E-03 0.  1.
    9900012    2    1    2    0    0  0.54207380762E+00  0.89427205654E+00 -0.54740482956E+00  0.90007653199E+02  0.89999913421E+02 0.  0.
         12    1    1    2    0    0 -0.54207380762E+00 -0.89427205654E+00  0.54740482956E+00  0.11803468013E+01  0.00000000000E+00 0. -1.
         11    1    3    3    0    0 -0.20787760378E+01  0.45241398498E+01  0.80936739159E+01  0.95024580459E+01  0.51100000000E-03 0. -1.
        -11    1    3    3    0    0 -0.88864520605E+01 -0.40473193971E+02 -0.48889055054E+01  0.41724691224E+02  0.51100000000E-03 0.  1.
         12    1    3    3    0    0  0.11507301906E+02  0.36843326177E+02 -0.37521732400E+01  0.38780503929E+02  0.00000000000E+00 0. -1.
</event>
<event>
 7    1  0.4008281E-015  0.9000768E+02  0.7816164E-02  0.1186339E+00
        -11   -1    0    0    0    0  0.00000000000E+00  0.00000000000E+00  0.45593999997E+02  0.45594000000E+02  0.51100000000E-03 0. -1.
         11   -1    0    0    0    0 -0.00000000000E+00 -0.00000000000E+00 -0.45593999997E+02  0.45594000000E+02  0.51100000000E-03 0.  1.
    9900012    2    1    2    0    0 -0.51371203307E-01 -0.69940051711E+00 -0.94939147081E+00  0.90007684683E+02  0.89999945320E+02 0.  0.
         12    1    1    2    0    0  0.51371203307E-01  0.69940051711E+00  0.94939147081E+00  0.11803153175E+01  0.00000000000E+00 0. -1.
         11    1    3    3    0    0  0.67478860767E+01  0.24522477176E+01  0.62183595204E+01  0.94981830241E+01  0.51100000000E-03 0. -1.
        -11    1    3    3    0    0 -0.41373358405E+02 -0.13573665660E+02  0.71253981816E+00  0.43548902379E+02  0.51100000000E-03 0.  1.
         12    1    3    3    0    0  0.34574101125E+02  0.10422017425E+02 -0.78802908093E+01  0.36960599279E+02  0.00000000000E+00 0. -1.
</event>
<event>
 7    1  0.4008281E-015  0.9000771E+02  0.7816164E-02  0.1186339E+00
        -11   -1    0    0    0    0  0.00000000000E+00  0.00000000000E+00  0.45593999997E+02  0.45594000000E+02  0.51100000000E-03 0.  1.
         11   -1    0    0    0    0 -0.00000000000E+00 -0.00000000000E+00 -0.45593999997E+02  0.45594000000E+02  0.51100000000E-03 0. -1.
    9900012    2    1    2    0    0 -0.95217203687E+00  0.80884236800E-01  0.69276432268E+00  0.90007705014E+02  0.89999965920E+02 0.  0.
         12    1    1    2    0    0  0.95217203687E+00 -0.80884236800E-01 -0.69276432268E+00  0.11802949862E+01  0.00000000000E+00 0. -1.
         11    1    3    3    0    0 -0.88513667194E+01  0.22372903082E+02 -0.25668072485E+02  0.35181577999E+02  0.51100000000E-03 0. -1.
        -11    1    3    3    0    0 -0.73770272664E+01  0.76238146690E+01 -0.20822172806E+01  0.10811045762E+02  0.51100000000E-03 0.  1.
        -12    1    3    3    0    0  0.15276221949E+02 -0.29915833514E+02  0.28443054088E+02  0.44015081254E+02  0.00000000000E+00 0.  1.
</event>
<event>
 7    1  0.4008281E-015  0.9000761E+02  0.7816164E-02  0.1186339E+00
        -11   -1    0    0    0    0  0.00000000000E+00  0.00000000000E+00  0.45593999997E+02  0.45594000000E+02  0.51100000000E-03 0. -1.
         11   -1    0    0    0    0 -0.00000000000E+00 -0.00000000000E+00 -0.45593999997E+02  0.45594000000E+02  0.51100000000E-03 0.  1.
    9900012    2    1    2    0    0  0.10639688447E+01  0.46998633669E+00 -0.20101277093E+00  0.90007608966E+02  0.89999868604E+02 0.  0.
         12    1    1    2    0    0 -0.10639688447E+01 -0.46998633669E+00  0.20101277093E+00  0.11803910340E+01  0.00000000000E+00 0. -1.
         11    1    3    3    0    0  0.34369495361E+02  0.96757964198E+01 -0.15442388116E+02  0.38901807139E+02  0.51100000000E-03 0. -1.
        -11    1    3    3    0    0 -0.73411958519E+00 -0.18503975889E+01 -0.93987095897E+01  0.96072183807E+01  0.51100000000E-03 0.  1.
        -12    1    3    3    0    0 -0.32571406931E+02 -0.73554124941E+01  0.24640084934E+02  0.41498583446E+02  0.00000000000E+00 0.  1.
</event>
<event>
 7    1  0.4008281E-015  0.9000776E+02  0.7816164E-02  0.1186339E+00
        -11   -1    0    0    0    0  0.00000000000E+00  0.00000000000E+00  0.45593999997E+02  0.45594000000E+02  0.51100000000E-03 0. -1.
         11   -1    0    0    0    0 -0.00000000000E+00 -0.00000000000E+00 -0.45593999997E+02  0.45594000000E+02  0.51100000000E-03 0.  1.
    9900012    2    1    2    0    0 -0.75223553523E+00  0.74816365235E+00 -0.51706003353E+00  0.90007763486E+02  0.90000025164E+02 0.  0.
         12    1    1    2    0    0  0.75223553523E+00 -0.74816365235E+00  0.51706003353E+00  0.11802365142E+01  0.00000000000E+00 0. -1.
         11    1    3    3    0    0  0.78714124237E+01 -0.82645922014E+01  0.33775844039E+02  0.35652072291E+02  0.51100000000E-03 0. -1.
        -11    1    3    3    0    0  0.32649006499E+01 -0.12532876465E+01  0.82742094000E+01  0.89829197723E+01  0.51100000000E-03 0.  1.
        -12    1    3    3    0    0 -0.11888548609E+02  0.10266043500E+02 -0.42567113473E+02  0.45372771423E+02  0.00000000000E+00 0.  1.
</event>
<event>
 7    1  0.4008281E-015  0.9000770E+02  0.7816164E-02  0.1186339E+00
        -11   -1    0    0    0    0  0.00000000000E+00  0.00000000000E+00  0.45593999997E+02  0.45594000000E+02  0.51100000000E-03 0. -1.
         11   -1    0    0    0    0 -0.00000000000E+00 -0.00000000000E+00 -0.45593999997E+02  0.45594000000E+02  0.51100000000E-03 0.  1.
    9900012    2    1    2    0    0  0.95736459693E+00 -0.67330212391E+00  0.15241674164E+00  0.90007697672E+02  0.89999958482E+02 0.  0.
         12    1    1    2    0    0 -0.95736459693E+00  0.67330212391E+00 -0.15241674164E+00  0.11803023276E+01  0.00000000000E+00 0. -1.
         11    1    3    3    0    0 -0.12021147451E+02  0.40412374938E+02 -0.20800175085E+01  0.42213676780E+02  0.51100000000E-03 0. -1.
        -11    1    3    3    0    0  0.80977441763E+01 -0.65672990392E+01  0.70715961267E+01  0.12598029586E+02  0.51100000000E-03 0.  1.
        -12    1    3    3    0    0  0.48807678714E+01 -0.34518378023E+02 -0.48391618766E+01  0.35195991306E+02  0.00000000000E+00 0.  1.
</event>
<event>
 7    1  0.4008281E-015  0.9000771E+02  0.7816164E-02  0.1186339E+00
        -11   -1    0    0    0    0  0.00000000000E+00  0.00000000000E+00  0.45593999997E+02  0.45594000000E+02  0.51100000000E-03 0.  1.
         11   -1    0    0    0    0 -0.00000000000E+00 -0.00000000000E+00 -0.45593999997E+02  0.45594000000E+02  0.51100000000E-03 0. -1.
    9900012    2    1    2    0    0 -0.62696454424E+00 -0.92502417303E+00  0.37989512844E+00  0.90007714200E+02  0.89999975228E+02 0.  0.
         12    1    1    2    0    0  0.62696454424E+00  0.92502417303E+00 -0.37989512844E+00  0.11802857997E+01  0.00000000000E+00 0. -1.
         11    1    3    3    0    0 -0.15566029606E+02 -0.28289356581E+02  0.18296426997E+02  0.37112642248E+02  0.51100000000E-03 0. -1.
        -11    1    3    3    0    0 -0.92582131094E+01 -0.21708795086E+01 -0.10193125754E+02  0.13940123411E+02  0.51100000000E-03 0.  1.
        -12    1    3    3    0    0  0.24197278172E+02  0.29535211917E+02 -0.77234061152E+01  0.38954948542E+02  0.00000000000E+00 0.  1.
</event>
<event>
 7    1  0.4008281E-015  0.9000790E+02  0.7816164E-02  0.1186339E+00
        -11   -1    0    0    0    0  0.00000000000E+00  0.00000000000E+00  0.45593999997E+02  0.45594000000E+02  0.51100000000E-03 0.  1.
         11   -1    0    0    0    0 -0.00000000000E+00 -0.00000000000E+00 -0.45593999997E+02  0.45594000000E+02  0.51100000000E-03 0. -1.
    9900012    2    1    2    0    0 -0.93665326331E+00  0.63901830269E-01 -0.71500784773E+00  0.90007898732E+02  0.90000162195E+02 0.  0.
         12    1    1    2    0    0  0.93665326331E+00 -0.63901830269E-01  0.71500784773E+00  0.11801012676E+01  0.00000000000E+00 0. -1.
         11    1    3    3    0    0  0.24163232203E+02 -0.87355074863E+01  0.32506424037E+02  0.41434749733E+02  0.51100000000E-03 0. -1.
        -11    1    3    3    0    0 -0.76552429704E+01 -0.56538090548E+01 -0.15631389916E+01  0.96442576454E+01  0.51100000000E-03 0.  1.
        -12    1    3    3    0    0 -0.17444642496E+02  0.14453218371E+02 -0.31658292893E+02  0.38928891353E+02  0.00000000000E+00 0.  1.
</event>
<event>
 7    1  0.4008281E-015  0.9000774E+02  0.7816164E-02  0.1186339E+00
        -11   -1    0    0    0    0  0.00000000000E+00  0.00000000000E+00  0.45593999997E+02  0.45594000000E+02  0.51100000000E-03 0.  1.
         11   -1    0    0    0    0 -0.00000000000E+00 -0.00000000000E+00 -0.45593999997E+02  0.45594000000E+02  0.51100000000E-03 0. -1.
    9900012    2    1    2    0    0 -0.11069044795E+01  0.28911601539E+00 -0.29015940654E+00  0.90007738132E+02  0.89999999475E+02 0.  0.
         12    1    1    2    0    0  0.11069044795E+01 -0.28911601539E+00  0.29015940654E+00  0.11802618685E+01  0.00000000000E+00 0. -1.
         11    1    3    3    0    0  0.68011010181E+01 -0.33961590397E+02 -0.77359024440E+01  0.35489277031E+02  0.51100000000E-03 0. -1.
        -11    1    3    3    0    0  0.58710222527E+01 -0.43846858538E+01  0.11139502008E+02  0.13333524575E+02  0.51100000000E-03 0.  1.
        -12    1    3    3    0    0 -0.13779027750E+02  0.38635392266E+02 -0.36937589707E+01  0.41184936526E+02  0.00000000000E+00 0.  1.
</event>
<event>
 7    1  0.4008281E-015  0.9000763E+02  0.7816164E-02  0.1186339E+00
        -11   -1    0    0    0    0  0.00000000000E+00  0.00000000000E+00  0.45593999997E+02  0.45594000000E+02  0.51100000000E-03 0.  1.
         11   -1    0    0    0    0 -0.00000000000E+00 -0.00000000000E+00 -0.45593999997E+02  0.45594000000E+02  0.51100000000E-03 0. -1.
    9900012    2    1    2    0    0 -0.84854926423E+00  0.55688404557E+00  0.60259882253E+00  0.90007626739E+02  0.89999886612E+02 0.  0.
         12    1    1    2    0    0  0.84854926423E+00 -0.55688404557E+00 -0.60259882253E+00  0.11803732609E+01  0.00000000000E+00 0. -1.
         11    1    3    3    0    0 -0.12278562995E+02  0.21692719643E+02 -0.34025742472E+02  0.42179240697E+02  0.51100000000E-03 0. -1.
        -11    1    3    3    0    0  0.45275512033E+01  0.45352279356E+01  0.66600659007E+01  0.92424829125E+01  0.51100000000E-03 0.  1.
        -12    1    3    3    0    0  0.69024625278E+01 -0.25671063533E+02  0.27968275394E+02  0.38585903130E+02  0.00000000000E+00 0.  1.
</event>
<event>
 7    1  0.4008281E-015  0.9000773E+02  0.7816164E-02  0.1186339E+00
        -11   -1    0    0    0    0  0.00000000000E+00  0.00000000000E+00  0.45593999997E+02  0.45594000000E+02  0.51100000000E-03 0.  1.
         11   -1    0    0    0    0 -0.00000000000E+00 -0.00000000000E+00 -0.45593999997E+02  0.45594000000E+02  0.51100000000E-03 0. -1.
    9900012    2    1    2    0    0 -0.11348862845E+01  0.30636728405E+00  0.10591449587E+00  0.90007726442E+02  0.89999987631E+02 0.  0.
         12    1    1    2    0    0  0.11348862845E+01 -0.30636728405E+00 -0.10591449587E+00  0.11802735581E+01  0.00000000000E+00 0. -1.
         11    1    3    3    0    0  0.14985085226E+02 -0.24650747095E+02 -0.20723368028E+02  0.35519995696E+02  0.51100000000E-03 0. -1.
        -11    1    3    3    0    0  0.10508555450E+02 -0.32957079262E+01  0.14896598001E+01  0.11113528466E+02  0.51100000000E-03 0.  1.
        -12    1    3    3    0    0 -0.26628526961E+02  0.28252822305E+02  0.19339622724E+02  0.43374202280E+02  0.00000000000E+00 0.  1.
</event>
<event>
 7    1  0.4008281E-015  0.9000768E+02  0.7816164E-02  0.1186339E+00
        -11   -1    0    0    0    0  0.00000000000E+00  0.00000000000E+00  0.45593999997E+02  0.45594000000E+02  0.51100000000E-03 0.  1.
         11   -1    0    0    0    0 -0.00000000000E+00 -0.00000000000E+00 -0.45593999997E+02  0.45594000000E+02  0.51100000000E-03 0. -1.
    9900012    2    1    2    0    0  0.46621054079E+00 -0.71485273839E+00  0.81534894152E+00  0.90007677755E+02  0.89999938301E+02 0.  0.
         12    1    1    2    0    0 -0.46621054079E+00  0.71485273839E+00 -0.81534894152E+00  0.11803222451E+01  0.00000000000E+00 0. -1.
         11    1    3    3    0    0  0.15244683330E+02 -0.26033131675E+02 -0.17419830109E+02  0.34836400445E+02  0.51100000000E-03 0. -1.
        -11    1    3    3    0    0  0.35567214629E+01 -0.18016876372E+01 -0.10738407819E+02  0.11454682390E+02  0.51100000000E-03 0.  1.
        -12    1    3    3    0    0 -0.18335194252E+02  0.27119966574E+02  0.28973586870E+02  0.43716594920E+02  0.00000000000E+00 0.  1.
</event>
<event>
 7    1  0.4008281E-015  0.9000773E+02  0.7816164E-02  0.1186339E+00
        -11   -1    0    0    0    0  0.00000000000E+00  0.00000000000E+00  0.45593999997E+02  0.45594000000E+02  0.51100000000E-03 0. -1.
         11   -1    0    0    0    0 -0.00000000000E+00 -0.00000000000E+00 -0.45593999997E+02  0.45594000000E+02  0.51100000000E-03 0.  1.
    9900012    2    1    2    0    0 -0.68736577484E+00  0.78631294617E+00 -0.54979777868E+00  0.90007729965E+02  0.89999991201E+02 0.  0.
         12    1    1    2    0    0  0.68736577484E+00 -0.78631294617E+00  0.54979777868E+00  0.11802700349E+01  0.00000000000E+00 0. -1.
         11    1    3    3    0    0 -0.23629333483E+02  0.26214583601E+02 -0.87839012906E+01  0.36369035131E+02  0.51100000000E-03 0. -1.
        -11    1    3    3    0    0 -0.35560035984E+01  0.83650599123E+01  0.54655100718E+01  0.10606186380E+02  0.51100000000E-03 0.  1.
        -12    1    3    3    0    0  0.26497971306E+02 -0.33793330567E+02  0.27685934401E+01  0.43032508454E+02  0.00000000000E+00 0.  1.
</event>
<event>
 7    1  0.4008281E-015  0.9000777E+02  0.7816164E-02  0.1186339E+00
        -11   -1    0    0    0    0  0.00000000000E+00  0.00000000000E+00  0.45593999997E+02  0.45594000000E+02  0.51100000000E-03 0.  1.
         11   -1    0    0    0    0 -0.00000000000E+00 -0.00000000000E+00 -0.45593999997E+02  0.45594000000E+02  0.51100000000E-03 0. -1.
    9900012    2    1    2    0    0 -0.81609087956E+00 -0.60880974500E+00  0.59690687973E+00  0.90007766357E+02  0.90000028073E+02 0.  0.
         12    1    1    2    0    0  0.81609087956E+00  0.60880974500E+00 -0.59690687973E+00  0.11802336431E+01  0.00000000000E+00 0. -1.
         11    1    3    3    0    0 -0.88735157832E+01  0.27300151840E+01 -0.43422708737E+01  0.10249272260E+02  0.51100000000E-03 0. -1.
        -11    1    3    3    0    0 -0.44393873977E+01  0.32594718512E+02  0.20383053562E+02  0.38698742978E+02  0.51100000000E-03 0.  1.
         12    1    3    3    0    0  0.12496812301E+02 -0.35933543441E+02 -0.15443875808E+02  0.41059751118E+02  0.00000000000E+00 0. -1.
</event>
<event>
 7    1  0.4008281E-015  0.9000778E+02  0.7816164E-02  0.1186339E+00
        -11   -1    0    0    0    0  0.00000000000E+00  0.00000000000E+00  0.45593999997E+02  0.45594000000E+02  0.51100000000E-03 0. -1.
         11   -1    0    0    0    0 -0.00000000000E+00 -0.00000000000E+00 -0.45593999997E+02  0.45594000000E+02  0.51100000000E-03 0.  1.
    9900012    2    1    2    0    0 -0.58885971640E-01 -0.62917717775E-01 -0.11770746721E+01  0.90007775030E+02  0.90000036860E+02 0.  0.
         12    1    1    2    0    0  0.58885971640E-01  0.62917717775E-01  0.11770746721E+01  0.11802249703E+01  0.00000000000E+00 0. -1.
         11    1    3    3    0    0  0.12508345200E+02  0.75489455759E+01  0.10376932232E+02  0.17919988889E+02  0.51100000000E-03 0. -1.
        -11    1    3    3    0    0  0.25115119709E+02  0.12401124436E+02 -0.51013050897E+00  0.28014591889E+02  0.51100000000E-03 0.  1.
        -12    1    3    3    0    0 -0.37682350881E+02 -0.20012987730E+02 -0.11043876395E+02  0.44073194253E+02  0.00000000000E+00 0.  1.
</event>
<event>
 7    1  0.4008281E-015  0.9000769E+02  0.7816164E-02  0.1186339E+00
        -11   -1    0    0    0    0  0.00000000000E+00  0.00000000000E+00  0.45593999997E+02  0.45594000000E+02  0.51100000000E-03 0. -1.
         11   -1    0    0    0    0 -0.00000000000E+00 -0.00000000000E+00 -0.45593999997E+02  0.45594000000E+02  0.51100000000E-03 0.  1.
    9900012    2    1    2    0    0  0.75927024417E+00 -0.37325203195E+00  0.82299543379E+00  0.90007690775E+02  0.89999951493E+02 0.  0.
         12    1    1    2    0    0 -0.75927024417E+00  0.37325203195E+00 -0.82299543379E+00  0.11803092252E+01  0.00000000000E+00 0. -1.
         11    1    3    3    0    0  0.82107376024E+01  0.28055157166E+01 -0.29824738237E+01  0.91750902329E+01  0.51100000000E-03 0. -1.
        -11    1    3    3    0    0 -0.18842881345E+02 -0.32266051078E+02 -0.19226399416E+02  0.42021502404E+02  0.51100000000E-03 0.  1.
         12    1    3    3    0    0  0.11391413987E+02  0.29087283329E+02  0.23031868673E+02  0.38811098138E+02  0.00000000000E+00 0. -1.
</event>
<event>
 7    1  0.4008281E-015  0.9000753E+02  0.7816164E-02  0.1186339E+00
        -11   -1    0    0    0    0  0.00000000000E+00  0.00000000000E+00  0.45593999997E+02  0.45594000000E+02  0.51100000000E-03 0.  1.
         11   -1    0    0    0    0 -0.00000000000E+00 -0.00000000000E+00 -0.45593999997E+02  0.45594000000E+02  0.51100000000E-03 0. -1.
    9900012    2    1    2    0    0  0.11574600663E+01 -0.96140266404E-01  0.21108462491E+00  0.90007528283E+02  0.89999786856E+02 0.  0.
         12    1    1    2    0    0 -0.11574600663E+01  0.96140266404E-01 -0.21108462491E+00  0.11804717171E+01  0.00000000000E+00 0. -1.
         11    1    3    3    0    0 -0.23921898945E+01  0.42766509787E+02  0.58118007704E+01  0.43225848289E+02  0.51100000000E-03 0. -1.
        -11    1    3    3    0    0 -0.58142791321E+01 -0.71429416424E+01 -0.32994634430E+01  0.97833489361E+01  0.51100000000E-03 0.  1.
        -12    1    3    3    0    0  0.93639290929E+01 -0.35719708411E+02 -0.23012527025E+01  0.36998331058E+02  0.00000000000E+00 0.  1.
</event>
<event>
 7    1  0.4008281E-015  0.9000773E+02  0.7816164E-02  0.1186339E+00
        -11   -1    0    0    0    0  0.00000000000E+00  0.00000000000E+00  0.45593999997E+02  0.45594000000E+02  0.51100000000E-03 0.  1.
         11   -1    0    0    0    0 -0.00000000000E+00 -0.00000000000E+00 -0.45593999997E+02  0.45594000000E+02  0.51100000000E-03 0. -1.
    9900012    2    1    2    0    0 -0.31890076718E-01 -0.90090008534E+00  0.76183776523E+00  0.90007731081E+02  0.89999992331E+02 0.  0.
         12    1    1    2    0    0  0.31890076718E-01  0.90090008534E+00 -0.76183776523E+00  0.11802689191E+01  0.00000000000E+00 0. -1.
         11    1    3    3    0    0  0.54414464131E+01 -0.24052836391E+01 -0.24308642694E+00  0.59543110200E+01  0.51100000000E-03 0. -1.
        -11    1    3    3    0    0 -0.11977937851E+02 -0.39107097452E+02  0.96552073250E+01  0.42024505887E+02  0.51100000000E-03 0.  1.
         12    1    3    3    0    0  0.65046013613E+01  0.40611481006E+02 -0.86502831328E+01  0.42028914174E+02  0.00000000000E+00 0. -1.
</event>
<event>
 7    1  0.4008281E-015  0.9000775E+02  0.7816164E-02  0.1186339E+00
        -11   -1    0    0    0    0  0.00000000000E+00  0.00000000000E+00  0.45593999997E+02  0.45594000000E+02  0.51100000000E-03 0.  1.
         11   -1    0    0    0    0 -0.00000000000E+00 -0.00000000000E+00 -0.45593999997E+02  0.45594000000E+02  0.51100000000E-03 0. -1.
    9900012    2    1    2    0    0  0.62697192587E+00  0.83907008346E+00  0.54392410752E+00  0.90007751791E+02  0.90000013314E+02 0.  0.
         12    1    1    2    0    0 -0.62697192587E+00 -0.83907008346E+00 -0.54392410752E+00  0.11802482093E+01  0.00000000000E+00 0. -1.
         11    1    3    3    0    0  0.69326542356E+00 -0.67840878588E+01 -0.68243298050E+01  0.96475873965E+01  0.51100000000E-03 0. -1.
        -11    1    3    3    0    0  0.31894747131E+02 -0.25225293255E+01 -0.19432325149E+02  0.37433318176E+02  0.51100000000E-03 0.  1.
         12    1    3    3    0    0 -0.31961040628E+02  0.10145687268E+02  0.26800579062E+02  0.42926846218E+02  0.00000000000E+00 0. -1.
</event>
<event>
 7    1  0.4008281E-015  0.9000774E+02  0.7816164E-02  0.1186339E+00
        -11   -1    0    0    0    0  0.00000000000E+00  0.00000000000E+00  0.45593999997E+02  0.45594000000E+02  0.51100000000E-03 0. -1.
         11   -1    0    0    0    0 -0.00000000000E+00 -0.00000000000E+00 -0.45593999997E+02  0.45594000000E+02  0.51100000000E-03 0.  1.
    9900012    2    1    2    0    0 -0.11479503616E+01  0.34098496695E-01  0.27215701637E+00  0.90007736393E+02  0.89999997713E+02 0.  0.
         12    1    1    2    0    0  0.11479503616E+01 -0.34098496695E-01 -0.27215701637E+00  0.11802636069E+01  0.00000000000E+00 0. -1.
         11    1    3    3    0    0 -0.33304564279E+01  0.92077254164E+01  0.18414757289E+01  0.99631912801E+01  0.51100000000E-03 0. -1.
        -11    1    3    3    0    0  0.24612932010E+02 -0.27424507563E+02 -0.23540605515E+02  0.43727109961E+02  0.51100000000E-03 0.  1.
         12    1    3    3    0    0 -0.22430425944E+02  0.18250880643E+02  0.21971286803E+02  0.36317435153E+02  0.00000000000E+00 0. -1.
</event>
<event>
 7    1  0.4008281E-015  0.9000785E+02  0.7816164E-02  0.1186339E+00
        -11   -1    0    0    0    0  0.00000000000E+00  0.00000000000E+00  0.45593999997E+02  0.45594000000E+02  0.51100000000E-03 0.  1.
         11   -1    0    0    0    0 -0.00000000000E+00 -0.00000000000E+00 -0.45593999997E+02  0.45594000000E+02  0.51100000000E-03 0. -1.
    9900012    2    1    2    0    0  0.27290896655E+00 -0.39647391453E+00  0.10775346866E+01  0.90007850912E+02  0.90000113744E+02 0.  0.
         12    1    1    2    0    0 -0.27290896655E+00  0.39647391453E+00 -0.10775346866E+01  0.11801490880E+01  0.00000000000E+00 0. -1.
         11    1    3    3    0    0 -0.48194260563E+01 -0.26962507210E-02  0.89682451450E+01  0.10181173607E+02  0.51100000000E-03 0. -1.
        -11    1    3    3    0    0 -0.49770935994E+01  0.27927188697E+02  0.23152533886E+02  0.36616105129E+02  0.51100000000E-03 0.  1.
         12    1    3    3    0    0  0.10069428622E+02 -0.28320966360E+02 -0.31043244344E+02  0.43210572176E+02  0.00000000000E+00 0. -1.
</event>
<event>
 7    1  0.4008281E-015  0.9000774E+02  0.7816164E-02  0.1186339E+00
        -11   -1    0    0    0    0  0.00000000000E+00  0.00000000000E+00  0.45593999997E+02  0.45594000000E+02  0.51100000000E-03 0.  1.
         11   -1    0    0    0    0 -0.00000000000E+00 -0.00000000000E+00 -0.45593999997E+02  0.45594000000E+02  0.51100000000E-03 0. -1.
    9900012    2    1    2    0    0  0.19810824997E+00  0.13093584517E+00  0.11561264079E+01  0.90007737595E+02  0.89999998931E+02 0.  0.
         12    1    1    2    0    0 -0.19810824997E+00 -0.13093584517E+00 -0.11561264079E+01  0.11802624052E+01  0.00000000000E+00 0. -1.
         11    1    3    3    0    0 -0.14590486299E+02  0.16374789017E+02 -0.29415692537E+02  0.36691946984E+02  0.51100000000E-03 0. -1.
        -11    1    3    3    0    0  0.45740277497E+01  0.24292167373E+01 -0.78429469278E+01  0.93986509981E+01  0.51100000000E-03 0.  1.
        -12    1    3    3    0    0  0.10214566799E+02 -0.18673069909E+02  0.38414765873E+02  0.43917139613E+02  0.00000000000E+00 0.  1.
</event>
<event>
 7    1  0.4008281E-015  0.9000730E+02  0.7816164E-02  0.1186340E+00
        -11   -1    0    0    0    0  0.00000000000E+00  0.00000000000E+00  0.45593999997E+02  0.45594000000E+02  0.51100000000E-03 0.  1.
         11   -1    0    0    0    0 -0.00000000000E+00 -0.00000000000E+00 -0.45593999997E+02  0.45594000000E+02  0.51100000000E-03 0. -1.
    9900012    2    1    2    0    0 -0.64989068097E+00 -0.22382924697E+00  0.96000202726E+00  0.90007296260E+02  0.89999551770E+02 0.  0.
         12    1    1    2    0    0  0.64989068097E+00  0.22382924697E+00 -0.96000202726E+00  0.11807037399E+01  0.00000000000E+00 0. -1.
         11    1    3    3    0    0 -0.73764787250E+01 -0.10389512937E+01 -0.25027887085E+01  0.78584864797E+01  0.51100000000E-03 0. -1.
        -11    1    3    3    0    0  0.32577126977E+02 -0.15359685258E+01 -0.26847799267E+02  0.42242546409E+02  0.51100000000E-03 0.  1.
         12    1    3    3    0    0 -0.25850538933E+02  0.23510905726E+01  0.30310590003E+02  0.39906263372E+02  0.00000000000E+00 0. -1.
</event>
<event>
 7    1  0.4008281E-015  0.9000763E+02  0.7816164E-02  0.1186339E+00
        -11   -1    0    0    0    0  0.00000000000E+00  0.00000000000E+00  0.45593999997E+02  0.45594000000E+02  0.51100000000E-03 0. -1.
         11   -1    0    0    0    0 -0.00000000000E+00 -0.00000000000E+00 -0.45593999997E+02  0.45594000000E+02  0.51100000000E-03 0.  1.
    9900012    2    1    2    0    0  0.96083130806E+00 -0.46363338623E+00 -0.50508901636E+00  0.90007632416E+02  0.89999892364E+02 0.  0.
         12    1    1    2    0    0 -0.96083130806E+00  0.46363338623E+00  0.50508901636E+00  0.11803675842E+01  0.00000000000E+00 0. -1.
         11    1    3    3    0    0 -0.16605457706E+02 -0.32141906407E+02 -0.16371088575E+02  0.39709645107E+02  0.51100000000E-03 0. -1.
        -11    1    3    3    0    0 -0.89840614440E+01  0.65426525938E+01  0.26880113031E+01  0.11434380964E+02  0.51100000000E-03 0.  1.
        -12    1    3    3    0    0  0.26550350458E+02  0.25135620427E+02  0.13177988256E+02  0.38863606346E+02  0.00000000000E+00 0.  1.
</event>
<event>
 7    1  0.4008281E-015  0.9000777E+02  0.7816164E-02  0.1186339E+00
        -11   -1    0    0    0    0  0.00000000000E+00  0.00000000000E+00  0.45593999997E+02  0.45594000000E+02  0.51100000000E-03 0.  1.
         11   -1    0    0    0    0 -0.00000000000E+00 -0.00000000000E+00 -0.45593999997E+02  0.45594000000E+02  0.51100000000E-03 0. -1.
    9900012    2    1    2    0    0  0.67879462903E+00 -0.81236474753E+00 -0.52177184282E+00  0.90007769308E+02  0.90000031062E+02 0.  0.
         12    1    1    2    0    0 -0.67879462903E+00  0.81236474753E+00  0.52177184282E+00  0.11802306924E+01  0.00000000000E+00 0. -1.
         11    1    3    3    0    0 -0.34503023170E+01  0.25562911134E+01  0.10974924280E+02  0.11785082671E+02  0.51100000000E-03 0. -1.
        -11    1    3    3    0    0  0.63165031968E+01  0.36677610233E+02 -0.69347462740E+01  0.37858103639E+02  0.51100000000E-03 0.  1.
         12    1    3    3    0    0 -0.21874062508E+01 -0.40046266094E+02 -0.45619498493E+01  0.40364582998E+02  0.00000000000E+00 0. -1.
</event>
<event>
 7    1  0.4008281E-015  0.9000781E+02  0.7816164E-02  0.1186339E+00
        -11   -1    0    0    0    0  0.00000000000E+00  0.00000000000E+00  0.45593999997E+02  0.45594000000E+02  0.51100000000E-03 0. -1.
         11   -1    0    0    0    0 -0.00000000000E+00 -0.00000000000E+00 -0.45593999997E+02  0.45594000000E+02  0.51100000000E-03 0.  1.
    9900012    2    1    2    0    0  0.64439633501E+00  0.97978627908E+00  0.13276223530E+00  0.90007807812E+02  0.90000070075E+02 0.  0.
         12    1    1    2    0    0 -0.64439633501E+00 -0.97978627908E+00 -0.13276223530E+00  0.11801921879E+01  0.00000000000E+00 0. -1.
         11    1    3    3    0    0  0.43158275190E+01  0.75085969485E+01 -0.10514928050E+02  0.13622375251E+02  0.51100000000E-03 0. -1.
        -11    1    3    3    0    0  0.24287690845E+02 -0.30191725787E+02  0.86526615966E+01  0.39702654641E+02  0.51100000000E-03 0.  1.
         12    1    3    3    0    0 -0.27959122029E+02  0.23662915118E+02  0.19950286886E+01  0.36682777920E+02  0.00000000000E+00 0. -1.
</event>
<event>
 7    1  0.4008281E-015  0.9000772E+02  0.7816164E-02  0.1186339E+00
        -11   -1    0    0    0    0  0.00000000000E+00  0.00000000000E+00  0.45593999997E+02  0.45594000000E+02  0.51100000000E-03 0. -1.
         11   -1    0    0    0    0 -0.00000000000E+00 -0.00000000000E+00 -0.45593999997E+02  0.45594000000E+02  0.51100000000E-03 0.  1.
    9900012    2    1    2    0    0  0.11426999278E+01 -0.46905942707E-01 -0.29170917719E+00  0.90007721416E+02  0.89999982538E+02 0.  0.
         12    1    1    2    0    0 -0.11426999278E+01  0.46905942707E-01  0.29170917719E+00  0.11802785843E+01  0.00000000000E+00 0. -1.
         11    1    3    3    0    0 -0.24463551194E+01 -0.39963229557E+01  0.78106022915E+01  0.91082796923E+01  0.51100000000E-03 0. -1.
        -11    1    3    3    0    0 -0.21869038564E+02  0.33693358663E+02 -0.10981799932E+02  0.41642492669E+02  0.51100000000E-03 0.  1.
         12    1    3    3    0    0  0.25458093611E+02 -0.29743941650E+02  0.28794884634E+01  0.39256949054E+02  0.00000000000E+00 0. -1.
</event>
<event>
 7    1  0.4008281E-015  0.9000778E+02  0.7816164E-02  0.1186339E+00
        -11   -1    0    0    0    0  0.00000000000E+00  0.00000000000E+00  0.45593999997E+02  0.45594000000E+02  0.51100000000E-03 0. -1.
         11   -1    0    0    0    0 -0.00000000000E+00 -0.00000000000E+00 -0.45593999997E+02  0.45594000000E+02  0.51100000000E-03 0.  1.
    9900012    2    1    2    0    0  0.17540690992E-01  0.12453163926E+00 -0.11734975457E+01  0.90007782946E+02  0.90000044881E+02 0.  0.
         12    1    1    2    0    0 -0.17540690992E-01 -0.12453163926E+00  0.11734975457E+01  0.11802170541E+01  0.00000000000E+00 0. -1.
         11    1    3    3    0    0 -0.61483775176E+01  0.29456661109E+01 -0.30265010942E+01  0.74591691273E+01  0.51100000000E-03 0. -1.
        -11    1    3    3    0    0 -0.11063449009E+02  0.13794914239E+02 -0.34647760085E+02  0.38899445266E+02  0.51100000000E-03 0.  1.
         12    1    3    3    0    0  0.17229367218E+02 -0.16616048710E+02  0.36500763634E+02  0.43649168552E+02  0.00000000000E+00 0. -1.
</event>
<event>
 7    1  0.4072229E-015  0.9000782E+02  0.7816164E-02  0.1186339E+00
        -11   -1    0    0    0    0  0.00000000000E+00  0.00000000000E+00  0.45593999997E+02  0.45594000000E+02  0.51100000000E-03 0.  1.
         11   -1    0    0    0    0 -0.00000000000E+00 -0.00000000000E+00 -0.45593999997E+02  0.45594000000E+02  0.51100000000E-03 0. -1.
    9900012    2    1    2    0    0 -0.11579792005E+01 -0.14905624060E+00  0.17232812815E+00  0.90007817567E+02  0.90000079959E+02 0.  0.
         12    1    1    2    0    0  0.11579792005E+01  0.14905624060E+00 -0.17232812815E+00  0.11801824331E+01  0.00000000000E+00 0. -1.
         11    1    3    3    0    0  0.29558012075E+01  0.71900746452E+01  0.56173614136E+01  0.95910731252E+01  0.51100000000E-03 0. -1.
        -11    1    3    3    0    0  0.69708491688E+01  0.18537297077E+01  0.35909414516E+02  0.36626699320E+02  0.51100000000E-03 0.  1.
         12    1    3    3    0    0 -0.11084629577E+02 -0.91928605935E+01 -0.41354447802E+02  0.43790045121E+02  0.00000000000E+00 0. -1.
</event>
<event>
 7    1  0.4008281E-015  0.9000769E+02  0.7816164E-02  0.1186339E+00
        -11   -1    0    0    0    0  0.00000000000E+00  0.00000000000E+00  0.45593999997E+02  0.45594000000E+02  0.51100000000E-03 0. -1.
         11   -1    0    0    0    0 -0.00000000000E+00 -0.00000000000E+00 -0.45593999997E+02  0.45594000000E+02  0.51100000000E-03 0.  1.
    9900012    2    1    2    0    0  0.62422941543E+00  0.36736703336E+00 -0.93193579715E+00  0.90007692739E+02  0.89999953483E+02 0.  0.
         12    1    1    2    0    0 -0.62422941543E+00 -0.36736703336E+00  0.93193579715E+00  0.11803072610E+01  0.00000000000E+00 0. -1.
         11    1    3    3    0    0  0.21132842829E+02  0.26539494270E+02  0.15409117703E+02  0.37261007913E+02  0.51100000000E-03 0. -1.
        -11    1    3    3    0    0  0.10404304599E+02 -0.32909543877E+01  0.11797222356E+00  0.10913012997E+02  0.51100000000E-03 0.  1.
        -12    1    3    3    0    0 -0.30912918012E+02 -0.22881172848E+02 -0.16459025723E+02  0.41833671829E+02  0.00000000000E+00 0.  1.
</event>
<event>
 7    1  0.4008281E-015  0.9000776E+02  0.7816164E-02  0.1186339E+00
        -11   -1    0    0    0    0  0.00000000000E+00  0.00000000000E+00  0.45593999997E+02  0.45594000000E+02  0.51100000000E-03 0.  1.
         11   -1    0    0    0    0 -0.00000000000E+00 -0.00000000000E+00 -0.45593999997E+02  0.45594000000E+02  0.51100000000E-03 0. -1.
    9900012    2    1    2    0    0 -0.82679454348E+00 -0.74679162139E+00 -0.38946163236E+00  0.90007759641E+02  0.90000021268E+02 0.  0.
         12    1    1    2    0    0  0.82679454348E+00  0.74679162139E+00  0.38946163236E+00  0.11802403594E+01  0.00000000000E+00 0. -1.
         11    1    3    3    0    0  0.57630540857E+01 -0.64078725082E+01 -0.67110943427E+00  0.86443050969E+01  0.51100000000E-03 0. -1.
        -11    1    3    3    0    0 -0.82996326073E+01 -0.27813120989E+02 -0.25846365711E+02  0.38864999953E+02  0.51100000000E-03 0.  1.
         12    1    3    3    0    0  0.17097839781E+01  0.33474201876E+02  0.26128013513E+02  0.42498454591E+02  0.00000000000E+00 0. -1.
</event>
<event>
 7    1  0.4008281E-015  0.9000769E+02  0.7816164E-02  0.1186339E+00
        -11   -1    0    0    0    0  0.00000000000E+00  0.00000000000E+00  0.45593999997E+02  0.45594000000E+02  0.51100000000E-03 0. -1.
         11   -1    0    0    0    0 -0.00000000000E+00 -0.00000000000E+00 -0.45593999997E+02  0.45594000000E+02  0.51100000000E-03 0.  1.
    9900012    2    1    2    0    0  0.54612712364E+00 -0.87544835666E+00 -0.57312653414E+00  0.90007687040E+02  0.89999947709E+02 0.  0.
         12    1    1    2    0    0 -0.54612712364E+00  0.87544835666E+00  0.57312653414E+00  0.11803129604E+01  0.00000000000E+00 0. -1.
         11    1    3    3    0    0  0.70750942561E+01 -0.43619219186E+01 -0.71021603373E+01  0.10932703384E+02  0.51100000000E-03 0. -1.
        -11    1    3    3    0    0  0.57195652414E+01 -0.34862820521E+02  0.14230255918E+02  0.38087135164E+02  0.51100000000E-03 0.  1.
         12    1    3    3    0    0 -0.12248532374E+02  0.38349294083E+02 -0.77012221150E+01  0.40987848492E+02  0.00000000000E+00 0. -1.
</event>
<event>
 7    1  0.4008281E-015  0.9000768E+02  0.7816164E-02  0.1186339E+00
        -11   -1    0    0    0    0  0.00000000000E+00  0.00000000000E+00  0.45593999997E+02  0.45594000000E+02  0.51100000000E-03 0.  1.
         11   -1    0    0    0    0 -0.00000000000E+00 -0.00000000000E+00 -0.45593999997E+02  0.45594000000E+02  0.51100000000E-03 0. -1.
    9900012    2    1    2    0    0  0.68331671576E+00  0.93148688115E+00  0.24200178508E+00  0.90007680379E+02  0.89999940960E+02 0.  0.
         12    1    1    2    0    0 -0.68331671576E+00 -0.93148688115E+00 -0.24200178508E+00  0.11803196210E+01  0.00000000000E+00 0. -1.
         11    1    3    3    0    0  0.47739933485E+01  0.22861325071E+02 -0.29975368898E+02  0.37999393907E+02  0.51100000000E-03 0. -1.
        -11    1    3    3    0    0  0.57703599945E+01  0.74243833744E+01  0.10381836149E+01  0.94602509711E+01  0.51100000000E-03 0.  1.
        -12    1    3    3    0    0 -0.98610366273E+01 -0.29354221564E+02  0.29179187068E+02  0.42548035501E+02  0.00000000000E+00 0.  1.
</event>
<event>
 7    1  0.4008281E-015  0.9000773E+02  0.7816164E-02  0.1186339E+00
        -11   -1    0    0    0    0  0.00000000000E+00  0.00000000000E+00  0.45593999997E+02  0.45594000000E+02  0.51100000000E-03 0.  1.
         11   -1    0    0    0    0 -0.00000000000E+00 -0.00000000000E+00 -0.45593999997E+02  0.45594000000E+02  0.51100000000E-03 0. -1.
    9900012    2    1    2    0    0 -0.68167503532E+00 -0.95737871392E+00  0.10857892456E+00  0.90007727049E+02  0.89999988246E+02 0.  0.
         12    1    1    2    0    0  0.68167503532E+00  0.95737871392E+00 -0.10857892456E+00  0.11802729509E+01  0.00000000000E+00 0. -1.
         11    1    3    3    0    0  0.49159796909E+01 -0.44525462413E+01  0.60059419582E+01  0.89478133316E+01  0.51100000000E-03 0. -1.
        -11    1    3    3    0    0  0.11878607461E+02  0.32216651691E+02  0.18982619264E+02  0.39234599472E+02  0.51100000000E-03 0.  1.
         12    1    3    3    0    0 -0.17476262187E+02 -0.28721484164E+02 -0.24879982297E+02  0.41825314245E+02  0.00000000000E+00 0. -1.
</event>
<event>
 7    1  0.4008281E-015  0.9000774E+02  0.7816164E-02  0.1186339E+00
        -11   -1    0    0    0    0  0.00000000000E+00  0.00000000000E+00  0.45593999997E+02  0.45594000000E+02  0.51100000000E-03 0. -1.
         11   -1    0    0    0    0 -0.00000000000E+00 -0.00000000000E+00 -0.45593999997E+02  0.45594000000E+02  0.51100000000E-03 0.  1.
    9900012    2    1    2    0    0  0.51602096783E-01 -0.63644159722E+00 -0.99262489754E+00  0.90007735254E+02  0.89999996560E+02 0.  0.
         12    1    1    2    0    0 -0.51602096783E-01  0.63644159722E+00  0.99262489754E+00  0.11802647458E+01  0.00000000000E+00 0. -1.
         11    1    3    3    0    0 -0.28981005227E+02 -0.39260592934E+01 -0.31965084982E+02  0.43325272806E+02  0.51100000000E-03 0. -1.
        -11    1    3    3    0    0 -0.49543169869E-01 -0.23203702899E+01  0.10312523267E+02  0.10570464001E+02  0.51100000000E-03 0.  1.
        -12    1    3    3    0    0  0.29082150493E+02  0.56099879861E+01  0.20659936818E+02  0.36111998447E+02  0.00000000000E+00 0.  1.
</event>
<event>
 7    1  0.4008281E-015  0.9000775E+02  0.7816164E-02  0.1186339E+00
        -11   -1    0    0    0    0  0.00000000000E+00  0.00000000000E+00  0.45593999997E+02  0.45594000000E+02  0.51100000000E-03 0.  1.
         11   -1    0    0    0    0 -0.00000000000E+00 -0.00000000000E+00 -0.45593999997E+02  0.45594000000E+02  0.51100000000E-03 0. -1.
    9900012    2    1    2    0    0  0.62309187308E+00 -0.39759799970E+00 -0.92014346095E+00  0.90007749332E+02  0.90000010823E+02 0.  0.
         12    1    1    2    0    0 -0.62309187308E+00  0.39759799970E+00  0.92014346095E+00  0.11802506685E+01  0.00000000000E+00 0. -1.
         11    1    3    3    0    0  0.26221833981E+01 -0.22464646374E+02 -0.29567371899E+02  0.37225873580E+02  0.51100000000E-03 0. -1.
        -11    1    3    3    0    0  0.65067774956E+01 -0.81203143187E+01  0.15118799061E+00  0.10406753388E+02  0.51100000000E-03 0.  1.
        -12    1    3    3    0    0 -0.85058690206E+01  0.30187362693E+02  0.28496040447E+02  0.42375122364E+02  0.00000000000E+00 0.  1.
</event>
<event>
 7    1  0.4008281E-015  0.9000773E+02  0.7816164E-02  0.1186339E+00
        -11   -1    0    0    0    0  0.00000000000E+00  0.00000000000E+00  0.45593999997E+02  0.45594000000E+02  0.51100000000E-03 0.  1.
         11   -1    0    0    0    0 -0.00000000000E+00 -0.00000000000E+00 -0.45593999997E+02  0.45594000000E+02  0.51100000000E-03 0. -1.
    9900012    2    1    2    0    0  0.10180828818E+01 -0.19854869828E+00  0.56313789301E+00  0.90007729427E+02  0.89999990655E+02 0.  0.
         12    1    1    2    0    0 -0.10180828818E+01  0.19854869828E+00 -0.56313789301E+00  0.11802705733E+01  0.00000000000E+00 0. -1.
         11    1    3    3    0    0  0.16760303380E+01 -0.31604927533E+02 -0.17909402096E+02  0.36365192228E+02  0.51100000000E-03 0. -1.
        -11    1    3    3    0    0 -0.50673285526E+01 -0.49904070464E+01 -0.62129369399E+01  0.94436521976E+01  0.51100000000E-03 0.  1.
        -12    1    3    3    0    0  0.44093810963E+01  0.36396785881E+02  0.24685476929E+02  0.44198885001E+02  0.00000000000E+00 0.  1.
</event>
<event>
 7    1  0.4008281E-015  0.9000775E+02  0.7816164E-02  0.1186339E+00
        -11   -1    0    0    0    0  0.00000000000E+00  0.00000000000E+00  0.45593999997E+02  0.45594000000E+02  0.51100000000E-03 0.  1.
         11   -1    0    0    0    0 -0.00000000000E+00 -0.00000000000E+00 -0.45593999997E+02  0.45594000000E+02  0.51100000000E-03 0. -1.
    9900012    2    1    2    0    0  0.45637123703E+00  0.92529795562E+00  0.57319077019E+00  0.90007746353E+02  0.90000007805E+02 0.  0.
         12    1    1    2    0    0 -0.45637123703E+00 -0.92529795562E+00 -0.57319077019E+00  0.11802536472E+01  0.00000000000E+00 0. -1.
         11    1    3    3    0    0 -0.36859739115E+01  0.44227004658E+01 -0.77590401280E+01  0.96617486542E+01  0.51100000000E-03 0. -1.
        -11    1    3    3    0    0  0.21828873439E+02 -0.29479772814E+02 -0.16565316728E+02  0.40248806682E+02  0.51100000000E-03 0.  1.
         12    1    3    3    0    0 -0.17686528291E+02  0.25982370304E+02  0.24897547626E+02  0.40097191016E+02  0.00000000000E+00 0. -1.
</event>
<event>
 7    1  0.4008281E-015  0.9000780E+02  0.7816164E-02  0.1186339E+00
        -11   -1    0    0    0    0  0.00000000000E+00  0.00000000000E+00  0.45593999997E+02  0.45594000000E+02  0.51100000000E-03 0.  1.
         11   -1    0    0    0    0 -0.00000000000E+00 -0.00000000000E+00 -0.45593999997E+02  0.45594000000E+02  0.51100000000E-03 0. -1.
    9900012    2    1    2    0    0  0.30472072125E+00 -0.93120255941E+00  0.65793585116E+00  0.90007799801E+02  0.90000061959E+02 0.  0.
         12    1    1    2    0    0 -0.30472072125E+00  0.93120255941E+00 -0.65793585116E+00  0.11802001986E+01  0.00000000000E+00 0. -1.
         11    1    3    3    0    0 -0.18276739406E+02  0.28902534991E+01 -0.26107332120E+02  0.31999774364E+02  0.51100000000E-03 0. -1.
        -11    1    3    3    0    0 -0.11625417781E+02 -0.69319967427E+01 -0.46534726988E+01  0.14312851772E+02  0.51100000000E-03 0.  1.
        -12    1    3    3    0    0  0.30206877909E+02  0.31105406841E+01  0.31418740670E+02  0.43695173666E+02  0.00000000000E+00 0.  1.
</event>
<event>
 7    1  0.4008281E-015  0.9000780E+02  0.7816164E-02  0.1186339E+00
        -11   -1    0    0    0    0  0.00000000000E+00  0.00000000000E+00  0.45593999997E+02  0.45594000000E+02  0.51100000000E-03 0. -1.
         11   -1    0    0    0    0 -0.00000000000E+00 -0.00000000000E+00 -0.45593999997E+02  0.45594000000E+02  0.51100000000E-03 0.  1.
    9900012    2    1    2    0    0 -0.18014334327E+00  0.41526926764E+00 -0.10899459285E+01  0.90007795647E+02  0.90000057749E+02 0.  0.
         12    1    1    2    0    0  0.18014334327E+00 -0.41526926764E+00  0.10899459285E+01  0.11802043534E+01  0.00000000000E+00 0. -1.
         11    1    3    3    0    0  0.10657049646E+02 -0.33381317360E+02  0.14638510317E+02  0.37975927117E+02  0.51100000000E-03 0. -1.
        -11    1    3    3    0    0  0.11956147939E+02  0.98357311158E+01 -0.16660180088E+00  0.15482856214E+02  0.51100000000E-03 0.  1.
        -12    1    3    3    0    0 -0.22793340928E+02  0.23960855512E+02 -0.15561854444E+02  0.36549012316E+02  0.00000000000E+00 0.  1.
</event>
<event>
 7    1  0.4008281E-015  0.9000805E+02  0.7816164E-02  0.1186338E+00
        -11   -1    0    0    0    0  0.00000000000E+00  0.00000000000E+00  0.45593999997E+02  0.45594000000E+02  0.51100000000E-03 0.  1.
         11   -1    0    0    0    0 -0.00000000000E+00 -0.00000000000E+00 -0.45593999997E+02  0.45594000000E+02  0.51100000000E-03 0. -1.
    9900012    2    1    2    0    0 -0.11711120429E+01  0.43861495336E-01 -0.13732007466E+00  0.90008049132E+02  0.90000314580E+02 0.  0.
         12    1    1    2    0    0  0.11711120429E+01 -0.43861495336E-01  0.13732007466E+00  0.11799508679E+01  0.00000000000E+00 0. -1.
         11    1    3    3    0    0  0.51050840540E+01 -0.11022177484E+02 -0.37317889987E+02  0.39245065843E+02  0.51100000000E-03 0. -1.
        -11    1    3    3    0    0 -0.90870860437E+01 -0.21574925239E+01 -0.17939239310E+01  0.95104190280E+01  0.51100000000E-03 0.  1.
        -12    1    3    3    0    0  0.28108899469E+01  0.13223531503E+02  0.38974493844E+02  0.41252564261E+02  0.00000000000E+00 0.  1.
</event>
<event>
 7    1  0.4008281E-015  0.9000773E+02  0.7816164E-02  0.1186339E+00
        -11   -1    0    0    0    0  0.00000000000E+00  0.00000000000E+00  0.45593999997E+02  0.45594000000E+02  0.51100000000E-03 0.  1.
         11   -1    0    0    0    0 -0.00000000000E+00 -0.00000000000E+00 -0.45593999997E+02  0.45594000000E+02  0.51100000000E-03 0. -1.
    9900012    2    1    2    0    0 -0.76454090445E+00  0.83804530922E+00  0.32586528213E+00  0.90007732693E+02  0.89999993964E+02 0.  0.
         12    1    1    2    0    0  0.76454090445E+00 -0.83804530922E+00 -0.32586528213E+00  0.11802673074E+01  0.00000000000E+00 0. -1.
         11    1    3    3    0    0 -0.39640369329E+02  0.78514570299E+01 -0.13511618318E+02  0.42609483544E+02  0.51100000000E-03 0. -1.
        -11    1    3    3    0    0  0.44361661247E+01 -0.71155005913E+01  0.95242134715E+01  0.12689387734E+02  0.51100000000E-03 0.  1.
        -12    1    3    3    0    0  0.34439662300E+02  0.10208887059E+00  0.43132701290E+01  0.34708861414E+02  0.00000000000E+00 0.  1.
</event>
<event>
 7    1  0.4008281E-015  0.9000759E+02  0.7816164E-02  0.1186339E+00
        -11   -1    0    0    0    0  0.00000000000E+00  0.00000000000E+00  0.45593999997E+02  0.45594000000E+02  0.51100000000E-03 0. -1.
         11   -1    0    0    0    0 -0.00000000000E+00 -0.00000000000E+00 -0.45593999997E+02  0.45594000000E+02  0.51100000000E-03 0.  1.
    9900012    2    1    2    0    0 -0.11063688938E+01 -0.21614529496E+00 -0.35012189312E+00  0.90007594876E+02  0.89999854328E+02 0.  0.
         12    1    1    2    0    0  0.11063688938E+01  0.21614529496E+00  0.35012189312E+00  0.11804051244E+01  0.00000000000E+00 0. -1.
         11    1    3    3    0    0  0.30115351897E+02  0.11164296908E+02  0.25160556070E+02  0.40799871658E+02  0.51100000000E-03 0. -1.
        -11    1    3    3    0    0 -0.60725002222E+01  0.30240231419E+01  0.39754113346E+01  0.78628156822E+01  0.51100000000E-03 0.  1.
        -12    1    3    3    0    0 -0.25149220568E+02 -0.14404465345E+02 -0.29486089297E+02  0.41344907535E+02  0.00000000000E+00 0.  1.
</event>
<event>
 7    1  0.4008281E-015  0.9000771E+02  0.7816164E-02  0.1186339E+00
        -11   -1    0    0    0    0  0.00000000000E+00  0.00000000000E+00  0.45593999997E+02  0.45594000000E+02  0.51100000000E-03 0.  1.
         11   -1    0    0    0    0 -0.00000000000E+00 -0.00000000000E+00 -0.45593999997E+02  0.45594000000E+02  0.51100000000E-03 0. -1.
    9900012    2    1    2    0    0 -0.17842784923E+00  0.10866748317E+01  0.42471483830E+00  0.90007711314E+02  0.89999972304E+02 0.  0.
         12    1    1    2    0    0  0.17842784923E+00 -0.10866748317E+01 -0.42471483830E+00  0.11802886855E+01  0.00000000000E+00 0. -1.
         11    1    3    3    0    0  0.15503024768E+02  0.55870077531E+00 -0.23648726703E+02  0.28282825150E+02  0.51100000000E-03 0. -1.
        -11    1    3    3    0    0  0.13541858700E+02 -0.13593984786E+02 -0.30476382831E+01  0.19428496050E+02  0.51100000000E-03 0.  1.
        -12    1    3    3    0    0 -0.29223311316E+02  0.14121958843E+02  0.27121079825E+02  0.42296390114E+02  0.00000000000E+00 0.  1.
</event>
<event>
 7    1  0.4008281E-015  0.9000776E+02  0.7816164E-02  0.1186339E+00
        -11   -1    0    0    0    0  0.00000000000E+00  0.00000000000E+00  0.45593999997E+02  0.45594000000E+02  0.51100000000E-03 0. -1.
         11   -1    0    0    0    0 -0.00000000000E+00 -0.00000000000E+00 -0.45593999997E+02  0.45594000000E+02  0.51100000000E-03 0.  1.
    9900012    2    1    2    0    0 -0.49809540671E+00  0.61269580194E+00 -0.87719709453E+00  0.90007758532E+02  0.90000020145E+02 0.  0.
         12    1    1    2    0    0  0.49809540671E+00 -0.61269580194E+00  0.87719709453E+00  0.11802414679E+01  0.00000000000E+00 0. -1.
         11    1    3    3    0    0 -0.30959716338E+02 -0.26535014531E+02 -0.93747889442E+01  0.41838949556E+02  0.51100000000E-03 0. -1.
        -11    1    3    3    0    0 -0.10485536163E+01  0.46602143936E+01  0.81606558003E+01  0.94558641187E+01  0.51100000000E-03 0.  1.
        -12    1    3    3    0    0  0.31510174548E+02  0.22487495939E+02  0.33693604937E+00  0.38712944858E+02  0.00000000000E+00 0.  1.
</event>
<event>
 7    1  0.4008281E-015  0.9000745E+02  0.7816164E-02  0.1186340E+00
        -11   -1    0    0    0    0  0.00000000000E+00  0.00000000000E+00  0.45593999997E+02  0.45594000000E+02  0.51100000000E-03 0.  1.
         11   -1    0    0    0    0 -0.00000000000E+00 -0.00000000000E+00 -0.45593999997E+02  0.45594000000E+02  0.51100000000E-03 0. -1.
    9900012    2    1    2    0    0  0.13906496718E+00  0.81819613660E+00 -0.83959351067E+00  0.90007448753E+02  0.89999706276E+02 0.  0.
         12    1    1    2    0    0 -0.13906496718E+00 -0.81819613660E+00  0.83959351067E+00  0.11805512468E+01  0.00000000000E+00 0. -1.
         11    1    3    3    0    0 -0.35938114565E+01 -0.52662440792E+01 -0.74178653247E+01  0.97812848708E+01  0.51100000000E-03 0. -1.
        -11    1    3    3    0    0  0.51457546484E+00  0.61977336094E+01  0.43108239252E+02  0.43554528829E+02  0.51100000000E-03 0.  1.
         12    1    3    3    0    0  0.32183009588E+01 -0.11329339359E+00 -0.36529967438E+02  0.36671635054E+02  0.00000000000E+00 0. -1.
</event>
<event>
 7    1  0.4008281E-015  0.9000774E+02  0.7816164E-02  0.1186339E+00
        -11   -1    0    0    0    0  0.00000000000E+00  0.00000000000E+00  0.45593999997E+02  0.45594000000E+02  0.51100000000E-03 0.  1.
         11   -1    0    0    0    0 -0.00000000000E+00 -0.00000000000E+00 -0.45593999997E+02  0.45594000000E+02  0.51100000000E-03 0. -1.
    9900012    2    1    2    0    0 -0.10238869991E+01 -0.46429260234E+00  0.35930330278E+00  0.90007741100E+02  0.90000002483E+02 0.  0.
         12    1    1    2    0    0  0.10238869991E+01  0.46429260234E+00 -0.35930330278E+00  0.11802588999E+01  0.00000000000E+00 0. -1.
         11    1    3    3    0    0 -0.80681782483E+01  0.58075726419E+01 -0.15117216950E+01  0.10055282342E+02  0.51100000000E-03 0. -1.
        -11    1    3    3    0    0 -0.63894855234E+01 -0.34815395560E+01  0.39362418321E+02  0.40029321993E+02  0.51100000000E-03 0.  1.
         12    1    3    3    0    0  0.13433776773E+02 -0.27903256882E+01 -0.37491393323E+02  0.39923136764E+02  0.00000000000E+00 0. -1.
</event>
<event>
 7    1  0.4008281E-015  0.9000778E+02  0.7816164E-02  0.1186339E+00
        -11   -1    0    0    0    0  0.00000000000E+00  0.00000000000E+00  0.45593999997E+02  0.45594000000E+02  0.51100000000E-03 0.  1.
         11   -1    0    0    0    0 -0.00000000000E+00 -0.00000000000E+00 -0.45593999997E+02  0.45594000000E+02  0.51100000000E-03 0. -1.
    9900012    2    1    2    0    0 -0.76754148376E-01  0.59748622811E+00  0.10149063741E+01  0.90007781401E+02  0.90000043316E+02 0.  0.
         12    1    1    2    0    0  0.76754148376E-01 -0.59748622811E+00 -0.10149063741E+01  0.11802185985E+01  0.00000000000E+00 0. -1.
         11    1    3    3    0    0  0.36729270238E+01 -0.72437708513E+01 -0.37859878469E+01  0.89608210175E+01  0.51100000000E-03 0. -1.
        -11    1    3    3    0    0  0.24115592910E+02  0.12886019473E+01  0.32981476171E+02  0.40877867937E+02  0.51100000000E-03 0.  1.
         12    1    3    3    0    0 -0.27865274083E+02  0.65526551322E+01 -0.28180581950E+02  0.40169092447E+02  0.00000000000E+00 0. -1.
</event>
<event>
 7    1  0.4008281E-015  0.9000770E+02  0.7816164E-02  0.1186339E+00
        -11   -1    0    0    0    0  0.00000000000E+00  0.00000000000E+00  0.45593999997E+02  0.45594000000E+02  0.51100000000E-03 0.  1.
         11   -1    0    0    0    0 -0.00000000000E+00 -0.00000000000E+00 -0.45593999997E+02  0.45594000000E+02  0.51100000000E-03 0. -1.
    9900012    2    1    2    0    0  0.34483456929E+00  0.64922938661E+00  0.92341143596E+00  0.90007704123E+02  0.89999965018E+02 0.  0.
         12    1    1    2    0    0 -0.34483456929E+00 -0.64922938661E+00 -0.92341143596E+00  0.11802958768E+01  0.00000000000E+00 0. -1.
         11    1    3    3    0    0  0.63597913886E+01  0.47162969758E+01  0.98635307503E+01  0.12648305926E+02  0.51100000000E-03 0. -1.
        -11    1    3    3    0    0  0.10314113007E+02 -0.37873845639E+02 -0.32589771781E+01  0.39388196749E+02  0.51100000000E-03 0.  1.
         12    1    3    3    0    0 -0.16329069826E+02  0.33806778050E+02 -0.56811421363E+01  0.37971201449E+02  0.00000000000E+00 0. -1.
</event>
<event>
 7    1  0.4008281E-015  0.9000760E+02  0.7816164E-02  0.1186339E+00
        -11   -1    0    0    0    0  0.00000000000E+00  0.00000000000E+00  0.45593999997E+02  0.45594000000E+02  0.51100000000E-03 0. -1.
         11   -1    0    0    0    0 -0.00000000000E+00 -0.00000000000E+00 -0.45593999997E+02  0.45594000000E+02  0.51100000000E-03 0.  1.
    9900012    2    1    2    0    0 -0.60309837673E+00  0.15847120145E+00  0.10022547738E+01  0.90007595237E+02  0.89999854694E+02 0.  0.
         12    1    1    2    0    0  0.60309837673E+00 -0.15847120145E+00 -0.10022547738E+01  0.11804047633E+01  0.00000000000E+00 0. -1.
         11    1    3    3    0    0  0.40848628709E+00  0.28333144635E+02  0.23468339565E+02  0.36792620295E+02  0.51100000000E-03 0. -1.
        -11    1    3    3    0    0  0.40304084434E+01  0.87386780513E+01  0.16337534209E+00  0.96247274283E+01  0.51100000000E-03 0.  1.
        -12    1    3    3    0    0 -0.50419931072E+01 -0.36913351485E+02 -0.22629460133E+02  0.43590247513E+02  0.00000000000E+00 0.  1.
</event>
<event>
 7    1  0.4395038E-015  0.9000879E+02  0.7816164E-02  0.1186337E+00
        -11   -1    0    0    0    0  0.00000000000E+00  0.00000000000E+00  0.45593999997E+02  0.45594000000E+02  0.51100000000E-03 0.  1.
         11   -1    0    0    0    0 -0.00000000000E+00 -0.00000000000E+00 -0.45593999997E+02  0.45594000000E+02  0.51100000000E-03 0. -1.
    9900012    2    1    2    0    0 -0.67509290553E+00 -0.94671332859E+00  0.19625500391E+00  0.90008791543E+02  0.90001066785E+02 0.  0.
         12    1    1    2    0    0  0.67509290553E+00  0.94671332859E+00 -0.19625500391E+00  0.11792084566E+01  0.00000000000E+00 0. -1.
         11    1    3    3    0    0 -0.13473526344E+01  0.39596400201E+01  0.93518361476E+01  0.10244556984E+02  0.51100000000E-03 0. -1.
        -11    1    3    3    0    0  0.82380517282E+01  0.35036952014E+02  0.57807855025E+01  0.36453682722E+02  0.51100000000E-03 0.  1.
         12    1    3    3    0    0 -0.75657919994E+01 -0.39943305363E+02 -0.14936366646E+02  0.43310551837E+02  0.00000000000E+00 0. -1.
</event>
<event>
 7    1  0.4008281E-015  0.9000773E+02  0.7816164E-02  0.1186339E+00
        -11   -1    0    0    0    0  0.00000000000E+00  0.00000000000E+00  0.45593999997E+02  0.45594000000E+02  0.51100000000E-03 0. -1.
         11   -1    0    0    0    0 -0.00000000000E+00 -0.00000000000E+00 -0.45593999997E+02  0.45594000000E+02  0.51100000000E-03 0.  1.
    9900012    2    1    2    0    0  0.22332744043E-01 -0.97909127419E+00 -0.65872977095E+00  0.90007727410E+02  0.89999988612E+02 0.  0.
         12    1    1    2    0    0 -0.22332744043E-01  0.97909127419E+00  0.65872977095E+00  0.11802725896E+01  0.00000000000E+00 0. -1.
         11    1    3    3    0    0 -0.80550909596E+01 -0.18303612601E+01 -0.18062844239E+01  0.84556121240E+01  0.51100000000E-03 0. -1.
        -11    1    3    3    0    0  0.24800728039E+02  0.34134412529E+02 -0.85760025719E+01  0.43055569330E+02  0.51100000000E-03 0.  1.
         12    1    3    3    0    0 -0.16723304335E+02 -0.33283142543E+02  0.97235572249E+01  0.38496545956E+02  0.00000000000E+00 0. -1.
</event>
<event>
 7    1  0.4008281E-015  0.9000770E+02  0.7816164E-02  0.1186339E+00
        -11   -1    0    0    0    0  0.00000000000E+00  0.00000000000E+00  0.45593999997E+02  0.45594000000E+02  0.51100000000E-03 0. -1.
         11   -1    0    0    0    0 -0.00000000000E+00 -0.00000000000E+00 -0.45593999997E+02  0.45594000000E+02  0.51100000000E-03 0.  1.
    9900012    2    1    2    0    0 -0.14927990779E+00 -0.11519866245E+01  0.20915589809E+00  0.90007701790E+02  0.89999962654E+02 0.  0.
         12    1    1    2    0    0  0.14927990779E+00  0.11519866245E+01 -0.20915589809E+00  0.11802982096E+01  0.00000000000E+00 0. -1.
         11    1    3    3    0    0 -0.36023072189E+02 -0.13243635529E+02 -0.59604358933E+01  0.38840473842E+02  0.51100000000E-03 0. -1.
        -11    1    3    3    0    0  0.11916495349E+01 -0.96750258075E+01 -0.66070648947E-01  0.97483597893E+01  0.51100000000E-03 0.  1.
        -12    1    3    3    0    0  0.34682142746E+02  0.21766674713E+02  0.62356624403E+01  0.41418868159E+02  0.00000000000E+00 0.  1.
</event>
<event>
 7    1  0.4008281E-015  0.9000769E+02  0.7816164E-02  0.1186339E+00
        -11   -1    0    0    0    0  0.00000000000E+00  0.00000000000E+00  0.45593999997E+02  0.45594000000E+02  0.51100000000E-03 0.  1.
         11   -1    0    0    0    0 -0.00000000000E+00 -0.00000000000E+00 -0.45593999997E+02  0.45594000000E+02  0.51100000000E-03 0. -1.
    9900012    2    1    2    0    0  0.17213768750E+00 -0.82107811399E+00  0.83025939472E+00  0.90007690161E+02  0.89999950871E+02 0.  0.
         12    1    1    2    0    0 -0.17213768750E+00  0.82107811399E+00 -0.83025939472E+00  0.11803098387E+01  0.00000000000E+00 0. -1.
         11    1    3    3    0    0 -0.74310475760E+01 -0.18710798714E+01  0.67085709408E+01  0.10184612525E+02  0.51100000000E-03 0. -1.
        -11    1    3    3    0    0  0.25370162498E+02 -0.21730178702E+02  0.21740217129E+02  0.39855775650E+02  0.51100000000E-03 0.  1.
         12    1    3    3    0    0 -0.17766977235E+02  0.22780180459E+02 -0.27618528675E+02  0.39967301986E+02  0.00000000000E+00 0. -1.
</event>
<event>
 7    1  0.4008281E-015  0.9000768E+02  0.7816164E-02  0.1186339E+00
        -11   -1    0    0    0    0  0.00000000000E+00  0.00000000000E+00  0.45593999997E+02  0.45594000000E+02  0.51100000000E-03 0. -1.
         11   -1    0    0    0    0 -0.00000000000E+00 -0.00000000000E+00 -0.45593999997E+02  0.45594000000E+02  0.51100000000E-03 0.  1.
    9900012    2    1    2    0    0  0.10431645475E+01  0.38641355080E+00 -0.39451732400E+00  0.90007681558E+02  0.89999942155E+02 0.  0.
         12    1    1    2    0    0 -0.10431645475E+01 -0.38641355080E+00  0.39451732400E+00  0.11803184419E+01  0.00000000000E+00 0. -1.
         11    1    3    3    0    0 -0.70836323146E+01 -0.44877433117E+01  0.40829034001E-01  0.83856636035E+01  0.51100000000E-03 0. -1.
        -11    1    3    3    0    0 -0.94030270450E+01 -0.23420185098E+02 -0.28512063040E+02  0.38077023606E+02  0.51100000000E-03 0.  1.
         12    1    3    3    0    0  0.17529823907E+02  0.28294341961E+02  0.28076716682E+02  0.43544994349E+02  0.00000000000E+00 0. -1.
</event>
<event>
 7    1  0.4008281E-015  0.9000773E+02  0.7816164E-02  0.1186339E+00
        -11   -1    0    0    0    0  0.00000000000E+00  0.00000000000E+00  0.45593999997E+02  0.45594000000E+02  0.51100000000E-03 0.  1.
         11   -1    0    0    0    0 -0.00000000000E+00 -0.00000000000E+00 -0.45593999997E+02  0.45594000000E+02  0.51100000000E-03 0. -1.
    9900012    2    1    2    0    0 -0.92897593809E-01 -0.77508097446E+00  0.88524739667E+00  0.90007727390E+02  0.89999988592E+02 0.  0.
         12    1    1    2    0    0  0.92897593809E-01  0.77508097446E+00 -0.88524739667E+00  0.11802726097E+01  0.00000000000E+00 0. -1.
         11    1    3    3    0    0 -0.30776187397E+02 -0.15048501424E+02 -0.21400274063E+02  0.40393103818E+02  0.51100000000E-03 0. -1.
        -11    1    3    3    0    0  0.40913009834E+01  0.58663775649E+01 -0.64062669015E+01  0.96017386626E+01  0.51100000000E-03 0.  1.
        -12    1    3    3    0    0  0.26591988820E+02  0.84070428842E+01  0.28691788361E+02  0.40012884910E+02  0.00000000000E+00 0.  1.
</event>
<event>
 7    1  0.4008281E-015  0.9000769E+02  0.7816164E-02  0.1186339E+00
        -11   -1    0    0    0    0  0.00000000000E+00  0.00000000000E+00  0.45593999997E+02  0.45594000000E+02  0.51100000000E-03 0. -1.
         11   -1    0    0    0    0 -0.00000000000E+00 -0.00000000000E+00 -0.45593999997E+02  0.45594000000E+02  0.51100000000E-03 0.  1.
    9900012    2    1    2    0    0 -0.11345934045E+01  0.29126266734E+00  0.14492052241E+00  0.90007687290E+02  0.89999947963E+02 0.  0.
         12    1    1    2    0    0  0.11345934045E+01 -0.29126266734E+00 -0.14492052241E+00  0.11803127097E+01  0.00000000000E+00 0. -1.
         11    1    3    3    0    0 -0.37479892198E+01 -0.73282532062E+01 -0.83655089845E+01  0.11735947302E+02  0.51100000000E-03 0. -1.
        -11    1    3    3    0    0  0.39213725730E+01  0.20405524223E+02 -0.30664931025E+02  0.37041875988E+02  0.51100000000E-03 0.  1.
         12    1    3    3    0    0 -0.13079767577E+01 -0.12786008350E+02  0.39175360532E+02  0.41229864001E+02  0.00000000000E+00 0. -1.
</event>
<event>
 7    1  0.4008281E-015  0.9000781E+02  0.7816164E-02  0.1186339E+00
        -11   -1    0    0    0    0  0.00000000000E+00  0.00000000000E+00  0.45593999997E+02  0.45594000000E+02  0.51100000000E-03 0.  1.
         11   -1    0    0    0    0 -0.00000000000E+00 -0.00000000000E+00 -0.45593999997E+02  0.45594000000E+02  0.51100000000E-03 0. -1.
    9900012    2    1    2    0    0  0.50702836602E+00  0.85822396239E-01  0.10622626088E+01  0.90007811414E+02  0.90000073725E+02 0.  0.
         12    1    1    2    0    0 -0.50702836602E+00 -0.85822396239E-01 -0.10622626088E+01  0.11801885856E+01  0.00000000000E+00 0. -1.
         11    1    3    3    0    0  0.28039768523E+02 -0.11495703583E+02 -0.18994816514E+02  0.35765666139E+02  0.51100000000E-03 0. -1.
        -11    1    3    3    0    0  0.45120589609E+01  0.28733377017E+01 -0.87670843019E+01  0.10270175901E+02  0.51100000000E-03 0.  1.
        -12    1    3    3    0    0 -0.32044799117E+02  0.87081882780E+01  0.28824163425E+02  0.43971969375E+02  0.00000000000E+00 0.  1.
</event>
<event>
 7    1  0.4008281E-015  0.9000776E+02  0.7816164E-02  0.1186339E+00
        -11   -1    0    0    0    0  0.00000000000E+00  0.00000000000E+00  0.45593999997E+02  0.45594000000E+02  0.51100000000E-03 0. -1.
         11   -1    0    0    0    0 -0.00000000000E+00 -0.00000000000E+00 -0.45593999997E+02  0.45594000000E+02  0.51100000000E-03 0.  1.
    9900012    2    1    2    0    0  0.18218933680E+00 -0.11618705035E+01  0.99141152537E-01  0.90007760622E+02  0.90000022262E+02 0.  0.
         12    1    1    2    0    0 -0.18218933680E+00  0.11618705035E+01 -0.99141152537E-01  0.11802393780E+01  0.00000000000E+00 0. -1.
         11    1    3    3    0    0 -0.80383056926E+01  0.87400532072E+00  0.52865130153E+01  0.96605105368E+01  0.51100000000E-03 0. -1.
        -11    1    3    3    0    0  0.23297118458E+02  0.25284486063E+02  0.20413807198E+02  0.39984803220E+02  0.51100000000E-03 0.  1.
         12    1    3    3    0    0 -0.15076623429E+02 -0.27320361887E+02 -0.25601179061E+02  0.40362446866E+02  0.00000000000E+00 0. -1.
</event>
<event>
 7    1  0.4008281E-015  0.9000774E+02  0.7816164E-02  0.1186339E+00
        -11   -1    0    0    0    0  0.00000000000E+00  0.00000000000E+00  0.45593999997E+02  0.45594000000E+02  0.51100000000E-03 0.  1.
         11   -1    0    0    0    0 -0.00000000000E+00 -0.00000000000E+00 -0.45593999997E+02  0.45594000000E+02  0.51100000000E-03 0. -1.
    9900012    2    1    2    0    0 -0.62754906247E+00 -0.87539739836E+00  0.48256364886E+00  0.90007743203E+02  0.90000004614E+02 0.  0.
         12    1    1    2    0    0  0.62754906247E+00  0.87539739836E+00 -0.48256364886E+00  0.11802567967E+01  0.00000000000E+00 0. -1.
         11    1    3    3    0    0 -0.16996834715E+01 -0.82598327665E+01  0.18163581718E+01  0.86262922802E+01  0.51100000000E-03 0. -1.
        -11    1    3    3    0    0  0.36077624524E+02  0.16786920552E+02  0.13779985170E+02  0.42110375022E+02  0.51100000000E-03 0.  1.
         12    1    3    3    0    0 -0.35005490115E+02 -0.94024851844E+01 -0.15113779693E+02  0.39271075901E+02  0.00000000000E+00 0. -1.
</event>
<event>
 7    1  0.4008281E-015  0.9000782E+02  0.7816164E-02  0.1186339E+00
        -11   -1    0    0    0    0  0.00000000000E+00  0.00000000000E+00  0.45593999997E+02  0.45594000000E+02  0.51100000000E-03 0.  1.
         11   -1    0    0    0    0 -0.00000000000E+00 -0.00000000000E+00 -0.45593999997E+02  0.45594000000E+02  0.51100000000E-03 0. -1.
    9900012    2    1    2    0    0  0.36836019533E+00  0.16657469855E+00  0.11087826779E+01  0.90007815527E+02  0.90000077892E+02 0.  0.
         12    1    1    2    0    0 -0.36836019533E+00 -0.16657469855E+00 -0.11087826779E+01  0.11801844731E+01  0.00000000000E+00 0. -1.
         11    1    3    3    0    0 -0.53005565746E+01 -0.73543650039E+01  0.58295679921E+01  0.10778053992E+02  0.51100000000E-03 0. -1.
        -11    1    3    3    0    0  0.16809505187E+02  0.21379279343E+02  0.29833340376E+02  0.40369063007E+02  0.51100000000E-03 0.  1.
         12    1    3    3    0    0 -0.11140588417E+02 -0.13858339641E+02 -0.34554125690E+02  0.38860698528E+02  0.00000000000E+00 0. -1.
</event>
<event>
 7    1  0.4008281E-015  0.9000778E+02  0.7816164E-02  0.1186339E+00
        -11   -1    0    0    0    0  0.00000000000E+00  0.00000000000E+00  0.45593999997E+02  0.45594000000E+02  0.51100000000E-03 0.  1.
         11   -1    0    0    0    0 -0.00000000000E+00 -0.00000000000E+00 -0.45593999997E+02  0.45594000000E+02  0.51100000000E-03 0. -1.
    9900012    2    1    2    0    0 -0.10501475103E+01  0.38692391634E+00 -0.37471028786E+00  0.90007776415E+02  0.90000038264E+02 0.  0.
         12    1    1    2    0    0  0.10501475103E+01 -0.38692391634E+00  0.37471028786E+00  0.11802235849E+01  0.00000000000E+00 0. -1.
         11    1    3    3    0    0 -0.74323625565E+01 -0.14202661232E+01 -0.58816165578E+01  0.95838709625E+01  0.51100000000E-03 0. -1.
        -11    1    3    3    0    0 -0.11601351583E+02 -0.14053164532E+02 -0.31462670824E+02  0.36359076549E+02  0.51100000000E-03 0.  1.
         12    1    3    3    0    0  0.17983566629E+02  0.15860354571E+02  0.36969577094E+02  0.44064828903E+02  0.00000000000E+00 0. -1.
</event>
<event>
 7    1  0.4008281E-015  0.9000787E+02  0.7816164E-02  0.1186339E+00
        -11   -1    0    0    0    0  0.00000000000E+00  0.00000000000E+00  0.45593999997E+02  0.45594000000E+02  0.51100000000E-03 0.  1.
         11   -1    0    0    0    0 -0.00000000000E+00 -0.00000000000E+00 -0.45593999997E+02  0.45594000000E+02  0.51100000000E-03 0. -1.
    9900012    2    1    2    0    0  0.49040016991E+00  0.10380830266E+01  0.27312197015E+00  0.90007871063E+02  0.90000134161E+02 0.  0.
         12    1    1    2    0    0 -0.49040016991E+00 -0.10380830266E+01 -0.27312197015E+00  0.11801289367E+01  0.00000000000E+00 0. -1.
         11    1    3    3    0    0  0.24179663571E+01  0.69545971761E+01 -0.62558196127E+01  0.96616904563E+01  0.51100000000E-03 0. -1.
        -11    1    3    3    0    0 -0.33072637298E+02 -0.10515734638E+02  0.25969244275E+02  0.43344915057E+02  0.51100000000E-03 0.  1.
         12    1    3    3    0    0  0.31145071111E+02  0.45992204886E+01 -0.19440302692E+02  0.37001265550E+02  0.00000000000E+00 0. -1.
</event>
<event>
 7    1  0.4008281E-015  0.9000776E+02  0.7816164E-02  0.1186339E+00
        -11   -1    0    0    0    0  0.00000000000E+00  0.00000000000E+00  0.45593999997E+02  0.45594000000E+02  0.51100000000E-03 0. -1.
         11   -1    0    0    0    0 -0.00000000000E+00 -0.00000000000E+00 -0.45593999997E+02  0.45594000000E+02  0.51100000000E-03 0.  1.
    9900012    2    1    2    0    0  0.75246690746E-01 -0.78996830512E+00 -0.87364049416E+00  0.90007762863E+02  0.90000024532E+02 0.  0.
         12    1    1    2    0    0 -0.75246690746E-01  0.78996830512E+00  0.87364049416E+00  0.11802371374E+01  0.00000000000E+00 0. -1.
         11    1    3    3    0    0  0.94352056306E+01  0.30792009953E+02 -0.13621521307E+02  0.34967368005E+02  0.51100000000E-03 0. -1.
        -11    1    3    3    0    0 -0.33625301466E+01  0.81307805665E+01 -0.60681221077E+01  0.10688232210E+02  0.51100000000E-03 0.  1.
        -12    1    3    3    0    0 -0.59974287932E+01 -0.39712758824E+02  0.18816002921E+02  0.44352162647E+02  0.00000000000E+00 0.  1.
</event>
<event>
 7    1  0.4008281E-015  0.9000781E+02  0.7816164E-02  0.1186339E+00
        -11   -1    0    0    0    0  0.00000000000E+00  0.00000000000E+00  0.45593999997E+02  0.45594000000E+02  0.51100000000E-03 0. -1.
         11   -1    0    0    0    0 -0.00000000000E+00 -0.00000000000E+00 -0.45593999997E+02  0.45594000000E+02  0.51100000000E-03 0.  1.
    9900012    2    1    2    0    0 -0.11665750851E+01  0.12137852079E+00  0.13119960181E+00  0.90007812087E+02  0.90000074406E+02 0.  0.
         12    1    1    2    0    0  0.11665750851E+01 -0.12137852079E+00 -0.13119960181E+00  0.11801879130E+01  0.00000000000E+00 0. -1.
         11    1    3    3    0    0 -0.15448077228E+02 -0.32967161840E+02  0.89674511282E+01  0.37495226760E+02  0.51100000000E-03 0. -1.
        -11    1    3    3    0    0 -0.10154347436E+01 -0.56366816581E+01  0.60155974791E+01  0.83060641175E+01  0.51100000000E-03 0.  1.
        -12    1    3    3    0    0  0.15296936886E+02  0.38725222019E+02 -0.14851849005E+02  0.44206521209E+02  0.00000000000E+00 0.  1.
</event>
<event>
 7    1  0.4008281E-015  0.9000778E+02  0.7816164E-02  0.1186339E+00
        -11   -1    0    0    0    0  0.00000000000E+00  0.00000000000E+00  0.45593999997E+02  0.45594000000E+02  0.51100000000E-03 0.  1.
         11   -1    0    0    0    0 -0.00000000000E+00 -0.00000000000E+00 -0.45593999997E+02  0.45594000000E+02  0.51100000000E-03 0. -1.
    9900012    2    1    2    0    0  0.54417748879E+00  0.81086559065E+00  0.66279097174E+00  0.90007777980E+02  0.90000039849E+02 0.  0.
         12    1    1    2    0    0 -0.54417748879E+00 -0.81086559065E+00 -0.66279097174E+00  0.11802220205E+01  0.00000000000E+00 0. -1.
         11    1    3    3    0    0  0.26476319475E+02 -0.23231217578E+02  0.80852059424E+00  0.35232636417E+02  0.51100000000E-03 0. -1.
        -11    1    3    3    0    0  0.45670077070E+01 -0.60915587469E+01 -0.81574859615E+01  0.11158370169E+02  0.51100000000E-03 0.  1.
        -12    1    3    3    0    0 -0.30499149693E+02  0.30133641916E+02  0.80117563390E+01  0.43616771393E+02  0.00000000000E+00 0.  1.
</event>
<event>
 7    1  0.4008281E-015  0.9000770E+02  0.7816164E-02  0.1186339E+00
        -11   -1    0    0    0    0  0.00000000000E+00  0.00000000000E+00  0.45593999997E+02  0.45594000000E+02  0.51100000000E-03 0. -1.
         11   -1    0    0    0    0 -0.00000000000E+00 -0.00000000000E+00 -0.45593999997E+02  0.45594000000E+02  0.51100000000E-03 0.  1.
    9900012    2    1    2    0    0  0.34402014504E+00 -0.11286923032E+01 -0.28298967807E-01  0.90007704695E+02  0.89999965597E+02 0.  0.
         12    1    1    2    0    0 -0.34402014504E+00  0.11286923032E+01  0.28298967807E-01  0.11802953051E+01  0.00000000000E+00 0. -1.
         11    1    3    3    0    0 -0.24293641406E+02 -0.26304662002E+02  0.15142141592E+02  0.38876737364E+02  0.51100000000E-03 0. -1.
        -11    1    3    3    0    0  0.75370918635E+01 -0.26717122323E+01  0.78123256941E+01  0.11179366396E+02  0.51100000000E-03 0.  1.
        -12    1    3    3    0    0  0.17100569688E+02  0.27847681931E+02 -0.22982766254E+02  0.39951600935E+02  0.00000000000E+00 0.  1.
</event>
<event>
 7    1  0.4008281E-015  0.9000778E+02  0.7816164E-02  0.1186339E+00
        -11   -1    0    0    0    0  0.00000000000E+00  0.00000000000E+00  0.45593999997E+02  0.45594000000E+02  0.51100000000E-03 0. -1.
         11   -1    0    0    0    0 -0.00000000000E+00 -0.00000000000E+00 -0.45593999997E+02  0.45594000000E+02  0.51100000000E-03 0.  1.
    9900012    2    1    2    0    0 -0.53286229139E+00 -0.10404477159E+01  0.16261050194E+00  0.90007781441E+02  0.90000043356E+02 0.  0.
         12    1    1    2    0    0  0.53286229139E+00  0.10404477159E+01 -0.16261050194E+00  0.11802185588E+01  0.00000000000E+00 0. -1.
         11    1    3    3    0    0 -0.10642868853E+02  0.26054161719E+02 -0.13041070317E+01  0.28174291397E+02  0.51100000000E-03 0. -1.
        -11    1    3    3    0    0  0.92061949934E+01  0.15953421567E+02  0.34099249188E+01  0.18732145477E+02  0.51100000000E-03 0.  1.
        -12    1    3    3    0    0  0.90381156782E+00 -0.43048031003E+02 -0.19432073851E+01  0.43101344567E+02  0.00000000000E+00 0.  1.
</event>
<event>
 7    1  0.4008281E-015  0.9000757E+02  0.7816164E-02  0.1186339E+00
        -11   -1    0    0    0    0  0.00000000000E+00  0.00000000000E+00  0.45593999997E+02  0.45594000000E+02  0.51100000000E-03 0.  1.
         11   -1    0    0    0    0 -0.00000000000E+00 -0.00000000000E+00 -0.45593999997E+02  0.45594000000E+02  0.51100000000E-03 0. -1.
    9900012    2    1    2    0    0 -0.77807372927E+00  0.62740377037E-01 -0.88548650977E+00  0.90007567265E+02  0.89999826353E+02 0.  0.
         12    1    1    2    0    0  0.77807372927E+00 -0.62740377037E-01  0.88548650977E+00  0.11804327351E+01  0.00000000000E+00 0. -1.
         11    1    3    3    0    0  0.27519464395E+02  0.10473134883E+02 -0.18511000724E+02  0.34780233221E+02  0.51100000000E-03 0. -1.
        -11    1    3    3    0    0  0.11332254079E+02 -0.40236478297E+01  0.22034867924E+01  0.12225591138E+02  0.51100000000E-03 0.  1.
        -12    1    3    3    0    0 -0.39629792203E+02 -0.63867466763E+01  0.15422027422E+02  0.43001742906E+02  0.00000000000E+00 0.  1.
</event>
<event>
 7    1  0.4008281E-015  0.9000774E+02  0.7816164E-02  0.1186339E+00
        -11   -1    0    0    0    0  0.00000000000E+00  0.00000000000E+00  0.45593999997E+02  0.45594000000E+02  0.51100000000E-03 0. -1.
         11   -1    0    0    0    0 -0.00000000000E+00 -0.00000000000E+00 -0.45593999997E+02  0.45594000000E+02  0.51100000000E-03 0.  1.
    9900012    2    1    2    0    0  0.88794950780E+00  0.68796167075E+00 -0.36231135108E+00  0.90007739392E+02  0.90000000751E+02 0.  0.
         12    1    1    2    0    0 -0.88794950780E+00 -0.68796167075E+00  0.36231135108E+00  0.11802606085E+01  0.00000000000E+00 0. -1.
         11    1    3    3    0    0 -0.77238603555E+01 -0.26413984576E+01  0.17662677091E+01  0.83519283093E+01  0.51100000000E-03 0. -1.
        -11    1    3    3    0    0  0.16689525618E+02  0.36307721044E+02  0.16144182920E+02  0.43097859751E+02  0.51100000000E-03 0.  1.
         12    1    3    3    0    0 -0.80777157545E+01 -0.32978360915E+02 -0.18272761980E+02  0.38557951331E+02  0.00000000000E+00 0. -1.
</event>
<event>
 7    1  0.4008281E-015  0.9000771E+02  0.7816164E-02  0.1186339E+00
        -11   -1    0    0    0    0  0.00000000000E+00  0.00000000000E+00  0.45593999997E+02  0.45594000000E+02  0.51100000000E-03 0. -1.
         11   -1    0    0    0    0 -0.00000000000E+00 -0.00000000000E+00 -0.45593999997E+02  0.45594000000E+02  0.51100000000E-03 0.  1.
    9900012    2    1    2    0    0  0.32235929376E-01 -0.10026913951E+00 -0.11755763380E+01  0.90007714957E+02  0.89999975995E+02 0.  0.
         12    1    1    2    0    0 -0.32235929376E-01  0.10026913951E+00  0.11755763380E+01  0.11802850427E+01  0.00000000000E+00 0. -1.
         11    1    3    3    0    0  0.53366318219E+01 -0.35518135298E+02 -0.81945320879E+01  0.36839760188E+02  0.51100000000E-03 0. -1.
        -11    1    3    3    0    0  0.61983414106E+01 -0.63873582135E+01  0.38376927576E+01  0.96925573072E+01  0.51100000000E-03 0.  1.
        -12    1    3    3    0    0 -0.11502737303E+02  0.41805224372E+02  0.31812629923E+01  0.43475397463E+02  0.00000000000E+00 0.  1.
</event>
<event>
 7    1  0.4008281E-015  0.9000774E+02  0.7816164E-02  0.1186339E+00
        -11   -1    0    0    0    0  0.00000000000E+00  0.00000000000E+00  0.45593999997E+02  0.45594000000E+02  0.51100000000E-03 0.  1.
         11   -1    0    0    0    0 -0.00000000000E+00 -0.00000000000E+00 -0.45593999997E+02  0.45594000000E+02  0.51100000000E-03 0. -1.
    9900012    2    1    2    0    0  0.42772872154E+00 -0.10471582893E+01 -0.33691333100E+00  0.90007744547E+02  0.90000005975E+02 0.  0.
         12    1    1    2    0    0 -0.42772872154E+00  0.10471582893E+01  0.33691333100E+00  0.11802554532E+01  0.00000000000E+00 0. -1.
         11    1    3    3    0    0 -0.33396926006E+01 -0.41013729935E+01  0.51959767015E+01  0.74143766590E+01  0.51100000000E-03 0. -1.
        -11    1    3    3    0    0  0.29517891237E+02 -0.28709075580E+02  0.97782052933E+00  0.41188263583E+02  0.51100000000E-03 0.  1.
         12    1    3    3    0    0 -0.25750469915E+02  0.31763290284E+02 -0.65107105618E+01  0.41405104305E+02  0.00000000000E+00 0. -1.
</event>
<event>
 7    1  0.4351091E-015  0.9000783E+02  0.7816164E-02  0.1186339E+00
        -11   -1    0    0    0    0  0.00000000000E+00  0.00000000000E+00  0.45593999997E+02  0.45594000000E+02  0.51100000000E-03 0. -1.
         11   -1    0    0    0    0 -0.00000000000E+00 -0.00000000000E+00 -0.45593999997E+02  0.45594000000E+02  0.51100000000E-03 0.  1.
    9900012    2    1    2    0    0  0.81814759471E+00 -0.85040939273E+00  0.15694316293E-01  0.90007827159E+02  0.90000089678E+02 0.  0.
         12    1    1    2    0    0 -0.81814759471E+00  0.85040939273E+00 -0.15694316293E-01  0.11801728405E+01  0.00000000000E+00 0. -1.
         11    1    3    3    0    0 -0.82134962223E+01  0.38980306952E+01  0.38609314856E+00  0.90997380004E+01  0.51100000000E-03 0. -1.
        -11    1    3    3    0    0 -0.24063075909E+02  0.18423709056E+02 -0.19674553547E+02  0.36132433285E+02  0.51100000000E-03 0.  1.
         12    1    3    3    0    0  0.33094719726E+02 -0.23172149144E+02  0.19304154714E+02  0.44775655874E+02  0.00000000000E+00 0. -1.
</event>
<event>
 7    1  0.4008281E-015  0.9000773E+02  0.7816164E-02  0.1186339E+00
        -11   -1    0    0    0    0  0.00000000000E+00  0.00000000000E+00  0.45593999997E+02  0.45594000000E+02  0.51100000000E-03 0.  1.
         11   -1    0    0    0    0 -0.00000000000E+00 -0.00000000000E+00 -0.45593999997E+02  0.45594000000E+02  0.51100000000E-03 0. -1.
    9900012    2    1    2    0    0 -0.22312253900E+00 -0.22364657214E+00  0.11372013674E+01  0.90007733756E+02  0.89999995042E+02 0.  0.
         12    1    1    2    0    0  0.22312253900E+00  0.22364657214E+00 -0.11372013674E+01  0.11802662439E+01  0.00000000000E+00 0. -1.
         11    1    3    3    0    0  0.34841944328E+02  0.22608102558E+01 -0.24460305869E+02  0.42630727311E+02  0.51100000000E-03 0. -1.
        -11    1    3    3    0    0 -0.30483376558E+01  0.73229229274E+00  0.12071281255E+02  0.12471745902E+02  0.51100000000E-03 0.  1.
        -12    1    3    3    0    0 -0.32016729211E+02 -0.32167491207E+01  0.13526225982E+02  0.34905260543E+02  0.00000000000E+00 0.  1.
</event>
<event>
 7    1  0.4008281E-015  0.9000771E+02  0.7816164E-02  0.1186339E+00
        -11   -1    0    0    0    0  0.00000000000E+00  0.00000000000E+00  0.45593999997E+02  0.45594000000E+02  0.51100000000E-03 0. -1.
         11   -1    0    0    0    0 -0.00000000000E+00 -0.00000000000E+00 -0.45593999997E+02  0.45594000000E+02  0.51100000000E-03 0.  1.
    9900012    2    1    2    0    0  0.10508936627E+00  0.72269569517E+00 -0.92722749870E+00  0.90007710342E+02  0.89999971318E+02 0.  0.
         12    1    1    2    0    0 -0.10508936627E+00 -0.72269569517E+00  0.92722749870E+00  0.11802896581E+01  0.00000000000E+00 0. -1.
         11    1    3    3    0    0  0.14942166650E+02 -0.15665292799E+02  0.32018042659E+02  0.38650029736E+02  0.51100000000E-03 0. -1.
        -11    1    3    3    0    0  0.33380772293E+01 -0.65639801056E+01 -0.15795374199E+02  0.17427634399E+02  0.51100000000E-03 0.  1.
        -12    1    3    3    0    0 -0.18175154513E+02  0.22951968599E+02 -0.17149895959E+02  0.33930046206E+02  0.00000000000E+00 0.  1.
</event>
<event>
 7    1  0.4008281E-015  0.9000772E+02  0.7816164E-02  0.1186339E+00
        -11   -1    0    0    0    0  0.00000000000E+00  0.00000000000E+00  0.45593999997E+02  0.45594000000E+02  0.51100000000E-03 0. -1.
         11   -1    0    0    0    0 -0.00000000000E+00 -0.00000000000E+00 -0.45593999997E+02  0.45594000000E+02  0.51100000000E-03 0.  1.
    9900012    2    1    2    0    0  0.87863116166E+00  0.37763637361E+00 -0.69170616518E+00  0.90007720640E+02  0.89999981752E+02 0.  0.
         12    1    1    2    0    0 -0.87863116166E+00 -0.37763637361E+00  0.69170616518E+00  0.11802793601E+01  0.00000000000E+00 0. -1.
         11    1    3    3    0    0  0.13573717058E+00 -0.34698339864E+00  0.13046894610E+02  0.13052213655E+02  0.51100000000E-03 0. -1.
        -11    1    3    3    0    0 -0.25400164891E+02  0.19305585292E+02  0.13724308976E+02  0.34730831506E+02  0.51100000000E-03 0.  1.
         12    1    3    3    0    0  0.26143058882E+02 -0.18580965520E+02 -0.27462909751E+02  0.42224675479E+02  0.00000000000E+00 0. -1.
</event>
<event>
 7    1  0.4008281E-015  0.9000773E+02  0.7816164E-02  0.1186339E+00
        -11   -1    0    0    0    0  0.00000000000E+00  0.00000000000E+00  0.45593999997E+02  0.45594000000E+02  0.51100000000E-03 0.  1.
         11   -1    0    0    0    0 -0.00000000000E+00 -0.00000000000E+00 -0.45593999997E+02  0.45594000000E+02  0.51100000000E-03 0. -1.
    9900012    2    1    2    0    0 -0.20834718082E+00 -0.11553965733E+01  0.12115878808E+00  0.90007733402E+02  0.89999994683E+02 0.  0.
         12    1    1    2    0    0  0.20834718082E+00  0.11553965733E+01 -0.12115878808E+00  0.11802665976E+01  0.00000000000E+00 0. -1.
         11    1    3    3    0    0 -0.55856021964E+01  0.38431815833E+02 -0.50403993632E+01  0.39161320791E+02  0.51100000000E-03 0. -1.
        -11    1    3    3    0    0  0.13952205608E+02 -0.60967172071E+01 -0.25179401961E+01  0.15432887777E+02  0.51100000000E-03 0.  1.
        -12    1    3    3    0    0 -0.85749505928E+01 -0.33490495199E+02  0.76794983474E+01  0.35413524835E+02  0.00000000000E+00 0.  1.
</event>
<event>
 7    1  0.4008281E-015  0.9000816E+02  0.7816164E-02  0.1186338E+00
        -11   -1    0    0    0    0  0.00000000000E+00  0.00000000000E+00  0.45593999997E+02  0.45594000000E+02  0.51100000000E-03 0.  1.
         11   -1    0    0    0    0 -0.00000000000E+00 -0.00000000000E+00 -0.45593999997E+02  0.45594000000E+02  0.51100000000E-03 0. -1.
    9900012    2    1    2    0    0 -0.14813925007E+00 -0.10325716529E+01  0.55125033373E+00  0.90008158322E+02  0.90000425210E+02 0.  0.
         12    1    1    2    0    0  0.14813925007E+00  0.10325716529E+01 -0.55125033373E+00  0.11798416784E+01  0.00000000000E+00 0. -1.
         11    1    3    3    0    0 -0.23865359798E+02 -0.25652598566E+02  0.92518312223E+01  0.36238206256E+02  0.51100000000E-03 0. -1.
        -11    1    3    3    0    0  0.85537003723E+01 -0.11227430508E+02 -0.16004674570E+01  0.14205016094E+02  0.51100000000E-03 0.  1.
        -12    1    3    3    0    0  0.15163520175E+02  0.35847457421E+02 -0.71001134315E+01  0.39564935971E+02  0.00000000000E+00 0.  1.
</event>
<event>
 7    1  0.4008281E-015  0.9000774E+02  0.7816164E-02  0.1186339E+00
        -11   -1    0    0    0    0  0.00000000000E+00  0.00000000000E+00  0.45593999997E+02  0.45594000000E+02  0.51100000000E-03 0. -1.
         11   -1    0    0    0    0 -0.00000000000E+00 -0.00000000000E+00 -0.45593999997E+02  0.45594000000E+02  0.51100000000E-03 0.  1.
    9900012    2    1    2    0    0 -0.26114292919E+00 -0.99560472750E+00 -0.57757115507E+00  0.90007740350E+02  0.90000001722E+02 0.  0.
         12    1    1    2    0    0  0.26114292919E+00  0.99560472750E+00  0.57757115507E+00  0.11802596503E+01  0.00000000000E+00 0. -1.
         11    1    3    3    0    0 -0.69812111133E+01  0.63669921145E+01  0.13090920495E+01  0.95388479100E+01  0.51100000000E-03 0. -1.
        -11    1    3    3    0    0  0.15169306791E+02  0.34006527330E+02  0.53861626190E+01  0.37623962013E+02  0.51100000000E-03 0.  1.
         12    1    3    3    0    0 -0.84492386065E+01 -0.41369124172E+02 -0.72728258236E+01  0.42844930426E+02  0.00000000000E+00 0. -1.
</event>
<event>
 7    1  0.4008281E-015  0.9000771E+02  0.7816164E-02  0.1186339E+00
        -11   -1    0    0    0    0  0.00000000000E+00  0.00000000000E+00  0.45593999997E+02  0.45594000000E+02  0.51100000000E-03 0.  1.
         11   -1    0    0    0    0 -0.00000000000E+00 -0.00000000000E+00 -0.45593999997E+02  0.45594000000E+02  0.51100000000E-03 0. -1.
    9900012    2    1    2    0    0 -0.58836049964E+00 -0.46655160874E+00  0.91063188976E+00  0.90007708121E+02  0.89999969068E+02 0.  0.
         12    1    1    2    0    0  0.58836049964E+00  0.46655160874E+00 -0.91063188976E+00  0.11802918791E+01  0.00000000000E+00 0. -1.
         11    1    3    3    0    0 -0.78053415276E+01  0.28399732508E+02 -0.19977364012E+02  0.35588807735E+02  0.51100000000E-03 0. -1.
        -11    1    3    3    0    0 -0.32641629018E+01  0.79715759289E+01 -0.31825971063E+01  0.91831207573E+01  0.51100000000E-03 0.  1.
        -12    1    3    3    0    0  0.10481143930E+02 -0.36837860046E+02  0.24070593008E+02  0.45235779628E+02  0.00000000000E+00 0.  1.
</event>
<event>
 7    1  0.4008281E-015  0.9000785E+02  0.7816164E-02  0.1186339E+00
        -11   -1    0    0    0    0  0.00000000000E+00  0.00000000000E+00  0.45593999997E+02  0.45594000000E+02  0.51100000000E-03 0. -1.
         11   -1    0    0    0    0 -0.00000000000E+00 -0.00000000000E+00 -0.45593999997E+02  0.45594000000E+02  0.51100000000E-03 0.  1.
    9900012    2    1    2    0    0 -0.82110346758E+00  0.10961984920E+00 -0.84055013150E+00  0.90007850883E+02  0.90000113714E+02 0.  0.
         12    1    1    2    0    0  0.82110346758E+00 -0.10961984920E+00  0.84055013150E+00  0.11801491174E+01  0.00000000000E+00 0. -1.
         11    1    3    3    0    0 -0.11966054036E+01  0.43787275229E+01  0.91370568728E+01  0.10202496154E+02  0.51100000000E-03 0. -1.
        -11    1    3    3    0    0  0.25149525926E+02  0.27821722652E+02  0.19245719222E+01  0.37553307218E+02  0.51100000000E-03 0.  1.
         12    1    3    3    0    0 -0.24774023990E+02 -0.32090830326E+02 -0.11902178926E+02  0.42252047511E+02  0.00000000000E+00 0. -1.
</event>
<event>
 7    1  0.4008281E-015  0.9000775E+02  0.7816164E-02  0.1186339E+00
        -11   -1    0    0    0    0  0.00000000000E+00  0.00000000000E+00  0.45593999997E+02  0.45594000000E+02  0.51100000000E-03 0. -1.
         11   -1    0    0    0    0 -0.00000000000E+00 -0.00000000000E+00 -0.45593999997E+02  0.45594000000E+02  0.51100000000E-03 0.  1.
    9900012    2    1    2    0    0  0.95942318356E+00  0.68735221817E+00  0.64167338634E-02  0.90007751259E+02  0.90000012775E+02 0.  0.
         12    1    1    2    0    0 -0.95942318356E+00 -0.68735221817E+00 -0.64167338634E-02  0.11802487414E+01  0.00000000000E+00 0. -1.
         11    1    3    3    0    0  0.53901145113E+01 -0.53067606657E+01  0.84406917797E+01  0.11334033756E+02  0.51100000000E-03 0. -1.
        -11    1    3    3    0    0  0.35467115667E+02  0.95848436812E+01  0.34179740425E+01  0.36898076764E+02  0.51100000000E-03 0.  1.
         12    1    3    3    0    0 -0.39897806994E+02 -0.35907307974E+01 -0.11852249088E+02  0.41775640738E+02  0.00000000000E+00 0. -1.
</event>
<event>
 7    1  0.4472743E-015  0.9000789E+02  0.7816164E-02  0.1186339E+00
        -11   -1    0    0    0    0  0.00000000000E+00  0.00000000000E+00  0.45593999997E+02  0.45594000000E+02  0.51100000000E-03 0. -1.
         11   -1    0    0    0    0 -0.00000000000E+00 -0.00000000000E+00 -0.45593999997E+02  0.45594000000E+02  0.51100000000E-03 0.  1.
    9900012    2    1    2    0    0 -0.96678084331E+00  0.52187424093E+00 -0.43085671147E+00  0.90007891773E+02  0.90000155144E+02 0.  0.
         12    1    1    2    0    0  0.96678084331E+00 -0.52187424093E+00  0.43085671147E+00  0.11801082273E+01  0.00000000000E+00 0. -1.
         11    1    3    3    0    0 -0.20544424021E+01 -0.52364349805E+01 -0.79549503858E+01  0.97428035385E+01  0.51100000000E-03 0. -1.
        -11    1    3    3    0    0  0.37902195887E+02 -0.51510527641E+01  0.15108353938E+02  0.41126295196E+02  0.51100000000E-03 0.  1.
         12    1    3    3    0    0 -0.36814534328E+02  0.10909361985E+02 -0.75842602639E+01  0.39138793038E+02  0.00000000000E+00 0. -1.
</event>
<event>
 7    1  0.4008281E-015  0.9000792E+02  0.7816164E-02  0.1186339E+00
        -11   -1    0    0    0    0  0.00000000000E+00  0.00000000000E+00  0.45593999997E+02  0.45594000000E+02  0.51100000000E-03 0.  1.
         11   -1    0    0    0    0 -0.00000000000E+00 -0.00000000000E+00 -0.45593999997E+02  0.45594000000E+02  0.51100000000E-03 0. -1.
    9900012    2    1    2    0    0 -0.64412224435E+00  0.91617120821E+00  0.37191705704E+00  0.90007921424E+02  0.90000185187E+02 0.  0.
         12    1    1    2    0    0  0.64412224435E+00 -0.91617120821E+00 -0.37191705704E+00  0.11800785761E+01  0.00000000000E+00 0. -1.
         11    1    3    3    0    0 -0.46602680643E+00  0.10362679903E+02  0.19199880096E+01  0.10549344528E+02  0.51100000000E-03 0. -1.
        -11    1    3    3    0    0  0.19356401299E+02 -0.43982279974E+01  0.33545533818E+02  0.38978423777E+02  0.51100000000E-03 0.  1.
         12    1    3    3    0    0 -0.19534496737E+02 -0.50482806976E+01 -0.35093604770E+02  0.40480153119E+02  0.00000000000E+00 0. -1.
</event>
<event>
 7    1  0.4008281E-015  0.9000777E+02  0.7816164E-02  0.1186339E+00
        -11   -1    0    0    0    0  0.00000000000E+00  0.00000000000E+00  0.45593999997E+02  0.45594000000E+02  0.51100000000E-03 0.  1.
         11   -1    0    0    0    0 -0.00000000000E+00 -0.00000000000E+00 -0.45593999997E+02  0.45594000000E+02  0.51100000000E-03 0. -1.
    9900012    2    1    2    0    0  0.36750815574E+00  0.98819505551E+00 -0.53042680043E+00  0.90007769386E+02  0.90000031142E+02 0.  0.
         12    1    1    2    0    0 -0.36750815574E+00 -0.98819505551E+00  0.53042680043E+00  0.11802306143E+01  0.00000000000E+00 0. -1.
         11    1    3    3    0    0 -0.38631813808E+01  0.79734594407E+01  0.22259965687E+01  0.91353865172E+01  0.51100000000E-03 0. -1.
        -11    1    3    3    0    0  0.39545551186E+02 -0.44471189370E+01 -0.16246645097E+02  0.42983496399E+02  0.51100000000E-03 0.  1.
         12    1    3    3    0    0 -0.35314861650E+02 -0.25381454482E+01  0.13490221728E+02  0.37888886470E+02  0.00000000000E+00 0. -1.
</event>
<event>
 7    1  0.4008281E-015  0.9000778E+02  0.7816164E-02  0.1186339E+00
        -11   -1    0    0    0    0  0.00000000000E+00  0.00000000000E+00  0.45593999997E+02  0.45594000000E+02  0.51100000000E-03 0.  1.
         11   -1    0    0    0    0 -0.00000000000E+00 -0.00000000000E+00 -0.45593999997E+02  0.45594000000E+02  0.51100000000E-03 0. -1.
    9900012    2    1    2    0    0  0.32722525228E+00 -0.11338222507E+01  0.16817608385E-01  0.90007783031E+02  0.90000044967E+02 0.  0.
         12    1    1    2    0    0 -0.32722525228E+00  0.11338222507E+01 -0.16817608385E-01  0.11802169690E+01  0.00000000000E+00 0. -1.
         11    1    3    3    0    0 -0.54579345907E+01 -0.25553500458E+01  0.13081469337E+01  0.61668559667E+01  0.51100000000E-03 0. -1.
        -11    1    3    3    0    0 -0.28117033491E+02  0.20918955885E+02  0.18911223966E+02  0.39822163173E+02  0.51100000000E-03 0.  1.
         12    1    3    3    0    0  0.33902193334E+02 -0.19497428090E+02 -0.20202553291E+02  0.44018763891E+02  0.00000000000E+00 0. -1.
</event>
<event>
 7    1  0.4008281E-015  0.9000771E+02  0.7816164E-02  0.1186339E+00
        -11   -1    0    0    0    0  0.00000000000E+00  0.00000000000E+00  0.45593999997E+02  0.45594000000E+02  0.51100000000E-03 0.  1.
         11   -1    0    0    0    0 -0.00000000000E+00 -0.00000000000E+00 -0.45593999997E+02  0.45594000000E+02  0.51100000000E-03 0. -1.
    9900012    2    1    2    0    0 -0.40361863128E-01  0.69775505030E+00  0.95110122646E+00  0.90007709894E+02  0.89999970865E+02 0.  0.
         12    1    1    2    0    0  0.40361863128E-01 -0.69775505030E+00 -0.95110122646E+00  0.11802901055E+01  0.00000000000E+00 0. -1.
         11    1    3    3    0    0  0.16875306930E+02  0.21519782765E+02 -0.31515953905E+02  0.41726878449E+02  0.51100000000E-03 0. -1.
        -11    1    3    3    0    0 -0.93580742676E+01 -0.14501002369E+01 -0.29796784592E+00  0.94744461470E+01  0.51100000000E-03 0.  1.
        -12    1    3    3    0    0 -0.75575945259E+01 -0.19371927478E+02  0.32765022978E+02  0.38806385299E+02  0.00000000000E+00 0.  1.
</event>
<event>
 7    1  0.4008281E-015  0.9000764E+02  0.7816164E-02  0.1186339E+00
        -11   -1    0    0    0    0  0.00000000000E+00  0.00000000000E+00  0.45593999997E+02  0.45594000000E+02  0.51100000000E-03 0.  1.
         11   -1    0    0    0    0 -0.00000000000E+00 -0.00000000000E+00 -0.45593999997E+02  0.45594000000E+02  0.51100000000E-03 0. -1.
    9900012    2    1    2    0    0  0.76098123164E-02 -0.25507492935E+00  0.11524475508E+01  0.90007637138E+02  0.89999897148E+02 0.  0.
         12    1    1    2    0    0 -0.76098123164E-02  0.25507492935E+00 -0.11524475508E+01  0.11803628621E+01  0.00000000000E+00 0. -1.
         11    1    3    3    0    0  0.74561416333E+01 -0.42240924232E+00 -0.57089315420E+01  0.94002328288E+01  0.51100000000E-03 0. -1.
        -11    1    3    3    0    0  0.82295024382E+01 -0.38077692627E+02  0.23400557806E+01  0.39027057889E+02  0.51100000000E-03 0.  1.
         12    1    3    3    0    0 -0.15678034259E+02  0.38245026940E+02  0.45213233122E+01  0.41580346420E+02  0.00000000000E+00 0. -1.
</event>
<event>
 7    1  0.4008281E-015  0.9000796E+02  0.7816164E-02  0.1186339E+00
        -11   -1    0    0    0    0  0.00000000000E+00  0.00000000000E+00  0.45593999997E+02  0.45594000000E+02  0.51100000000E-03 0.  1.
         11   -1    0    0    0    0 -0.00000000000E+00 -0.00000000000E+00 -0.45593999997E+02  0.45594000000E+02  0.51100000000E-03 0. -1.
    9900012    2    1    2    0    0  0.80493459084E-01 -0.33938635107E-01  0.11767993194E+01  0.90007962854E+02  0.90000227163E+02 0.  0.
         12    1    1    2    0    0 -0.80493459084E-01  0.33938635107E-01 -0.11767993194E+01  0.11800371460E+01  0.00000000000E+00 0. -1.
         11    1    3    3    0    0 -0.22631656878E+02 -0.13670136288E+02 -0.23542249518E+02  0.35402006042E+02  0.51100000000E-03 0. -1.
        -11    1    3    3    0    0  0.88698818871E+00  0.32901274189E+01 -0.10983997895E+02  0.11500430274E+02  0.51100000000E-03 0.  1.
        -12    1    3    3    0    0  0.21825162148E+02  0.10346070234E+02  0.35703046732E+02  0.43105526537E+02  0.00000000000E+00 0.  1.
</event>
<event>
 7    1  0.4008281E-015  0.9000766E+02  0.7816164E-02  0.1186339E+00
        -11   -1    0    0    0    0  0.00000000000E+00  0.00000000000E+00  0.45593999997E+02  0.45594000000E+02  0.51100000000E-03 0.  1.
         11   -1    0    0    0    0 -0.00000000000E+00 -0.00000000000E+00 -0.45593999997E+02  0.45594000000E+02  0.51100000000E-03 0. -1.
    9900012    2    1    2    0    0  0.24189705469E+00  0.10875052671E+01 -0.38989366720E+00  0.90007661505E+02  0.89999921837E+02 0.  0.
         12    1    1    2    0    0 -0.24189705469E+00 -0.10875052671E+01  0.38989366720E+00  0.11803384950E+01  0.00000000000E+00 0. -1.
         11    1    3    3    0    0 -0.23819364956E+02 -0.28615395735E+02 -0.99269619872E+01  0.38532422640E+02  0.51100000000E-03 0. -1.
        -11    1    3    3    0    0 -0.22027370248E+01  0.24948883736E+01 -0.88286325565E+01  0.94351084507E+01  0.51100000000E-03 0.  1.
        -12    1    3    3    0    0  0.26263999035E+02  0.27208012629E+02  0.18365700877E+02  0.42040130414E+02  0.00000000000E+00 0.  1.
</event>
<event>
 7    1  0.4008281E-015  0.9000787E+02  0.7816164E-02  0.1186339E+00
        -11   -1    0    0    0    0  0.00000000000E+00  0.00000000000E+00  0.45593999997E+02  0.45594000000E+02  0.51100000000E-03 0.  1.
         11   -1    0    0    0    0 -0.00000000000E+00 -0.00000000000E+00 -0.45593999997E+02  0.45594000000E+02  0.51100000000E-03 0. -1.
    9900012    2    1    2    0    0 -0.64347549267E+00  0.53601609503E+00  0.83146327533E+00  0.90007870710E+02  0.90000133803E+02 0.  0.
         12    1    1    2    0    0  0.64347549267E+00 -0.53601609503E+00 -0.83146327533E+00  0.11801292904E+01  0.00000000000E+00 0. -1.
         11    1    3    3    0    0 -0.61151144863E+01  0.35269542185E+02 -0.14194846677E+02  0.38507517495E+02  0.51100000000E-03 0. -1.
        -11    1    3    3    0    0 -0.86884946936E+01 -0.30578312480E+00 -0.41408127296E+01  0.96296299869E+01  0.51100000000E-03 0.  1.
        -12    1    3    3    0    0  0.14160133687E+02 -0.34427742966E+02  0.19167122682E+02  0.41870723228E+02  0.00000000000E+00 0.  1.
</event>
<event>
 7    1  0.5365475E-015  0.9000769E+02  0.7816164E-02  0.1186339E+00
        -11   -1    0    0    0    0  0.00000000000E+00  0.00000000000E+00  0.45593999997E+02  0.45594000000E+02  0.51100000000E-03 0.  1.
         11   -1    0    0    0    0 -0.00000000000E+00 -0.00000000000E+00 -0.45593999997E+02  0.45594000000E+02  0.51100000000E-03 0. -1.
    9900012    2    1    2    0    0 -0.10457759895E+01  0.42280435047E+00 -0.34744469882E+00  0.90007691245E+02  0.89999951969E+02 0.  0.
         12    1    1    2    0    0  0.10457759895E+01 -0.42280435047E+00  0.34744469882E+00  0.11803087553E+01  0.00000000000E+00 0. -1.
         11    1    3    3    0    0  0.47141060270E+01  0.76128977388E+01  0.14266125362E+01  0.90672063617E+01  0.51100000000E-03 0. -1.
        -11    1    3    3    0    0  0.19401817032E+02 -0.12070208638E+02  0.31515299213E+02  0.38927297947E+02  0.51100000000E-03 0.  1.
         12    1    3    3    0    0 -0.25161699048E+02  0.48801152495E+01 -0.33289356448E+02  0.42013186936E+02  0.00000000000E+00 0. -1.
</event>
<event>
 7    1  0.4008281E-015  0.9000769E+02  0.7816164E-02  0.1186339E+00
        -11   -1    0    0    0    0  0.00000000000E+00  0.00000000000E+00  0.45593999997E+02  0.45594000000E+02  0.51100000000E-03 0. -1.
         11   -1    0    0    0    0 -0.00000000000E+00 -0.00000000000E+00 -0.45593999997E+02  0.45594000000E+02  0.51100000000E-03 0.  1.
    9900012    2    1    2    0    0  0.10622893712E+01  0.18814369739E+00  0.47881740259E+00  0.90007693741E+02  0.89999954499E+02 0.  0.
         12    1    1    2    0    0 -0.10622893712E+01 -0.18814369739E+00 -0.47881740259E+00  0.11803062586E+01  0.00000000000E+00 0. -1.
         11    1    3    3    0    0 -0.19742073889E+02 -0.28167546346E+02  0.18666840810E+02  0.39135803233E+02  0.51100000000E-03 0. -1.
        -11    1    3    3    0    0 -0.41576768123E+01 -0.18326467809E+00 -0.11683558985E+02  0.12402637350E+02  0.51100000000E-03 0.  1.
        -12    1    3    3    0    0  0.24962040073E+02  0.28538954721E+02 -0.65044644222E+01  0.38469253159E+02  0.00000000000E+00 0.  1.
</event>
<event>
 7    1  0.4008281E-015  0.9000770E+02  0.7816164E-02  0.1186339E+00
        -11   -1    0    0    0    0  0.00000000000E+00  0.00000000000E+00  0.45593999997E+02  0.45594000000E+02  0.51100000000E-03 0. -1.
         11   -1    0    0    0    0 -0.00000000000E+00 -0.00000000000E+00 -0.45593999997E+02  0.45594000000E+02  0.51100000000E-03 0.  1.
    9900012    2    1    2    0    0  0.11032278144E+01  0.41613785006E+00  0.53154191271E-01  0.90007700170E+02  0.89999961012E+02 0.  0.
         12    1    1    2    0    0 -0.11032278144E+01 -0.41613785006E+00 -0.53154191271E-01  0.11802998300E+01  0.00000000000E+00 0. -1.
         11    1    3    3    0    0 -0.87359782240E+01  0.33304433916E+02  0.16480613380E+02  0.38172152830E+02  0.51100000000E-03 0. -1.
        -11    1    3    3    0    0 -0.27840341750E+00 -0.30572223716E+01  0.10160698502E+02  0.10614325763E+02  0.51100000000E-03 0.  1.
        -12    1    3    3    0    0  0.10117609456E+02 -0.29831073695E+02 -0.26588157691E+02  0.41221221577E+02  0.00000000000E+00 0.  1.
</event>
<event>
 7    1  0.4008281E-015  0.9000772E+02  0.7816164E-02  0.1186339E+00
        -11   -1    0    0    0    0  0.00000000000E+00  0.00000000000E+00  0.45593999997E+02  0.45594000000E+02  0.51100000000E-03 0. -1.
         11   -1    0    0    0    0 -0.00000000000E+00 -0.00000000000E+00 -0.45593999997E+02  0.45594000000E+02  0.51100000000E-03 0.  1.
    9900012    2    1    2    0    0 -0.36614223144E+00 -0.10239272328E+01  0.45887574914E+00  0.90007722886E+02  0.89999984028E+02 0.  0.
         12    1    1    2    0    0  0.36614223144E+00  0.10239272328E+01 -0.45887574914E+00  0.11802771136E+01  0.00000000000E+00 0. -1.
         11    1    3    3    0    0 -0.21875946954E+02 -0.21998436963E+02 -0.19037937102E+02  0.36399606225E+02  0.51100000000E-03 0. -1.
        -11    1    3    3    0    0 -0.93729575346E+01 -0.43033613836E+00 -0.29536104032E+01  0.98367340521E+01  0.51100000000E-03 0.  1.
        -12    1    3    3    0    0  0.30882762257E+02  0.21404845869E+02  0.22450423254E+02  0.43771382610E+02  0.00000000000E+00 0.  1.
</event>
<event>
 7    1  0.4008281E-015  0.9000780E+02  0.7816164E-02  0.1186339E+00
        -11   -1    0    0    0    0  0.00000000000E+00  0.00000000000E+00  0.45593999997E+02  0.45594000000E+02  0.51100000000E-03 0.  1.
         11   -1    0    0    0    0 -0.00000000000E+00 -0.00000000000E+00 -0.45593999997E+02  0.45594000000E+02  0.51100000000E-03 0. -1.
    9900012    2    1    2    0    0 -0.81366273818E+00  0.84574529334E+00  0.12465224250E+00  0.90007800723E+02  0.90000062892E+02 0.  0.
         12    1    1    2    0    0  0.81366273818E+00 -0.84574529334E+00 -0.12465224250E+00  0.11801992774E+01  0.00000000000E+00 0. -1.
         11    1    3    3    0    0 -0.16311181875E+02  0.10079098194E+01 -0.11876883579E+02  0.20202249879E+02  0.51100000000E-03 0. -1.
        -11    1    3    3    0    0  0.21972310598E+02  0.20569184550E+02 -0.16223261045E+02  0.34191636188E+02  0.51100000000E-03 0.  1.
         12    1    3    3    0    0 -0.64747914613E+01 -0.20731349076E+02  0.28224796866E+02  0.35613914656E+02  0.00000000000E+00 0. -1.
</event>
<event>
 7    1  0.4008281E-015  0.9000766E+02  0.7816164E-02  0.1186339E+00
        -11   -1    0    0    0    0  0.00000000000E+00  0.00000000000E+00  0.45593999997E+02  0.45594000000E+02  0.51100000000E-03 0.  1.
         11   -1    0    0    0    0 -0.00000000000E+00 -0.00000000000E+00 -0.45593999997E+02  0.45594000000E+02  0.51100000000E-03 0. -1.
    9900012    2    1    2    0    0  0.21023195561E+00  0.11614045866E+01 -0.12250494030E-01  0.90007657607E+02  0.89999917888E+02 0.  0.
         12    1    1    2    0    0 -0.21023195561E+00 -0.11614045866E+01  0.12250494030E-01  0.11803423925E+01  0.00000000000E+00 0. -1.
         11    1    3    3    0    0  0.67829528060E+01 -0.37408467122E+01  0.51370134742E+01  0.92946915273E+01  0.51100000000E-03 0. -1.
        -11    1    3    3    0    0 -0.17217729164E+02 -0.35131441268E+02 -0.25121470127E+01  0.39204326879E+02  0.51100000000E-03 0.  1.
         12    1    3    3    0    0  0.10645008314E+02  0.40033692567E+02 -0.26371169555E+01  0.41508639202E+02  0.00000000000E+00 0. -1.
</event>
<event>
 7    1  0.5189136E-015  0.9000767E+02  0.7816164E-02  0.1186339E+00
        -11   -1    0    0    0    0  0.00000000000E+00  0.00000000000E+00  0.45593999997E+02  0.45594000000E+02  0.51100000000E-03 0. -1.
         11   -1    0    0    0    0 -0.00000000000E+00 -0.00000000000E+00 -0.45593999997E+02  0.45594000000E+02  0.51100000000E-03 0.  1.
    9900012    2    1    2    0    0  0.67874263841E+00 -0.74694637484E+00 -0.61201527439E+00  0.90007668203E+02  0.89999928623E+02 0.  0.
         12    1    1    2    0    0 -0.67874263841E+00  0.74694637484E+00  0.61201527439E+00  0.11803317975E+01  0.00000000000E+00 0. -1.
         11    1    3    3    0    0 -0.44703364895E+01 -0.67886307659E+01  0.52754980978E+01  0.96902165325E+01  0.51100000000E-03 0. -1.
        -11    1    3    3    0    0  0.39947650195E+02 -0.79364819093E+01  0.55644888431E+01  0.41106763890E+02  0.51100000000E-03 0.  1.
         12    1    3    3    0    0 -0.34798571067E+02  0.13978166300E+02 -0.11452002215E+02  0.39210687780E+02  0.00000000000E+00 0. -1.
</event>
<event>
 7    1  0.4008281E-015  0.9000738E+02  0.7816164E-02  0.1186340E+00
        -11   -1    0    0    0    0  0.00000000000E+00  0.00000000000E+00  0.45593999997E+02  0.45594000000E+02  0.51100000000E-03 0.  1.
         11   -1    0    0    0    0 -0.00000000000E+00 -0.00000000000E+00 -0.45593999997E+02  0.45594000000E+02  0.51100000000E-03 0. -1.
    9900012    2    1    2    0    0 -0.35136860553E+00 -0.10526043027E+01 -0.40302156583E+00  0.90007380630E+02  0.89999637253E+02 0.  0.
         12    1    1    2    0    0  0.35136860553E+00  0.10526043027E+01  0.40302156583E+00  0.11806193703E+01  0.00000000000E+00 0. -1.
         11    1    3    3    0    0 -0.57561003538E+01  0.62273310352E+01 -0.17647833317E+02  0.19579539427E+02  0.51100000000E-03 0. -1.
        -11    1    3    3    0    0  0.24149795168E+02  0.13843924460E+01 -0.17606014298E+02  0.29918236726E+02  0.51100000000E-03 0.  1.
        -12    1    3    3    0    0 -0.18745063420E+02 -0.86643277840E+01  0.34850826049E+02  0.40509604477E+02  0.00000000000E+00 0.  1.
</event>
<event>
 7    1  0.4008281E-015  0.9000773E+02  0.7816164E-02  0.1186339E+00
        -11   -1    0    0    0    0  0.00000000000E+00  0.00000000000E+00  0.45593999997E+02  0.45594000000E+02  0.51100000000E-03 0.  1.
         11   -1    0    0    0    0 -0.00000000000E+00 -0.00000000000E+00 -0.45593999997E+02  0.45594000000E+02  0.51100000000E-03 0. -1.
    9900012    2    1    2    0    0  0.60875327508E+00  0.10920017114E+00  0.10052476293E+01  0.90007733918E+02  0.89999995206E+02 0.  0.
         12    1    1    2    0    0 -0.60875327508E+00 -0.10920017114E+00 -0.10052476293E+01  0.11802660816E+01  0.00000000000E+00 0. -1.
         11    1    3    3    0    0  0.12785110947E+02 -0.28184814180E+02 -0.26242848689E+02  0.40577455808E+02  0.51100000000E-03 0. -1.
        -11    1    3    3    0    0 -0.18929424303E+01 -0.46518433878E+01  0.92028350273E+01  0.10484037903E+02  0.51100000000E-03 0.  1.
        -12    1    3    3    0    0 -0.10283415241E+02  0.32945857739E+02  0.18045261291E+02  0.38946240207E+02  0.00000000000E+00 0.  1.
</event>
<event>
 7    1  0.4008281E-015  0.9000780E+02  0.7816164E-02  0.1186339E+00
        -11   -1    0    0    0    0  0.00000000000E+00  0.00000000000E+00  0.45593999997E+02  0.45594000000E+02  0.51100000000E-03 0.  1.
         11   -1    0    0    0    0 -0.00000000000E+00 -0.00000000000E+00 -0.45593999997E+02  0.45594000000E+02  0.51100000000E-03 0. -1.
    9900012    2    1    2    0    0  0.94064840278E+00 -0.71178999772E+00  0.37630292370E-01  0.90007796434E+02  0.90000058547E+02 0.  0.
         12    1    1    2    0    0 -0.94064840278E+00  0.71178999772E+00 -0.37630292370E-01  0.11802035661E+01  0.00000000000E+00 0. -1.
         11    1    3    3    0    0 -0.85652172393E+01 -0.10082968312E+02 -0.79557230586E+01  0.15437704687E+02  0.51100000000E-03 0. -1.
        -11    1    3    3    0    0  0.39039148421E+02 -0.20892369682E+01 -0.66736650159E+01  0.39660532341E+02  0.51100000000E-03 0.  1.
         12    1    3    3    0    0 -0.29533282779E+02  0.11460415283E+02  0.14667018367E+02  0.34909559406E+02  0.00000000000E+00 0. -1.
</event>
<event>
 7    1  0.4008281E-015  0.9000771E+02  0.7816164E-02  0.1186339E+00
        -11   -1    0    0    0    0  0.00000000000E+00  0.00000000000E+00  0.45593999997E+02  0.45594000000E+02  0.51100000000E-03 0. -1.
         11   -1    0    0    0    0 -0.00000000000E+00 -0.00000000000E+00 -0.45593999997E+02  0.45594000000E+02  0.51100000000E-03 0.  1.
    9900012    2    1    2    0    0 -0.52215005382E+00  0.17952966203E+00 -0.10431743571E+01  0.90007710071E+02  0.89999971043E+02 0.  0.
         12    1    1    2    0    0  0.52215005382E+00 -0.17952966203E+00  0.10431743571E+01  0.11802899295E+01  0.00000000000E+00 0. -1.
         11    1    3    3    0    0 -0.23387152011E+01  0.38665736439E+01  0.54166770677E+01  0.70541031501E+01  0.51100000000E-03 0. -1.
        -11    1    3    3    0    0 -0.49398730554E+01  0.39036556992E+02 -0.51070191611E+01  0.39677912906E+02  0.51100000000E-03 0.  1.
         12    1    3    3    0    0  0.67564382028E+01 -0.42723600974E+02 -0.13528322637E+01  0.43275694015E+02  0.00000000000E+00 0. -1.
</event>
<event>
 7    1  0.4008281E-015  0.9000777E+02  0.7816164E-02  0.1186339E+00
        -11   -1    0    0    0    0  0.00000000000E+00  0.00000000000E+00  0.45593999997E+02  0.45594000000E+02  0.51100000000E-03 0. -1.
         11   -1    0    0    0    0 -0.00000000000E+00 -0.00000000000E+00 -0.45593999997E+02  0.45594000000E+02  0.51100000000E-03 0.  1.
    9900012    2    1    2    0    0  0.20964470628E+00 -0.86505517979E+00 -0.77502648696E+00  0.90007772301E+02  0.90000034095E+02 0.  0.
         12    1    1    2    0    0 -0.20964470628E+00  0.86505517979E+00  0.77502648696E+00  0.11802276994E+01  0.00000000000E+00 0. -1.
         11    1    3    3    0    0  0.24650461193E+02 -0.10777933985E+02  0.22390000021E+02  0.35001731374E+02  0.51100000000E-03 0. -1.
        -11    1    3    3    0    0  0.48196058776E+01  0.37261675865E+01  0.91389883515E+01  0.10983352587E+02  0.51100000000E-03 0.  1.
        -12    1    3    3    0    0 -0.29260422364E+02  0.61867112183E+01 -0.32304014859E+02  0.44022688340E+02  0.00000000000E+00 0.  1.
</event>
<event>
 7    1  0.4008281E-015  0.9000773E+02  0.7816164E-02  0.1186339E+00
        -11   -1    0    0    0    0  0.00000000000E+00  0.00000000000E+00  0.45593999997E+02  0.45594000000E+02  0.51100000000E-03 0. -1.
         11   -1    0    0    0    0 -0.00000000000E+00 -0.00000000000E+00 -0.45593999997E+02  0.45594000000E+02  0.51100000000E-03 0.  1.
    9900012    2    1    2    0    0  0.11329448805E+01  0.82737725327E-01  0.32036126112E+00  0.90007728433E+02  0.89999989649E+02 0.  0.
         12    1    1    2    0    0 -0.11329448805E+01 -0.82737725327E-01 -0.32036126112E+00  0.11802715667E+01  0.00000000000E+00 0. -1.
         11    1    3    3    0    0  0.10789474277E+02 -0.12969760155E+01 -0.24885167945E+01  0.11148435677E+02  0.51100000000E-03 0. -1.
        -11    1    3    3    0    0  0.30825414055E+02  0.16706173807E+02  0.54973573004E+01  0.35489763771E+02  0.51100000000E-03 0.  1.
         12    1    3    3    0    0 -0.40481943452E+02 -0.15326460066E+02 -0.26884792448E+01  0.43369528985E+02  0.00000000000E+00 0. -1.
</event>
<event>
 7    1  0.4008281E-015  0.9000774E+02  0.7816164E-02  0.1186339E+00
        -11   -1    0    0    0    0  0.00000000000E+00  0.00000000000E+00  0.45593999997E+02  0.45594000000E+02  0.51100000000E-03 0. -1.
         11   -1    0    0    0    0 -0.00000000000E+00 -0.00000000000E+00 -0.45593999997E+02  0.45594000000E+02  0.51100000000E-03 0.  1.
    9900012    2    1    2    0    0  0.10083281050E+01 -0.44741793162E+00 -0.41963580338E+00  0.90007744697E+02  0.90000006127E+02 0.  0.
         12    1    1    2    0    0 -0.10083281050E+01  0.44741793162E+00  0.41963580338E+00  0.11802553030E+01  0.00000000000E+00 0. -1.
         11    1    3    3    0    0  0.31326627314E-01 -0.95657473540E+01 -0.70848441453E+00  0.95919994904E+01  0.51100000000E-03 0. -1.
        -11    1    3    3    0    0  0.74637121461E+01  0.35254315977E+02  0.25006795911E+02  0.43862439923E+02  0.51100000000E-03 0.  1.
         12    1    3    3    0    0 -0.64867106684E+01 -0.26135986554E+02 -0.24717947300E+02  0.36553305284E+02  0.00000000000E+00 0. -1.
</event>
<event>
 7    1  0.4008281E-015  0.9000780E+02  0.7816164E-02  0.1186339E+00
        -11   -1    0    0    0    0  0.00000000000E+00  0.00000000000E+00  0.45593999997E+02  0.45594000000E+02  0.51100000000E-03 0. -1.
         11   -1    0    0    0    0 -0.00000000000E+00 -0.00000000000E+00 -0.45593999997E+02  0.45594000000E+02  0.51100000000E-03 0.  1.
    9900012    2    1    2    0    0 -0.73005589323E+00 -0.82883886248E+00  0.41584234056E+00  0.90007796492E+02  0.90000058606E+02 0.  0.
         12    1    1    2    0    0  0.73005589323E+00  0.82883886248E+00 -0.41584234056E+00  0.11802035076E+01  0.00000000000E+00 0. -1.
         11    1    3    3    0    0 -0.39430137893E+01 -0.79217527699E+01 -0.54150957182E+01  0.10374236675E+02  0.51100000000E-03 0. -1.
        -11    1    3    3    0    0  0.41078975820E+02  0.27089027206E+01  0.53257830656E+01  0.41511255990E+02  0.51100000000E-03 0.  1.
         12    1    3    3    0    0 -0.37866017924E+02  0.43840111869E+01  0.50515499310E+00  0.38122303827E+02  0.00000000000E+00 0. -1.
</event>
<event>
 7    1  0.4008281E-015  0.9000761E+02  0.7816164E-02  0.1186339E+00
        -11   -1    0    0    0    0  0.00000000000E+00  0.00000000000E+00  0.45593999997E+02  0.45594000000E+02  0.51100000000E-03 0.  1.
         11   -1    0    0    0    0 -0.00000000000E+00 -0.00000000000E+00 -0.45593999997E+02  0.45594000000E+02  0.51100000000E-03 0. -1.
    9900012    2    1    2    0    0  0.87348514023E-01 -0.94741460580E+00  0.69863879002E+00  0.90007610083E+02  0.89999869736E+02 0.  0.
         12    1    1    2    0    0 -0.87348514023E-01  0.94741460580E+00 -0.69863879002E+00  0.11803899174E+01  0.00000000000E+00 0. -1.
         11    1    3    3    0    0  0.28583158547E+02  0.12898746073E+02  0.24696985545E+02  0.39916358777E+02  0.51100000000E-03 0. -1.
        -11    1    3    3    0    0  0.51735455462E+01  0.23705851373E+01 -0.70396440739E+01  0.90521730187E+01  0.51100000000E-03 0.  1.
        -12    1    3    3    0    0 -0.33669355579E+02 -0.16216745816E+02 -0.16958702681E+02  0.41039078286E+02  0.00000000000E+00 0.  1.
</event>
<event>
 7    1  0.4008281E-015  0.9000833E+02  0.7816164E-02  0.1186338E+00
        -11   -1    0    0    0    0  0.00000000000E+00  0.00000000000E+00  0.45593999997E+02  0.45594000000E+02  0.51100000000E-03 0.  1.
         11   -1    0    0    0    0 -0.00000000000E+00 -0.00000000000E+00 -0.45593999997E+02  0.45594000000E+02  0.51100000000E-03 0. -1.
    9900012    2    1    2    0    0  0.63129385672E+00  0.66615389444E+00  0.74115959794E+00  0.90008334584E+02  0.90000603798E+02 0.  0.
         12    1    1    2    0    0 -0.63129385672E+00 -0.66615389444E+00 -0.74115959794E+00  0.11796654162E+01  0.00000000000E+00 0. -1.
         11    1    3    3    0    0  0.26846855029E+02  0.56578768200E+01 -0.26444193769E+02  0.38105912656E+02  0.51100000000E-03 0. -1.
        -11    1    3    3    0    0  0.85246895108E+01 -0.36236047238E+01  0.38561677911E+01  0.10033487566E+02  0.51100000000E-03 0.  1.
        -12    1    3    3    0    0 -0.34740250683E+02 -0.13681182018E+01  0.23329185575E+02  0.41868934361E+02  0.00000000000E+00 0.  1.
</event>
<event>
 7    1  0.4008281E-015  0.9000773E+02  0.7816164E-02  0.1186339E+00
        -11   -1    0    0    0    0  0.00000000000E+00  0.00000000000E+00  0.45593999997E+02  0.45594000000E+02  0.51100000000E-03 0. -1.
         11   -1    0    0    0    0 -0.00000000000E+00 -0.00000000000E+00 -0.45593999997E+02  0.45594000000E+02  0.51100000000E-03 0.  1.
    9900012    2    1    2    0    0 -0.36592679614E+00 -0.66155287472E+00 -0.90635156576E+00  0.90007734019E+02  0.89999995308E+02 0.  0.
         12    1    1    2    0    0  0.36592679614E+00  0.66155287472E+00  0.90635156576E+00  0.11802659814E+01  0.00000000000E+00 0. -1.
         11    1    3    3    0    0  0.36695073980E+02  0.12055294148E+02 -0.50785681777E+00  0.38627923711E+02  0.51100000000E-03 0. -1.
        -11    1    3    3    0    0 -0.48554062888E+00  0.79442424056E+01  0.44077523170E+01  0.90980777008E+01  0.51100000000E-03 0.  1.
        -12    1    3    3    0    0 -0.36575460148E+02 -0.20661089428E+02 -0.48062470650E+01  0.42281732607E+02  0.00000000000E+00 0.  1.
</event>
<event>
 7    1  0.4008281E-015  0.9000769E+02  0.7816164E-02  0.1186339E+00
        -11   -1    0    0    0    0  0.00000000000E+00  0.00000000000E+00  0.45593999997E+02  0.45594000000E+02  0.51100000000E-03 0. -1.
         11   -1    0    0    0    0 -0.00000000000E+00 -0.00000000000E+00 -0.45593999997E+02  0.45594000000E+02  0.51100000000E-03 0.  1.
    9900012    2    1    2    0    0 -0.12626663586E+00 -0.23149115864E+00 -0.11504748654E+01  0.90007693330E+02  0.89999954082E+02 0.  0.
         12    1    1    2    0    0  0.12626663586E+00  0.23149115864E+00  0.11504748654E+01  0.11803066702E+01  0.00000000000E+00 0. -1.
         11    1    3    3    0    0 -0.65648331986E+01  0.33380287955E+02  0.15258980237E+01  0.34053913489E+02  0.51100000000E-03 0. -1.
        -11    1    3    3    0    0  0.41882839965E+01  0.10398550149E+02  0.27787776363E+01  0.11549596246E+02  0.51100000000E-03 0.  1.
        -12    1    3    3    0    0  0.22502825662E+01 -0.44010329263E+02 -0.54551505255E+01  0.44404183594E+02  0.00000000000E+00 0.  1.
</event>
<event>
 7    1  0.4008281E-015  0.9000773E+02  0.7816164E-02  0.1186339E+00
        -11   -1    0    0    0    0  0.00000000000E+00  0.00000000000E+00  0.45593999997E+02  0.45594000000E+02  0.51100000000E-03 0. -1.
         11   -1    0    0    0    0 -0.00000000000E+00 -0.00000000000E+00 -0.45593999997E+02  0.45594000000E+02  0.51100000000E-03 0.  1.
    9900012    2    1    2    0    0  0.17816204503E+00  0.16028029461E-01 -0.11666401267E+01  0.90007725542E+02  0.89999986719E+02 0.  0.
         12    1    1    2    0    0 -0.17816204503E+00 -0.16028029461E-01  0.11666401267E+01  0.11802744584E+01  0.00000000000E+00 0. -1.
         11    1    3    3    0    0 -0.81051536696E+01  0.66657685599E+01 -0.42159392397E+01  0.11309293985E+02  0.51100000000E-03 0. -1.
        -11    1    3    3    0    0 -0.19046220108E+01 -0.29255106906E+02 -0.26920002031E+02  0.39801700651E+02  0.51100000000E-03 0.  1.
         12    1    3    3    0    0  0.10187937725E+02  0.22605366376E+02  0.29969301144E+02  0.38896730906E+02  0.00000000000E+00 0. -1.
</event>
<event>
 7    1  0.4008281E-015  0.9000773E+02  0.7816164E-02  0.1186339E+00
        -11   -1    0    0    0    0  0.00000000000E+00  0.00000000000E+00  0.45593999997E+02  0.45594000000E+02  0.51100000000E-03 0. -1.
         11   -1    0    0    0    0 -0.00000000000E+00 -0.00000000000E+00 -0.45593999997E+02  0.45594000000E+02  0.51100000000E-03 0.  1.
    9900012    2    1    2    0    0 -0.16153450625E+00 -0.13697774693E+00 -0.11611151222E+01  0.90007726885E+02  0.89999988079E+02 0.  0.
         12    1    1    2    0    0  0.16153450625E+00  0.13697774693E+00  0.11611151222E+01  0.11802731154E+01  0.00000000000E+00 0. -1.
         11    1    3    3    0    0 -0.27652373707E+02 -0.27836326093E+02  0.77202723161E+01  0.39988966315E+02  0.51100000000E-03 0. -1.
        -11    1    3    3    0    0  0.14177814010E+01  0.41521777832E+01  0.94300583371E+01  0.10400802130E+02  0.51100000000E-03 0.  1.
        -12    1    3    3    0    0  0.26073057800E+02  0.23547170563E+02 -0.18311445775E+02  0.39617958440E+02  0.00000000000E+00 0.  1.
</event>
<event>
 7    1  0.4008281E-015  0.9000789E+02  0.7816164E-02  0.1186339E+00
        -11   -1    0    0    0    0  0.00000000000E+00  0.00000000000E+00  0.45593999997E+02  0.45594000000E+02  0.51100000000E-03 0.  1.
         11   -1    0    0    0    0 -0.00000000000E+00 -0.00000000000E+00 -0.45593999997E+02  0.45594000000E+02  0.51100000000E-03 0. -1.
    9900012    2    1    2    0    0 -0.99932632882E+00  0.55351247936E+00  0.29603706062E+00  0.90007886820E+02  0.90000150126E+02 0.  0.
         12    1    1    2    0    0  0.99932632882E+00 -0.55351247936E+00 -0.29603706062E+00  0.11801131800E+01  0.00000000000E+00 0. -1.
         11    1    3    3    0    0  0.26224891281E+02 -0.13298896781E+01 -0.32349659986E+02  0.41665501686E+02  0.51100000000E-03 0. -1.
        -11    1    3    3    0    0 -0.67926915688E+01  0.63557272675E+01 -0.31269935107E+00  0.93077230832E+01  0.51100000000E-03 0.  1.
        -12    1    3    3    0    0 -0.20431526041E+02 -0.44723251101E+01  0.32958396398E+02  0.39034662051E+02  0.00000000000E+00 0.  1.
</event>
<event>
 7    1  0.4008281E-015  0.9000774E+02  0.7816164E-02  0.1186339E+00
        -11   -1    0    0    0    0  0.00000000000E+00  0.00000000000E+00  0.45593999997E+02  0.45594000000E+02  0.51100000000E-03 0. -1.
         11   -1    0    0    0    0 -0.00000000000E+00 -0.00000000000E+00 -0.45593999997E+02  0.45594000000E+02  0.51100000000E-03 0.  1.
    9900012    2    1    2    0    0 -0.11318873317E+01  0.33119450873E+00 -0.46507899464E-01  0.90007736589E+02  0.89999997912E+02 0.  0.
         12    1    1    2    0    0  0.11318873317E+01 -0.33119450873E+00  0.46507899464E-01  0.11802634109E+01  0.00000000000E+00 0. -1.
         11    1    3    3    0    0  0.27153663648E+02  0.23254677402E+02  0.10376354719E+02  0.37225934617E+02  0.51100000000E-03 0. -1.
        -11    1    3    3    0    0  0.34439522194E+01  0.66317848797E+01 -0.52051624522E+01  0.91068707026E+01  0.51100000000E-03 0.  1.
        -12    1    3    3    0    0 -0.31729503199E+02 -0.29555267773E+02 -0.52177001660E+01  0.43674931270E+02  0.00000000000E+00 0.  1.
</event>
<event>
 7    1  0.4008281E-015  0.9000781E+02  0.7816164E-02  0.1186339E+00
        -11   -1    0    0    0    0  0.00000000000E+00  0.00000000000E+00  0.45593999997E+02  0.45594000000E+02  0.51100000000E-03 0.  1.
         11   -1    0    0    0    0 -0.00000000000E+00 -0.00000000000E+00 -0.45593999997E+02  0.45594000000E+02  0.51100000000E-03 0. -1.
    9900012    2    1    2    0    0 -0.45113189921E+00 -0.10904970507E+01 -0.11625532748E-01  0.90007814014E+02  0.90000076359E+02 0.  0.
         12    1    1    2    0    0  0.45113189921E+00  0.10904970507E+01  0.11625532748E-01  0.11801859858E+01  0.00000000000E+00 0. -1.
         11    1    3    3    0    0  0.52924259561E+01 -0.57215722590E+00 -0.82932712286E+01  0.98547188861E+01  0.51100000000E-03 0. -1.
        -11    1    3    3    0    0  0.52015914163E+01  0.31957338013E+02  0.26044376942E+02  0.41552828744E+02  0.51100000000E-03 0.  1.
         12    1    3    3    0    0 -0.10945149272E+02 -0.32475677838E+02 -0.17762731246E+02  0.38600266384E+02  0.00000000000E+00 0. -1.
</event>
<event>
 7    1  0.4008281E-015  0.9000770E+02  0.7816164E-02  0.1186339E+00
        -11   -1    0    0    0    0  0.00000000000E+00  0.00000000000E+00  0.45593999997E+02  0.45594000000E+02  0.51100000000E-03 0.  1.
         11   -1    0    0    0    0 -0.00000000000E+00 -0.00000000000E+00 -0.45593999997E+02  0.45594000000E+02  0.51100000000E-03 0. -1.
    9900012    2    1    2    0    0  0.37620044084E-01  0.76449346449E-01  0.11772198082E+01  0.90007700781E+02  0.89999961631E+02 0.  0.
         12    1    1    2    0    0 -0.37620044084E-01 -0.76449346449E-01 -0.11772198082E+01  0.11802992193E+01  0.00000000000E+00 0. -1.
         11    1    3    3    0    0 -0.12196234027E+02  0.11239832849E+02 -0.29662620964E+02  0.33984600183E+02  0.51100000000E-03 0. -1.
        -11    1    3    3    0    0 -0.94511612258E+01  0.37558283923E+01 -0.51780792164E+01  0.11412414296E+02  0.51100000000E-03 0.  1.
        -12    1    3    3    0    0  0.21685015297E+02 -0.14919211895E+02  0.36017919989E+02  0.44610686301E+02  0.00000000000E+00 0.  1.
</event>
<event>
 7    1  0.4008281E-015  0.9000772E+02  0.7816164E-02  0.1186339E+00
        -11   -1    0    0    0    0  0.00000000000E+00  0.00000000000E+00  0.45593999997E+02  0.45594000000E+02  0.51100000000E-03 0. -1.
         11   -1    0    0    0    0 -0.00000000000E+00 -0.00000000000E+00 -0.45593999997E+02  0.45594000000E+02  0.51100000000E-03 0.  1.
    9900012    2    1    2    0    0 -0.48320807094E+00  0.26152513078E+00 -0.10445962625E+01  0.90007717498E+02  0.89999978569E+02 0.  0.
         12    1    1    2    0    0  0.48320807094E+00 -0.26152513078E+00  0.10445962625E+01  0.11802825024E+01  0.00000000000E+00 0. -1.
         11    1    3    3    0    0 -0.10431108771E+02  0.13089137594E+02 -0.58352910416E+01  0.17725241182E+02  0.51100000000E-03 0. -1.
        -11    1    3    3    0    0 -0.30246033129E+02 -0.74082152296E+01  0.59723788570E+01  0.31707624988E+02  0.51100000000E-03 0.  1.
         12    1    3    3    0    0  0.40193933829E+02 -0.54193972338E+01 -0.11816840778E+01  0.40574851328E+02  0.00000000000E+00 0. -1.
</event>
<event>
 7    1  0.4008281E-015  0.9000771E+02  0.7816164E-02  0.1186339E+00
        -11   -1    0    0    0    0  0.00000000000E+00  0.00000000000E+00  0.45593999997E+02  0.45594000000E+02  0.51100000000E-03 0. -1.
         11   -1    0    0    0    0 -0.00000000000E+00 -0.00000000000E+00 -0.45593999997E+02  0.45594000000E+02  0.51100000000E-03 0.  1.
    9900012    2    1    2    0    0  0.50942602278E+00 -0.10334317275E+01  0.25608942461E+00  0.90007712831E+02  0.89999973840E+02 0.  0.
         12    1    1    2    0    0 -0.50942602278E+00  0.10334317275E+01 -0.25608942461E+00  0.11802871691E+01  0.00000000000E+00 0. -1.
         11    1    3    3    0    0  0.95824756465E+01 -0.38907915322E+01  0.31306460525E+01  0.10805694944E+02  0.51100000000E-03 0. -1.
        -11    1    3    3    0    0  0.21906546842E+02  0.71241158696E+01 -0.29986784294E+02  0.37813450703E+02  0.51100000000E-03 0.  1.
         12    1    3    3    0    0 -0.30979596466E+02 -0.42667560649E+01  0.27112227666E+02  0.41388567184E+02  0.00000000000E+00 0. -1.
</event>
<event>
 7    1  0.4008281E-015  0.9000742E+02  0.7816164E-02  0.1186340E+00
        -11   -1    0    0    0    0  0.00000000000E+00  0.00000000000E+00  0.45593999997E+02  0.45594000000E+02  0.51100000000E-03 0. -1.
         11   -1    0    0    0    0 -0.00000000000E+00 -0.00000000000E+00 -0.45593999997E+02  0.45594000000E+02  0.51100000000E-03 0.  1.
    9900012    2    1    2    0    0  0.83924024985E+00  0.57060498294E+00 -0.60320063918E+00  0.90007421644E+02  0.89999678809E+02 0.  0.
         12    1    1    2    0    0 -0.83924024985E+00 -0.57060498294E+00  0.60320063918E+00  0.11805783560E+01  0.00000000000E+00 0. -1.
         11    1    3    3    0    0 -0.22204235574E+02  0.35855364352E+02 -0.61983635735E+01  0.42626927423E+02  0.51100000000E-03 0. -1.
        -11    1    3    3    0    0  0.75902957379E+01 -0.78259050566E+00 -0.36546468834E+01  0.84605839864E+01  0.51100000000E-03 0.  1.
        -12    1    3    3    0    0  0.15453180086E+02 -0.34502168863E+02  0.92498098178E+01  0.38919910235E+02  0.00000000000E+00 0.  1.
</event>
<event>
 7    1  0.4008281E-015  0.9000772E+02  0.7816164E-02  0.1186339E+00
        -11   -1    0    0    0    0  0.00000000000E+00  0.00000000000E+00  0.45593999997E+02  0.45594000000E+02  0.51100000000E-03 0.  1.
         11   -1    0    0    0    0 -0.00000000000E+00 -0.00000000000E+00 -0.45593999997E+02  0.45594000000E+02  0.51100000000E-03 0. -1.
    9900012    2    1    2    0    0  0.39614570488E-01  0.78916472778E+00  0.87675504256E+00  0.90007724741E+02  0.89999985908E+02 0.  0.
         12    1    1    2    0    0 -0.39614570488E-01 -0.78916472778E+00 -0.87675504256E+00  0.11802752588E+01  0.00000000000E+00 0. -1.
         11    1    3    3    0    0 -0.43431945629E+01 -0.90228550668E+01 -0.96683188648E+00  0.10060318918E+02  0.51100000000E-03 0. -1.
        -11    1    3    3    0    0 -0.39762481723E-01 -0.33026184052E+02  0.12946802356E+02  0.35473230831E+02  0.51100000000E-03 0.  1.
         12    1    3    3    0    0  0.44225716151E+01  0.42838203846E+02 -0.11103215427E+02  0.44474174993E+02  0.00000000000E+00 0. -1.
</event>
<event>
 7    1  0.4008281E-015  0.9000770E+02  0.7816164E-02  0.1186339E+00
        -11   -1    0    0    0    0  0.00000000000E+00  0.00000000000E+00  0.45593999997E+02  0.45594000000E+02  0.51100000000E-03 0. -1.
         11   -1    0    0    0    0 -0.00000000000E+00 -0.00000000000E+00 -0.45593999997E+02  0.45594000000E+02  0.51100000000E-03 0.  1.
    9900012    2    1    2    0    0  0.45951995364E+00 -0.10279207293E+01  0.35402731695E+00  0.90007697092E+02  0.89999957894E+02 0.  0.
         12    1    1    2    0    0 -0.45951995364E+00  0.10279207293E+01 -0.35402731695E+00  0.11803029080E+01  0.00000000000E+00 0. -1.
         11    1    3    3    0    0 -0.17872916764E+02 -0.91162099936E+01  0.31556045279E+02  0.37394256674E+02  0.51100000000E-03 0. -1.
        -11    1    3    3    0    0  0.14649418597E+01 -0.42659857647E+01  0.74268891257E+01  0.86892676069E+01  0.51100000000E-03 0.  1.
        -12    1    3    3    0    0  0.16867494858E+02  0.12354275029E+02 -0.38628907088E+02  0.43924172811E+02  0.00000000000E+00 0.  1.
</event>
<event>
 7    1  0.4008281E-015  0.9000776E+02  0.7816164E-02  0.1186339E+00
        -11   -1    0    0    0    0  0.00000000000E+00  0.00000000000E+00  0.45593999997E+02  0.45594000000E+02  0.51100000000E-03 0. -1.
         11   -1    0    0    0    0 -0.00000000000E+00 -0.00000000000E+00 -0.45593999997E+02  0.45594000000E+02  0.51100000000E-03 0.  1.
    9900012    2    1    2    0    0  0.86717108821E+00 -0.70799609573E+00  0.37378153706E+00  0.90007764089E+02  0.90000025775E+02 0.  0.
         12    1    1    2    0    0 -0.86717108821E+00  0.70799609573E+00 -0.37378153706E+00  0.11802359108E+01  0.00000000000E+00 0. -1.
         11    1    3    3    0    0  0.31781588937E+02  0.25569906703E+02  0.14291322858E+02  0.43221886047E+02  0.51100000000E-03 0. -1.
        -11    1    3    3    0    0 -0.22492291480E+01 -0.76540056925E+01 -0.93615523757E+01  0.12299654387E+02  0.51100000000E-03 0.  1.
        -12    1    3    3    0    0 -0.28665188701E+02 -0.18623897107E+02 -0.45559889452E+01  0.34486223655E+02  0.00000000000E+00 0.  1.
</event>
<event>
 7    1  0.4008281E-015  0.9000791E+02  0.7816164E-02  0.1186339E+00
        -11   -1    0    0    0    0  0.00000000000E+00  0.00000000000E+00  0.45593999997E+02  0.45594000000E+02  0.51100000000E-03 0. -1.
         11   -1    0    0    0    0 -0.00000000000E+00 -0.00000000000E+00 -0.45593999997E+02  0.45594000000E+02  0.51100000000E-03 0.  1.
    9900012    2    1    2    0    0  0.11419417343E+01 -0.24936012061E+00 -0.16246049381E+00  0.90007913221E+02  0.90000176875E+02 0.  0.
         12    1    1    2    0    0 -0.11419417343E+01  0.24936012061E+00  0.16246049381E+00  0.11800867791E+01  0.00000000000E+00 0. -1.
         11    1    3    3    0    0 -0.84136146809E-01 -0.10745297763E+02  0.41503235031E+01  0.11519274645E+02  0.51100000000E-03 0. -1.
        -11    1    3    3    0    0 -0.32719595346E+01 -0.28131067130E+02 -0.21907927024E+02  0.35805305805E+02  0.51100000000E-03 0.  1.
         12    1    3    3    0    0  0.44980374157E+01  0.38627004772E+02  0.17595143027E+02  0.42683332771E+02  0.00000000000E+00 0. -1.
</event>
<event>
 7    1  0.4008281E-015  0.9000790E+02  0.7816164E-02  0.1186339E+00
        -11   -1    0    0    0    0  0.00000000000E+00  0.00000000000E+00  0.45593999997E+02  0.45594000000E+02  0.51100000000E-03 0. -1.
         11   -1    0    0    0    0 -0.00000000000E+00 -0.00000000000E+00 -0.45593999997E+02  0.45594000000E+02  0.51100000000E-03 0.  1.
    9900012    2    1    2    0    0 -0.91095668164E-01 -0.11653728791E+01 -0.16200225245E+00  0.90007899539E+02  0.90000163013E+02 0.  0.
         12    1    1    2    0    0  0.91095668164E-01  0.11653728791E+01  0.16200225245E+00  0.11801004609E+01  0.00000000000E+00 0. -1.
         11    1    3    3    0    0 -0.32670382546E+01  0.11304068786E+01 -0.78647412033E+01  0.85910135097E+01  0.51100000000E-03 0. -1.
        -11    1    3    3    0    0 -0.36922090109E+02  0.49931334780E+01 -0.73398614824E+01  0.37974276646E+02  0.51100000000E-03 0.  1.
         12    1    3    3    0    0  0.40098032696E+02 -0.72889132357E+01  0.15042600433E+02  0.43442609383E+02  0.00000000000E+00 0. -1.
</event>
<event>
 7    1  0.4008281E-015  0.9000777E+02  0.7816164E-02  0.1186339E+00
        -11   -1    0    0    0    0  0.00000000000E+00  0.00000000000E+00  0.45593999997E+02  0.45594000000E+02  0.51100000000E-03 0. -1.
         11   -1    0    0    0    0 -0.00000000000E+00 -0.00000000000E+00 -0.45593999997E+02  0.45594000000E+02  0.51100000000E-03 0.  1.
    9900012    2    1    2    0    0 -0.41824298702E+00  0.10466778680E+01 -0.34998431906E+00  0.90007766642E+02  0.90000028362E+02 0.  0.
         12    1    1    2    0    0  0.41824298702E+00 -0.10466778680E+01  0.34998431906E+00  0.11802333579E+01  0.00000000000E+00 0. -1.
         11    1    3    3    0    0 -0.13748658609E+01 -0.29036032594E+01 -0.85778702129E+01  0.91597503063E+01  0.51100000000E-03 0. -1.
        -11    1    3    3    0    0 -0.25189896896E+02  0.17185004190E+02 -0.22870687466E+02  0.38117235210E+02  0.51100000000E-03 0.  1.
         12    1    3    3    0    0  0.26146519770E+02 -0.13234723063E+02  0.31098573359E+02  0.42730781126E+02  0.00000000000E+00 0. -1.
</event>
<event>
 7    1  0.4008281E-015  0.9000773E+02  0.7816164E-02  0.1186339E+00
        -11   -1    0    0    0    0  0.00000000000E+00  0.00000000000E+00  0.45593999997E+02  0.45594000000E+02  0.51100000000E-03 0.  1.
         11   -1    0    0    0    0 -0.00000000000E+00 -0.00000000000E+00 -0.45593999997E+02  0.45594000000E+02  0.51100000000E-03 0. -1.
    9900012    2    1    2    0    0 -0.84710180904E+00 -0.80277453205E+00  0.17610326046E+00  0.90007728513E+02  0.89999989730E+02 0.  0.
         12    1    1    2    0    0  0.84710180904E+00  0.80277453205E+00 -0.17610326046E+00  0.11802714868E+01  0.00000000000E+00 0. -1.
         11    1    3    3    0    0 -0.85130049885E+01  0.36700857608E+01 -0.62949127872E+01  0.11205655299E+02  0.51100000000E-03 0. -1.
        -11    1    3    3    0    0 -0.31961640645E+02 -0.15494599675E+02  0.11568064451E+02  0.37355711842E+02  0.51100000000E-03 0.  1.
         12    1    3    3    0    0  0.39627543825E+02  0.11021739382E+02 -0.50970484036E+01  0.41446361372E+02  0.00000000000E+00 0. -1.
</event>
<event>
 7    1  0.4008281E-015  0.9000752E+02  0.7816164E-02  0.1186339E+00
        -11   -1    0    0    0    0  0.00000000000E+00  0.00000000000E+00  0.45593999997E+02  0.45594000000E+02  0.51100000000E-03 0.  1.
         11   -1    0    0    0    0 -0.00000000000E+00 -0.00000000000E+00 -0.45593999997E+02  0.45594000000E+02  0.51100000000E-03 0. -1.
    9900012    2    1    2    0    0 -0.87198497265E+00  0.12840296530E+00  0.78529843217E+00  0.90007517581E+02  0.89999776013E+02 0.  0.
         12    1    1    2    0    0  0.87198497265E+00 -0.12840296530E+00 -0.78529843217E+00  0.11804824190E+01  0.00000000000E+00 0. -1.
         11    1    3    3    0    0  0.62853846386E+01 -0.17830435574E+01  0.39077952438E+01  0.76128948706E+01  0.51100000000E-03 0. -1.
        -11    1    3    3    0    0 -0.13966063357E+02 -0.36289333915E+02 -0.15209590858E+02  0.41752824288E+02  0.51100000000E-03 0.  1.
         12    1    3    3    0    0  0.68086937456E+01  0.38200780437E+02  0.12087094046E+02  0.40641798423E+02  0.00000000000E+00 0. -1.
</event>
<event>
 7    1  0.4008281E-015  0.9000809E+02  0.7816164E-02  0.1186338E+00
        -11   -1    0    0    0    0  0.00000000000E+00  0.00000000000E+00  0.45593999997E+02  0.45594000000E+02  0.51100000000E-03 0.  1.
         11   -1    0    0    0    0 -0.00000000000E+00 -0.00000000000E+00 -0.45593999997E+02  0.45594000000E+02  0.51100000000E-03 0. -1.
    9900012    2    1    2    0    0 -0.16906757059E+00  0.26800913540E+00  0.11365582523E+01  0.90008094325E+02  0.90000360370E+02 0.  0.
         12    1    1    2    0    0  0.16906757059E+00 -0.26800913540E+00 -0.11365582523E+01  0.11799056746E+01  0.00000000000E+00 0. -1.
         11    1    3    3    0    0  0.98900335158E+01 -0.50702110304E-01  0.25256589386E+01  0.10207560286E+02  0.51100000000E-03 0. -1.
        -11    1    3    3    0    0 -0.10281912377E+02 -0.12733393424E+01  0.38504784997E+02  0.39874272196E+02  0.51100000000E-03 0.  1.
         12    1    3    3    0    0  0.22281129069E+00  0.15920505881E+01 -0.39893885683E+02  0.39926261844E+02  0.00000000000E+00 0. -1.
</event>
<event>
 7    1  0.4008281E-015  0.9000775E+02  0.7816164E-02  0.1186339E+00
        -11   -1    0    0    0    0  0.00000000000E+00  0.00000000000E+00  0.45593999997E+02  0.45594000000E+02  0.51100000000E-03 0.  1.
         11   -1    0    0    0    0 -0.00000000000E+00 -0.00000000000E+00 -0.45593999997E+02  0.45594000000E+02  0.51100000000E-03 0. -1.
    9900012    2    1    2    0    0  0.10144168670E+01  0.31366577886E+00  0.51532273640E+00  0.90007752008E+02  0.90000013534E+02 0.  0.
         12    1    1    2    0    0 -0.10144168670E+01 -0.31366577886E+00 -0.51532273640E+00  0.11802479924E+01  0.00000000000E+00 0. -1.
         11    1    3    3    0    0  0.53012574346E+01  0.13024923955E+02 -0.67490520427E+01  0.15598130598E+02  0.51100000000E-03 0. -1.
        -11    1    3    3    0    0  0.44392805665E+01  0.22356064233E+02  0.25274272074E+02  0.34033654653E+02  0.51100000000E-03 0.  1.
         12    1    3    3    0    0 -0.87261211341E+01 -0.35067322409E+02 -0.18009897295E+02  0.40375966757E+02  0.00000000000E+00 0. -1.
</event>
<event>
 7    1  0.4008281E-015  0.9000771E+02  0.7816164E-02  0.1186339E+00
        -11   -1    0    0    0    0  0.00000000000E+00  0.00000000000E+00  0.45593999997E+02  0.45594000000E+02  0.51100000000E-03 0.  1.
         11   -1    0    0    0    0 -0.00000000000E+00 -0.00000000000E+00 -0.45593999997E+02  0.45594000000E+02  0.51100000000E-03 0. -1.
    9900012    2    1    2    0    0  0.57663018319E-01  0.79963238967E+00  0.86622142962E+00  0.90007713362E+02  0.89999974379E+02 0.  0.
         12    1    1    2    0    0 -0.57663018319E-01 -0.79963238967E+00 -0.86622142962E+00  0.11802866378E+01  0.00000000000E+00 0. -1.
         11    1    3    3    0    0 -0.26549041907E+02 -0.84704628194E+01 -0.24179033547E+02  0.36894796789E+02  0.51100000000E-03 0. -1.
        -11    1    3    3    0    0  0.48483395339E+01  0.44497904430E+01 -0.97676548710E+01  0.11777695579E+02  0.51100000000E-03 0.  1.
        -12    1    3    3    0    0  0.21758365392E+02  0.48203047661E+01  0.34812909848E+02  0.41335220994E+02  0.00000000000E+00 0.  1.
</event>
<event>
 7    1  0.4008281E-015  0.9000776E+02  0.7816164E-02  0.1186339E+00
        -11   -1    0    0    0    0  0.00000000000E+00  0.00000000000E+00  0.45593999997E+02  0.45594000000E+02  0.51100000000E-03 0.  1.
         11   -1    0    0    0    0 -0.00000000000E+00 -0.00000000000E+00 -0.45593999997E+02  0.45594000000E+02  0.51100000000E-03 0. -1.
    9900012    2    1    2    0    0 -0.11495506334E+01 -0.24465974529E+00  0.10794986585E+00  0.90007755016E+02  0.90000016582E+02 0.  0.
         12    1    1    2    0    0  0.11495506334E+01  0.24465974529E+00 -0.10794986585E+00  0.11802449844E+01  0.00000000000E+00 0. -1.
         11    1    3    3    0    0 -0.43359547870E+01 -0.53502629913E+01  0.15976552880E+01  0.70695346856E+01  0.51100000000E-03 0. -1.
        -11    1    3    3    0    0 -0.21126675451E+02  0.24385204039E+01  0.33840182355E+02  0.39967996441E+02  0.51100000000E-03 0.  1.
         12    1    3    3    0    0  0.24313079605E+02  0.26670828421E+01 -0.35329887777E+02  0.42970223889E+02  0.00000000000E+00 0. -1.
</event>
<event>
 7    1  0.4008281E-015  0.9000782E+02  0.7816164E-02  0.1186339E+00
        -11   -1    0    0    0    0  0.00000000000E+00  0.00000000000E+00  0.45593999997E+02  0.45594000000E+02  0.51100000000E-03 0. -1.
         11   -1    0    0    0    0 -0.00000000000E+00 -0.00000000000E+00 -0.45593999997E+02  0.45594000000E+02  0.51100000000E-03 0.  1.
    9900012    2    1    2    0    0 -0.28020762344E+00  0.11432536574E+01  0.85347105345E-01  0.90007818079E+02  0.90000080478E+02 0.  0.
         12    1    1    2    0    0  0.28020762344E+00 -0.11432536574E+01 -0.85347105345E-01  0.11801819207E+01  0.00000000000E+00 0. -1.
         11    1    3    3    0    0 -0.91118816961E+01  0.15229648581E+01 -0.52282385327E+01  0.10615097193E+02  0.51100000000E-03 0. -1.
        -11    1    3    3    0    0  0.23138605134E+02 -0.14514444916E+02 -0.28862608474E+02  0.39738071505E+02  0.51100000000E-03 0.  1.
         12    1    3    3    0    0 -0.14306931061E+02  0.14134733716E+02  0.34176194112E+02  0.39654649381E+02  0.00000000000E+00 0. -1.
</event>
<event>
 7    1  0.4008281E-015  0.9000780E+02  0.7816164E-02  0.1186339E+00
        -11   -1    0    0    0    0  0.00000000000E+00  0.00000000000E+00  0.45593999997E+02  0.45594000000E+02  0.51100000000E-03 0. -1.
         11   -1    0    0    0    0 -0.00000000000E+00 -0.00000000000E+00 -0.45593999997E+02  0.45594000000E+02  0.51100000000E-03 0.  1.
    9900012    2    1    2    0    0 -0.11534797509E+01  0.12588508447E+00 -0.21563388496E+00  0.90007804862E+02  0.90000067087E+02 0.  0.
         12    1    1    2    0    0  0.11534797509E+01 -0.12588508447E+00  0.21563388496E+00  0.11801951375E+01  0.00000000000E+00 0. -1.
         11    1    3    3    0    0 -0.37439051212E+01 -0.18698710869E+01  0.15986752255E+02  0.16525419552E+02  0.51100000000E-03 0. -1.
        -11    1    3    3    0    0 -0.17833280371E+02 -0.21568717285E+02  0.12910987620E+02  0.30820919124E+02  0.51100000000E-03 0.  1.
         12    1    3    3    0    0  0.20423705741E+02  0.23564473456E+02 -0.29113373760E+02  0.42661466186E+02  0.00000000000E+00 0. -1.
</event>
<event>
 7    1  0.4008281E-015  0.9000767E+02  0.7816164E-02  0.1186339E+00
        -11   -1    0    0    0    0  0.00000000000E+00  0.00000000000E+00  0.45593999997E+02  0.45594000000E+02  0.51100000000E-03 0.  1.
         11   -1    0    0    0    0 -0.00000000000E+00 -0.00000000000E+00 -0.45593999997E+02  0.45594000000E+02  0.51100000000E-03 0. -1.
    9900012    2    1    2    0    0  0.36523954786E+00  0.97888851643E+00  0.54915044037E+00  0.90007665784E+02  0.89999926172E+02 0.  0.
         12    1    1    2    0    0 -0.36523954786E+00 -0.97888851643E+00 -0.54915044037E+00  0.11803342158E+01  0.00000000000E+00 0. -1.
         11    1    3    3    0    0  0.57114628889E+00  0.27600540539E+02 -0.51755333804E+00  0.27611300365E+02  0.51100000000E-03 0. -1.
        -11    1    3    3    0    0  0.28022483020E+02 -0.14002911537E+02 -0.15552138052E+01  0.31364945024E+02  0.51100000000E-03 0.  1.
         12    1    3    3    0    0 -0.28228389761E+02 -0.12618740485E+02  0.26219175836E+01  0.31031420395E+02  0.00000000000E+00 0. -1.
</event>
<event>
 7    1  0.4008281E-015  0.9000771E+02  0.7816164E-02  0.1186339E+00
        -11   -1    0    0    0    0  0.00000000000E+00  0.00000000000E+00  0.45593999997E+02  0.45594000000E+02  0.51100000000E-03 0.  1.
         11   -1    0    0    0    0 -0.00000000000E+00 -0.00000000000E+00 -0.45593999997E+02  0.45594000000E+02  0.51100000000E-03 0. -1.
    9900012    2    1    2    0    0 -0.54967311849E+00  0.10170750095E+01  0.23768636378E+00  0.90007713205E+02  0.89999974219E+02 0.  0.
         12    1    1    2    0    0  0.54967311849E+00 -0.10170750095E+01 -0.23768636378E+00  0.11802867955E+01  0.00000000000E+00 0. -1.
         11    1    3    3    0    0 -0.16413250425E+02  0.34607978765E+01 -0.33551913348E+02  0.37511368957E+02  0.51100000000E-03 0. -1.
        -11    1    3    3    0    0 -0.53634998137E+01 -0.49495495360E+01 -0.45504630014E+01  0.86006909402E+01  0.51100000000E-03 0.  1.
        -12    1    3    3    0    0  0.21227077120E+02  0.25058266689E+01  0.38340062714E+02  0.43895653307E+02  0.00000000000E+00 0.  1.
</event>
<event>
 7    1  0.4008281E-015  0.9000779E+02  0.7816164E-02  0.1186339E+00
        -11   -1    0    0    0    0  0.00000000000E+00  0.00000000000E+00  0.45593999997E+02  0.45594000000E+02  0.51100000000E-03 0.  1.
         11   -1    0    0    0    0 -0.00000000000E+00 -0.00000000000E+00 -0.45593999997E+02  0.45594000000E+02  0.51100000000E-03 0. -1.
    9900012    2    1    2    0    0  0.66081733958E+00  0.94960125353E+00  0.23341368367E+00  0.90007786441E+02  0.90000048422E+02 0.  0.
         12    1    1    2    0    0 -0.66081733958E+00 -0.94960125353E+00 -0.23341368367E+00  0.11802135589E+01  0.00000000000E+00 0. -1.
         11    1    3    3    0    0 -0.26605886580E+02  0.17295914024E+02 -0.20866235994E+02  0.37979226525E+02  0.51100000000E-03 0. -1.
        -11    1    3    3    0    0 -0.75469988004E+01  0.18643757235E+01  0.64360595801E+01  0.10092370926E+02  0.51100000000E-03 0.  1.
        -12    1    3    3    0    0  0.34813702720E+02 -0.18210688494E+02  0.14663590097E+02  0.41936188990E+02  0.00000000000E+00 0.  1.
</event>
<event>
 7    1  0.4008281E-015  0.9000770E+02  0.7816164E-02  0.1186339E+00
        -11   -1    0    0    0    0  0.00000000000E+00  0.00000000000E+00  0.45593999997E+02  0.45594000000E+02  0.51100000000E-03 0.  1.
         11   -1    0    0    0    0 -0.00000000000E+00 -0.00000000000E+00 -0.45593999997E+02  0.45594000000E+02  0.51100000000E-03 0. -1.
    9900012    2    1    2    0    0 -0.97149710729E+00  0.61030349493E+00  0.27717662609E+00  0.90007701789E+02  0.89999962652E+02 0.  0.
         12    1    1    2    0    0  0.97149710729E+00 -0.61030349493E+00 -0.27717662609E+00  0.11802982112E+01  0.00000000000E+00 0. -1.
         11    1    3    3    0    0  0.27736349426E+02  0.21741578889E+02 -0.14130284560E+02  0.37969280663E+02  0.51100000000E-03 0. -1.
        -11    1    3    3    0    0 -0.19083572440E+01 -0.71080233531E+00 -0.10145855442E+02  0.10348210002E+02  0.51100000000E-03 0.  1.
        -12    1    3    3    0    0 -0.26799489289E+02 -0.20420473059E+02  0.24553316628E+02  0.41690211124E+02  0.00000000000E+00 0.  1.
</event>
<event>
 7    1  0.4008281E-015  0.9000773E+02  0.7816164E-02  0.1186339E+00
        -11   -1    0    0    0    0  0.00000000000E+00  0.00000000000E+00  0.45593999997E+02  0.45594000000E+02  0.51100000000E-03 0. -1.
         11   -1    0    0    0    0 -0.00000000000E+00 -0.00000000000E+00 -0.45593999997E+02  0.45594000000E+02  0.51100000000E-03 0.  1.
    9900012    2    1    2    0    0 -0.44841148882E+00 -0.29434602591E+00 -0.10513457526E+01  0.90007728702E+02  0.89999989920E+02 0.  0.
         12    1    1    2    0    0  0.44841148882E+00  0.29434602591E+00  0.10513457526E+01  0.11802712984E+01  0.00000000000E+00 0. -1.
         11    1    3    3    0    0  0.67356947987E+01 -0.17989094258E+01  0.69717818949E+01  0.98595843013E+01  0.51100000000E-03 0. -1.
        -11    1    3    3    0    0 -0.41944134696E+02  0.13734453458E+01  0.65164982303E+01  0.42469536576E+02  0.51100000000E-03 0.  1.
         12    1    3    3    0    0  0.34760028409E+02  0.13111805412E+00 -0.14539625878E+02  0.37678607824E+02  0.00000000000E+00 0. -1.
</event>
<event>
 7    1  0.4008281E-015  0.9000769E+02  0.7816164E-02  0.1186339E+00
        -11   -1    0    0    0    0  0.00000000000E+00  0.00000000000E+00  0.45593999997E+02  0.45594000000E+02  0.51100000000E-03 0.  1.
         11   -1    0    0    0    0 -0.00000000000E+00 -0.00000000000E+00 -0.45593999997E+02  0.45594000000E+02  0.51100000000E-03 0. -1.
    9900012    2    1    2    0    0  0.43551096640E-01 -0.11750572009E+01  0.10236376918E+00  0.90007688827E+02  0.89999949520E+02 0.  0.
         12    1    1    2    0    0 -0.43551096640E-01  0.11750572009E+01 -0.10236376918E+00  0.11803111728E+01  0.00000000000E+00 0. -1.
         11    1    3    3    0    0  0.15285823245E+01  0.19930115645E+02 -0.31185194466E+02  0.37041361040E+02  0.51100000000E-03 0. -1.
        -11    1    3    3    0    0 -0.26575118363E+00  0.86700848005E+01 -0.13410433126E+01  0.87772086432E+01  0.51100000000E-03 0.  1.
        -12    1    3    3    0    0 -0.12192800442E+01 -0.29775257646E+02  0.32628601548E+02  0.44189119144E+02  0.00000000000E+00 0.  1.
</event>
<event>
 7    1  0.4008281E-015  0.9000783E+02  0.7816164E-02  0.1186339E+00
        -11   -1    0    0    0    0  0.00000000000E+00  0.00000000000E+00  0.45593999997E+02  0.45594000000E+02  0.51100000000E-03 0.  1.
         11   -1    0    0    0    0 -0.00000000000E+00 -0.00000000000E+00 -0.45593999997E+02  0.45594000000E+02  0.51100000000E-03 0. -1.
    9900012    2    1    2    0    0  0.41666246788E+00  0.10588639900E+01 -0.31305454956E+00  0.90007828948E+02  0.90000091490E+02 0.  0.
         12    1    1    2    0    0 -0.41666246788E+00 -0.10588639900E+01  0.31305454956E+00  0.11801710522E+01  0.00000000000E+00 0. -1.
         11    1    3    3    0    0  0.66113033108E+01  0.10684442233E+02 -0.46282823815E+01  0.13389833284E+02  0.51100000000E-03 0. -1.
        -11    1    3    3    0    0  0.19295196819E+02  0.25877132963E+02  0.62122470053E+01  0.32871304261E+02  0.51100000000E-03 0.  1.
         12    1    3    3    0    0 -0.25489837662E+02 -0.35502711206E+02 -0.18970191734E+01  0.43746691404E+02  0.00000000000E+00 0. -1.
</event>
<event>
 7    1  0.4008281E-015  0.9000775E+02  0.7816164E-02  0.1186339E+00
        -11   -1    0    0    0    0  0.00000000000E+00  0.00000000000E+00  0.45593999997E+02  0.45594000000E+02  0.51100000000E-03 0.  1.
         11   -1    0    0    0    0 -0.00000000000E+00 -0.00000000000E+00 -0.45593999997E+02  0.45594000000E+02  0.51100000000E-03 0. -1.
    9900012    2    1    2    0    0  0.11586440017E+01 -0.19615936428E+00  0.10982627014E+00  0.90007747388E+02  0.90000008853E+02 0.  0.
         12    1    1    2    0    0 -0.11586440017E+01  0.19615936428E+00 -0.10982627014E+00  0.11802526122E+01  0.00000000000E+00 0. -1.
         11    1    3    3    0    0 -0.35471337103E+01 -0.59433067981E+01  0.61422000828E+01  0.92537384539E+01  0.51100000000E-03 0. -1.
        -11    1    3    3    0    0 -0.26452951472E+02 -0.25249374039E+02 -0.33362994412E+01  0.36720844560E+02  0.51100000000E-03 0.  1.
         12    1    3    3    0    0  0.31158729184E+02  0.30996521473E+02 -0.26960743715E+01  0.44033164374E+02  0.00000000000E+00 0. -1.
</event>
<event>
 7    1  0.4008281E-015  0.9000772E+02  0.7816164E-02  0.1186339E+00
        -11   -1    0    0    0    0  0.00000000000E+00  0.00000000000E+00  0.45593999997E+02  0.45594000000E+02  0.51100000000E-03 0.  1.
         11   -1    0    0    0    0 -0.00000000000E+00 -0.00000000000E+00 -0.45593999997E+02  0.45594000000E+02  0.51100000000E-03 0. -1.
    9900012    2    1    2    0    0 -0.85251839988E+00 -0.18273039300E+00  0.79554592978E+00  0.90007715566E+02  0.89999976612E+02 0.  0.
         12    1    1    2    0    0  0.85251839988E+00  0.18273039300E+00 -0.79554592978E+00  0.11802844340E+01  0.00000000000E+00 0. -1.
         11    1    3    3    0    0  0.82587470306E+01  0.48808399764E+01  0.78409618346E+00  0.96251913476E+01  0.51100000000E-03 0. -1.
        -11    1    3    3    0    0  0.77068953441E+00  0.25347500301E+02  0.28078843718E+02  0.37835316817E+02  0.51100000000E-03 0.  1.
         12    1    3    3    0    0 -0.98819549649E+01 -0.30411070670E+02 -0.28067393972E+02  0.42547207401E+02  0.00000000000E+00 0. -1.
</event>
<event>
 7    1  0.4008281E-015  0.9000769E+02  0.7816164E-02  0.1186339E+00
        -11   -1    0    0    0    0  0.00000000000E+00  0.00000000000E+00  0.45593999997E+02  0.45594000000E+02  0.51100000000E-03 0.  1.
         11   -1    0    0    0    0 -0.00000000000E+00 -0.00000000000E+00 -0.45593999997E+02  0.45594000000E+02  0.51100000000E-03 0. -1.
    9900012    2    1    2    0    0  0.18897844500E-01  0.25712743379E-01  0.11798784946E+01  0.90007690068E+02  0.89999950777E+02 0.  0.
         12    1    1    2    0    0 -0.18897844500E-01 -0.25712743379E-01 -0.11798784946E+01  0.11803099321E+01  0.00000000000E+00 0. -1.
         11    1    3    3    0    0 -0.61636740780E+01 -0.97728185063E+01 -0.11888451453E+02  0.16578122267E+02  0.51100000000E-03 0. -1.
        -11    1    3    3    0    0 -0.28065136704E+02 -0.41364101116E+01  0.21392115036E+02  0.35530048871E+02  0.51100000000E-03 0.  1.
         12    1    3    3    0    0  0.34247708626E+02  0.13934941361E+02 -0.83237850890E+01  0.37899518930E+02  0.00000000000E+00 0. -1.
</event>
<event>
 7    1  0.4008281E-015  0.9000810E+02  0.7816164E-02  0.1186338E+00
        -11   -1    0    0    0    0  0.00000000000E+00  0.00000000000E+00  0.45593999997E+02  0.45594000000E+02  0.51100000000E-03 0.  1.
         11   -1    0    0    0    0 -0.00000000000E+00 -0.00000000000E+00 -0.45593999997E+02  0.45594000000E+02  0.51100000000E-03 0. -1.
    9900012    2    1    2    0    0  0.70757871923E+00  0.63905779658E-01  0.94202583354E+00  0.90008099893E+02  0.90000366010E+02 0.  0.
         12    1    1    2    0    0 -0.70757871923E+00 -0.63905779658E-01 -0.94202583354E+00  0.11799001075E+01  0.00000000000E+00 0. -1.
         11    1    3    3    0    0 -0.49272334782E+01  0.31777701305E+01 -0.36174885009E+01  0.68892725353E+01  0.51100000000E-03 0. -1.
        -11    1    3    3    0    0 -0.35249709059E+02 -0.17443492813E+02 -0.15890525065E+01  0.39361688460E+02  0.51100000000E-03 0.  1.
         12    1    3    3    0    0  0.40884521257E+02  0.14329628462E+02  0.61485668409E+01  0.43757138897E+02  0.00000000000E+00 0. -1.
</event>
<event>
 7    1  0.4008281E-015  0.9000760E+02  0.7816164E-02  0.1186339E+00
        -11   -1    0    0    0    0  0.00000000000E+00  0.00000000000E+00  0.45593999997E+02  0.45594000000E+02  0.51100000000E-03 0. -1.
         11   -1    0    0    0    0 -0.00000000000E+00 -0.00000000000E+00 -0.45593999997E+02  0.45594000000E+02  0.51100000000E-03 0.  1.
    9900012    2    1    2    0    0  0.73235947534E+00  0.84442077104E+00  0.37939231383E+00  0.90007603724E+02  0.89999863293E+02 0.  0.
         12    1    1    2    0    0 -0.73235947534E+00 -0.84442077104E+00 -0.37939231383E+00  0.11803962756E+01  0.00000000000E+00 0. -1.
         11    1    3    3    0    0 -0.40227647522E+01  0.35094398924E+01 -0.82348199181E+01  0.98138200490E+01  0.51100000000E-03 0. -1.
        -11    1    3    3    0    0  0.80429656889E+01  0.12029712556E+02 -0.32949145695E+02  0.35986795961E+02  0.51100000000E-03 0.  1.
         12    1    3    3    0    0 -0.32878414613E+01 -0.14694731678E+02  0.41563357927E+02  0.44206987714E+02  0.00000000000E+00 0. -1.
</event>
<event>
 7    1  0.4008281E-015  0.9000769E+02  0.7816164E-02  0.1186339E+00
        -11   -1    0    0    0    0  0.00000000000E+00  0.00000000000E+00  0.45593999997E+02  0.45594000000E+02  0.51100000000E-03 0.  1.
         11   -1    0    0    0    0 -0.00000000000E+00 -0.00000000000E+00 -0.45593999997E+02  0.45594000000E+02  0.51100000000E-03 0. -1.
    9900012    2    1    2    0    0 -0.84965552816E+00 -0.19168987529E+00 -0.79654339186E+00  0.90007686101E+02  0.89999946758E+02 0.  0.
         12    1    1    2    0    0  0.84965552816E+00  0.19168987529E+00  0.79654339186E+00  0.11803138989E+01  0.00000000000E+00 0. -1.
         11    1    3    3    0    0 -0.80390842241E+01  0.45608787782E+01  0.92189104328E+00  0.92886152762E+01  0.51100000000E-03 0. -1.
        -11    1    3    3    0    0  0.36886544329E+02 -0.22540312967E+02  0.96330961090E+01  0.44288592234E+02  0.51100000000E-03 0.  1.
         12    1    3    3    0    0 -0.29697115633E+02  0.17787744314E+02 -0.11351530544E+02  0.36430478591E+02  0.00000000000E+00 0. -1.
</event>
<event>
 7    1  0.4008281E-015  0.9000764E+02  0.7816164E-02  0.1186339E+00
        -11   -1    0    0    0    0  0.00000000000E+00  0.00000000000E+00  0.45593999997E+02  0.45594000000E+02  0.51100000000E-03 0.  1.
         11   -1    0    0    0    0 -0.00000000000E+00 -0.00000000000E+00 -0.45593999997E+02  0.45594000000E+02  0.51100000000E-03 0. -1.
    9900012    2    1    2    0    0 -0.27938568809E+00 -0.10049821342E+01  0.55245368815E+00  0.90007639661E+02  0.89999899704E+02 0.  0.
         12    1    1    2    0    0  0.27938568809E+00  0.10049821342E+01 -0.55245368815E+00  0.11803603392E+01  0.00000000000E+00 0. -1.
         11    1    3    3    0    0  0.28480806035E+01 -0.68040970070E+01 -0.34600071821E+02  0.35377567320E+02  0.51100000000E-03 0. -1.
        -11    1    3    3    0    0  0.11485602267E+02  0.93133477985E+01 -0.16480906701E+01  0.14878632658E+02  0.51100000000E-03 0.  1.
        -12    1    3    3    0    0 -0.14613068558E+02 -0.35142329257E+01  0.36800616179E+02  0.39751439683E+02  0.00000000000E+00 0.  1.
</event>
<event>
 7    1  0.4008281E-015  0.9000779E+02  0.7816164E-02  0.1186339E+00
        -11   -1    0    0    0    0  0.00000000000E+00  0.00000000000E+00  0.45593999997E+02  0.45594000000E+02  0.51100000000E-03 0.  1.
         11   -1    0    0    0    0 -0.00000000000E+00 -0.00000000000E+00 -0.45593999997E+02  0.45594000000E+02  0.51100000000E-03 0. -1.
    9900012    2    1    2    0    0  0.60010135752E+00 -0.55422123577E+00  0.85183583906E+00  0.90007785141E+02  0.90000047105E+02 0.  0.
         12    1    1    2    0    0 -0.60010135752E+00  0.55422123577E+00 -0.85183583906E+00  0.11802148593E+01  0.00000000000E+00 0. -1.
         11    1    3    3    0    0 -0.26693216435E+02  0.18278348289E+02 -0.11338784172E+02  0.34281100428E+02  0.51100000000E-03 0. -1.
        -11    1    3    3    0    0  0.12000399026E+01  0.11415945303E+02 -0.46359417459E+01  0.12379655047E+02  0.51100000000E-03 0.  1.
        -12    1    3    3    0    0  0.26093277890E+02 -0.30248514828E+02  0.16826561757E+02  0.43347029666E+02  0.00000000000E+00 0.  1.
</event>
<event>
 7    1  0.4008281E-015  0.9000771E+02  0.7816164E-02  0.1186339E+00
        -11   -1    0    0    0    0  0.00000000000E+00  0.00000000000E+00  0.45593999997E+02  0.45594000000E+02  0.51100000000E-03 0.  1.
         11   -1    0    0    0    0 -0.00000000000E+00 -0.00000000000E+00 -0.45593999997E+02  0.45594000000E+02  0.51100000000E-03 0. -1.
    9900012    2    1    2    0    0 -0.97713984588E+00  0.66088703364E+00  0.38800536194E-01  0.90007712141E+02  0.89999973141E+02 0.  0.
         12    1    1    2    0    0  0.97713984588E+00 -0.66088703364E+00 -0.38800536194E-01  0.11802878595E+01  0.00000000000E+00 0. -1.
         11    1    3    3    0    0 -0.73019625097E+01 -0.38235929050E+01  0.27887299898E+00  0.82471988946E+01  0.51100000000E-03 0. -1.
        -11    1    3    3    0    0 -0.57443909207E+01 -0.35253899541E+02 -0.13468658064E+02  0.38173815766E+02  0.51100000000E-03 0.  1.
         12    1    3    3    0    0  0.12069213585E+02  0.39738379479E+02  0.13228585601E+02  0.43586697480E+02  0.00000000000E+00 0. -1.
</event>
<event>
 7    1  0.4008281E-015  0.9000770E+02  0.7816164E-02  0.1186339E+00
        -11   -1    0    0    0    0  0.00000000000E+00  0.00000000000E+00  0.45593999997E+02  0.45594000000E+02  0.51100000000E-03 0.  1.
         11   -1    0    0    0    0 -0.00000000000E+00 -0.00000000000E+00 -0.45593999997E+02  0.45594000000E+02  0.51100000000E-03 0. -1.
    9900012    2    1    2    0    0  0.33154533294E+00  0.91870898788E+00  0.66269212462E+00  0.90007699460E+02  0.89999960293E+02 0.  0.
         12    1    1    2    0    0 -0.33154533294E+00 -0.91870898788E+00 -0.66269212462E+00  0.11803005398E+01  0.00000000000E+00 0. -1.
         11    1    3    3    0    0  0.75885094531E+01  0.32212706349E-01  0.31845798550E+01  0.82297061000E+01  0.51100000000E-03 0. -1.
        -11    1    3    3    0    0 -0.25685261792E+02  0.33109912643E+02  0.90982629105E+01  0.42880967536E+02  0.51100000000E-03 0.  1.
         12    1    3    3    0    0  0.18428297672E+02 -0.32223416361E+02 -0.11620150641E+02  0.38897025825E+02  0.00000000000E+00 0. -1.
</event>
<event>
 7    1  0.4008281E-015  0.9000763E+02  0.7816164E-02  0.1186339E+00
        -11   -1    0    0    0    0  0.00000000000E+00  0.00000000000E+00  0.45593999997E+02  0.45594000000E+02  0.51100000000E-03 0.  1.
         11   -1    0    0    0    0 -0.00000000000E+00 -0.00000000000E+00 -0.45593999997E+02  0.45594000000E+02  0.51100000000E-03 0. -1.
    9900012    2    1    2    0    0  0.24956964688E+00  0.11526435224E+01 -0.48915512649E-01  0.90007633605E+02  0.89999893569E+02 0.  0.
         12    1    1    2    0    0 -0.24956964688E+00 -0.11526435224E+01  0.48915512649E-01  0.11803663948E+01  0.00000000000E+00 0. -1.
         11    1    3    3    0    0 -0.86062221092E+01  0.47650890821E+00  0.82636565257E+00  0.86589260411E+01  0.51100000000E-03 0. -1.
        -11    1    3    3    0    0  0.22250779834E+02  0.22016624477E+02  0.28719521554E+02  0.42481053131E+02  0.51100000000E-03 0.  1.
         12    1    3    3    0    0 -0.13394988077E+02 -0.21340489863E+02 -0.29594802719E+02  0.38867654433E+02  0.00000000000E+00 0. -1.
</event>
<event>
 7    1  0.4008281E-015  0.9000775E+02  0.7816164E-02  0.1186339E+00
        -11   -1    0    0    0    0  0.00000000000E+00  0.00000000000E+00  0.45593999997E+02  0.45594000000E+02  0.51100000000E-03 0.  1.
         11   -1    0    0    0    0 -0.00000000000E+00 -0.00000000000E+00 -0.45593999997E+02  0.45594000000E+02  0.51100000000E-03 0. -1.
    9900012    2    1    2    0    0  0.10845577572E+00 -0.10128271473E+01  0.59615232273E+00  0.90007754654E+02  0.90000016215E+02 0.  0.
         12    1    1    2    0    0 -0.10845577572E+00  0.10128271473E+01 -0.59615232273E+00  0.11802453463E+01  0.00000000000E+00 0. -1.
         11    1    3    3    0    0  0.31023809289E+02  0.15818521556E+02 -0.11212178795E+02  0.36584358961E+02  0.51100000000E-03 0. -1.
        -11    1    3    3    0    0 -0.39400444195E+00  0.54248865363E+01 -0.88360416414E+01  0.10375946491E+02  0.51100000000E-03 0.  1.
        -12    1    3    3    0    0 -0.30521349071E+02 -0.22256235240E+02  0.20644372759E+02  0.43047449202E+02  0.00000000000E+00 0.  1.
</event>
<event>
 7    1  0.4008281E-015  0.9000781E+02  0.7816164E-02  0.1186339E+00
        -11   -1    0    0    0    0  0.00000000000E+00  0.00000000000E+00  0.45593999997E+02  0.45594000000E+02  0.51100000000E-03 0.  1.
         11   -1    0    0    0    0 -0.00000000000E+00 -0.00000000000E+00 -0.45593999997E+02  0.45594000000E+02  0.51100000000E-03 0. -1.
    9900012    2    1    2    0    0  0.64982634425E+00  0.98285170298E+00 -0.67686884599E-01  0.90007807955E+02  0.90000070220E+02 0.  0.
         12    1    1    2    0    0 -0.64982634425E+00 -0.98285170298E+00  0.67686884599E-01  0.11801920446E+01  0.00000000000E+00 0. -1.
         11    1    3    3    0    0 -0.20892287601E+01  0.97364274332E+01  0.25072020039E+01  0.10268834312E+02  0.51100000000E-03 0. -1.
        -11    1    3    3    0    0 -0.90462266335E+01  0.32491157693E+02 -0.12040090243E+02  0.35811636626E+02  0.51100000000E-03 0.  1.
         12    1    3    3    0    0  0.11785281738E+02 -0.41244733423E+02  0.94652013541E+01  0.43927337018E+02  0.00000000000E+00 0. -1.
</event>
<event>
 7    1  0.4008281E-015  0.9000770E+02  0.7816164E-02  0.1186339E+00
        -11   -1    0    0    0    0  0.00000000000E+00  0.00000000000E+00  0.45593999997E+02  0.45594000000E+02  0.51100000000E-03 0.  1.
         11   -1    0    0    0    0 -0.00000000000E+00 -0.00000000000E+00 -0.45593999997E+02  0.45594000000E+02  0.51100000000E-03 0. -1.
    9900012    2    1    2    0    0  0.88086071945E+00 -0.67970827861E+00  0.39395159046E+00  0.90007696307E+02  0.89999957099E+02 0.  0.
         12    1    1    2    0    0 -0.88086071945E+00  0.67970827861E+00 -0.39395159046E+00  0.11803036926E+01  0.00000000000E+00 0. -1.
         11    1    3    3    0    0  0.13658184693E+02 -0.41900154494E+02  0.23584533893E+01  0.44133108415E+02  0.51100000000E-03 0. -1.
        -11    1    3    3    0    0 -0.44860983040E+01  0.49105486439E+01 -0.52668007837E+01  0.84839705760E+01  0.51100000000E-03 0.  1.
        -12    1    3    3    0    0 -0.82912256700E+01  0.36309897571E+02  0.33022989849E+01  0.37390617317E+02  0.00000000000E+00 0.  1.
</event>
<event>
 7    1  0.4008281E-015  0.9000797E+02  0.7816164E-02  0.1186339E+00
        -11   -1    0    0    0    0  0.00000000000E+00  0.00000000000E+00  0.45593999997E+02  0.45594000000E+02  0.51100000000E-03 0. -1.
         11   -1    0    0    0    0 -0.00000000000E+00 -0.00000000000E+00 -0.45593999997E+02  0.45594000000E+02  0.51100000000E-03 0.  1.
    9900012    2    1    2    0    0 -0.74212196795E+00  0.65810168433E+00 -0.63924137788E+00  0.90007969330E+02  0.90000233725E+02 0.  0.
         12    1    1    2    0    0  0.74212196795E+00 -0.65810168433E+00  0.63924137788E+00  0.11800306697E+01  0.00000000000E+00 0. -1.
         11    1    3    3    0    0 -0.20800183694E+01  0.38960196405E+02  0.10863654667E+02  0.40499905843E+02  0.51100000000E-03 0. -1.
        -11    1    3    3    0    0  0.55754734670E+01 -0.14526390592E+01  0.61517733488E+01  0.84285455574E+01  0.51100000000E-03 0.  1.
        -12    1    3    3    0    0 -0.42375770656E+01 -0.36849455662E+02 -0.17654669393E+02  0.41079517930E+02  0.00000000000E+00 0.  1.
</event>
<event>
 7    1  0.4008281E-015  0.9000775E+02  0.7816164E-02  0.1186339E+00
        -11   -1    0    0    0    0  0.00000000000E+00  0.00000000000E+00  0.45593999997E+02  0.45594000000E+02  0.51100000000E-03 0.  1.
         11   -1    0    0    0    0 -0.00000000000E+00 -0.00000000000E+00 -0.45593999997E+02  0.45594000000E+02  0.51100000000E-03 0. -1.
    9900012    2    1    2    0    0  0.64585602947E-02  0.11557858672E+01 -0.23898479547E+00  0.90007747308E+02  0.90000008773E+02 0.  0.
         12    1    1    2    0    0 -0.64585602947E-02 -0.11557858672E+01  0.23898479547E+00  0.11802526917E+01  0.00000000000E+00 0. -1.
         11    1    3    3    0    0 -0.11009953504E+01  0.20657652386E+01 -0.98672482988E+01  0.10141112663E+02  0.51100000000E-03 0. -1.
        -11    1    3    3    0    0 -0.27311025606E+02 -0.17935009859E+02 -0.17485042563E+02  0.37057838739E+02  0.51100000000E-03 0.  1.
         12    1    3    3    0    0  0.28418479517E+02  0.17025030488E+02  0.27113306066E+02  0.42808795907E+02  0.00000000000E+00 0. -1.
</event>
<event>
 7    1  0.4008281E-015  0.9000765E+02  0.7816164E-02  0.1186339E+00
        -11   -1    0    0    0    0  0.00000000000E+00  0.00000000000E+00  0.45593999997E+02  0.45594000000E+02  0.51100000000E-03 0.  1.
         11   -1    0    0    0    0 -0.00000000000E+00 -0.00000000000E+00 -0.45593999997E+02  0.45594000000E+02  0.51100000000E-03 0. -1.
    9900012    2    1    2    0    0  0.11279320672E+01 -0.33313730617E+00  0.10001978419E+00  0.90007654639E+02  0.89999914881E+02 0.  0.
         12    1    1    2    0    0 -0.11279320672E+01  0.33313730617E+00 -0.10001978419E+00  0.11803453606E+01  0.00000000000E+00 0. -1.
         11    1    3    3    0    0 -0.73565220377E+01  0.97842029159E+00  0.48715269567E+01  0.88773587237E+01  0.51100000000E-03 0. -1.
        -11    1    3    3    0    0 -0.59824614433E+00 -0.25847248594E+02  0.28712308184E+02  0.38637220394E+02  0.51100000000E-03 0.  1.
         12    1    3    3    0    0  0.90827002492E+01  0.24535690996E+02 -0.33483815356E+02  0.42493075521E+02  0.00000000000E+00 0. -1.
</event>
<event>
 7    1  0.4008281E-015  0.9000728E+02  0.7816164E-02  0.1186340E+00
        -11   -1    0    0    0    0  0.00000000000E+00  0.00000000000E+00  0.45593999997E+02  0.45594000000E+02  0.51100000000E-03 0.  1.
         11   -1    0    0    0    0 -0.00000000000E+00 -0.00000000000E+00 -0.45593999997E+02  0.45594000000E+02  0.51100000000E-03 0. -1.
    9900012    2    1    2    0    0 -0.56972313257E-01 -0.97375377534E-01  0.11753142556E+01  0.90007283519E+02  0.89999538861E+02 0.  0.
         12    1    1    2    0    0  0.56972313257E-01  0.97375377534E-01 -0.11753142556E+01  0.11807164808E+01  0.00000000000E+00 0. -1.
         11    1    3    3    0    0  0.19346922493E+02  0.21105242411E+02 -0.18513031645E+02  0.34094970423E+02  0.51100000000E-03 0. -1.
        -11    1    3    3    0    0  0.98692122058E+01  0.56646131536E+01  0.96749647304E+01  0.14936336048E+02  0.51100000000E-03 0.  1.
        -12    1    3    3    0    0 -0.29273107012E+02 -0.26867230942E+02  0.10013381170E+02  0.40975977049E+02  0.00000000000E+00 0.  1.
</event>
<event>
 7    1  0.4008281E-015  0.9000776E+02  0.7816164E-02  0.1186339E+00
        -11   -1    0    0    0    0  0.00000000000E+00  0.00000000000E+00  0.45593999997E+02  0.45594000000E+02  0.51100000000E-03 0. -1.
         11   -1    0    0    0    0 -0.00000000000E+00 -0.00000000000E+00 -0.45593999997E+02  0.45594000000E+02  0.51100000000E-03 0.  1.
    9900012    2    1    2    0    0 -0.92667776618E+00 -0.61816882382E+00  0.39000889493E+00  0.90007757942E+02  0.90000019547E+02 0.  0.
         12    1    1    2    0    0  0.92667776618E+00  0.61816882382E+00 -0.39000889493E+00  0.11802420579E+01  0.00000000000E+00 0. -1.
         11    1    3    3    0    0  0.38442329128E+02  0.18402621127E+02 -0.38907759801E+01  0.42797281118E+02  0.51100000000E-03 0. -1.
        -11    1    3    3    0    0 -0.64443812230E+01 -0.22033987944E+01 -0.57384630960E+01  0.89058954946E+01  0.51100000000E-03 0.  1.
        -12    1    3    3    0    0 -0.32924625671E+02 -0.16817391156E+02  0.10019247971E+02  0.38304581329E+02  0.00000000000E+00 0.  1.
</event>
<event>
 7    1  0.4008281E-015  0.9000766E+02  0.7816164E-02  0.1186339E+00
        -11   -1    0    0    0    0  0.00000000000E+00  0.00000000000E+00  0.45593999997E+02  0.45594000000E+02  0.51100000000E-03 0. -1.
         11   -1    0    0    0    0 -0.00000000000E+00 -0.00000000000E+00 -0.45593999997E+02  0.45594000000E+02  0.51100000000E-03 0.  1.
    9900012    2    1    2    0    0 -0.77106349623E+00 -0.89149228712E+00  0.62475398985E-01  0.90007660816E+02  0.89999921139E+02 0.  0.
         12    1    1    2    0    0  0.77106349623E+00  0.89149228712E+00 -0.62475398985E-01  0.11803391837E+01  0.00000000000E+00 0. -1.
         11    1    3    3    0    0 -0.34072363532E+02  0.17850517440E+02  0.48995158428E+01  0.38775922752E+02  0.51100000000E-03 0. -1.
        -11    1    3    3    0    0  0.16378819876E+01  0.88511474071E+01 -0.68038854683E+00  0.90270923704E+01  0.51100000000E-03 0.  1.
        -12    1    3    3    0    0  0.31663418048E+02 -0.27593157134E+02 -0.41566518970E+01  0.42204645694E+02  0.00000000000E+00 0.  1.
</event>
<event>
 7    1  0.4008281E-015  0.9000777E+02  0.7816164E-02  0.1186339E+00
        -11   -1    0    0    0    0  0.00000000000E+00  0.00000000000E+00  0.45593999997E+02  0.45594000000E+02  0.51100000000E-03 0.  1.
         11   -1    0    0    0    0 -0.00000000000E+00 -0.00000000000E+00 -0.45593999997E+02  0.45594000000E+02  0.51100000000E-03 0. -1.
    9900012    2    1    2    0    0 -0.79042302629E+00  0.26920942323E+00  0.83409250213E+00  0.90007765881E+02  0.90000027590E+02 0.  0.
         12    1    1    2    0    0  0.79042302629E+00 -0.26920942323E+00 -0.83409250213E+00  0.11802341192E+01  0.00000000000E+00 0. -1.
         11    1    3    3    0    0  0.33924921951E+01  0.99060614625E+01 -0.34501117338E+01  0.11024623723E+02  0.51100000000E-03 0. -1.
        -11    1    3    3    0    0  0.33401223882E+02 -0.18166594418E+02  0.11606188138E+02  0.39753874188E+02  0.51100000000E-03 0.  1.
         12    1    3    3    0    0 -0.37584139104E+02  0.85297423789E+01 -0.73219839022E+01  0.39229267970E+02  0.00000000000E+00 0. -1.
</event>
<event>
 7    1  0.4008281E-015  0.9000772E+02  0.7816164E-02  0.1186339E+00
        -11   -1    0    0    0    0  0.00000000000E+00  0.00000000000E+00  0.45593999997E+02  0.45594000000E+02  0.51100000000E-03 0.  1.
         11   -1    0    0    0    0 -0.00000000000E+00 -0.00000000000E+00 -0.45593999997E+02  0.45594000000E+02  0.51100000000E-03 0. -1.
    9900012    2    1    2    0    0  0.13084697628E+00  0.94335951443E+00  0.69714251984E+00  0.90007722152E+02  0.89999983285E+02 0.  0.
         12    1    1    2    0    0 -0.13084697628E+00 -0.94335951443E+00 -0.69714251984E+00  0.11802778476E+01  0.00000000000E+00 0. -1.
         11    1    3    3    0    0 -0.14131989463E+02  0.81348201707E+01  0.15174220791E+02  0.22274321589E+02  0.51100000000E-03 0. -1.
        -11    1    3    3    0    0 -0.21403099054E+02 -0.62985130207E+01  0.10018214870E+02  0.24456666674E+02  0.51100000000E-03 0.  1.
         12    1    3    3    0    0  0.35665935493E+02 -0.89294763565E+00 -0.24495293141E+02  0.43276733889E+02  0.00000000000E+00 0. -1.
</event>
<event>
 7    1  0.4008281E-015  0.9000772E+02  0.7816164E-02  0.1186339E+00
        -11   -1    0    0    0    0  0.00000000000E+00  0.00000000000E+00  0.45593999997E+02  0.45594000000E+02  0.51100000000E-03 0.  1.
         11   -1    0    0    0    0 -0.00000000000E+00 -0.00000000000E+00 -0.45593999997E+02  0.45594000000E+02  0.51100000000E-03 0. -1.
    9900012    2    1    2    0    0  0.80196788840E+00 -0.73491289588E+00  0.45804892695E+00  0.90007721102E+02  0.89999982220E+02 0.  0.
         12    1    1    2    0    0 -0.80196788840E+00  0.73491289588E+00 -0.45804892695E+00  0.11802788984E+01  0.00000000000E+00 0. -1.
         11    1    3    3    0    0  0.81399194844E+01 -0.16746538918E+02 -0.38786940710E+02  0.43024779196E+02  0.51100000000E-03 0. -1.
        -11    1    3    3    0    0 -0.77615064928E+01 -0.10366790262E+01  0.69865769849E+01  0.10494186232E+02  0.51100000000E-03 0.  1.
        -12    1    3    3    0    0  0.42355489690E+00  0.17048305049E+02  0.32258412652E+02  0.36488755674E+02  0.00000000000E+00 0.  1.
</event>
<event>
 7    1  0.4008281E-015  0.9000772E+02  0.7816164E-02  0.1186339E+00
        -11   -1    0    0    0    0  0.00000000000E+00  0.00000000000E+00  0.45593999997E+02  0.45594000000E+02  0.51100000000E-03 0.  1.
         11   -1    0    0    0    0 -0.00000000000E+00 -0.00000000000E+00 -0.45593999997E+02  0.45594000000E+02  0.51100000000E-03 0. -1.
    9900012    2    1    2    0    0  0.82270061160E+00  0.26212272943E+00  0.80468186293E+00  0.90007721422E+02  0.89999982545E+02 0.  0.
         12    1    1    2    0    0 -0.82270061160E+00 -0.26212272943E+00 -0.80468186293E+00  0.11802785782E+01  0.00000000000E+00 0. -1.
         11    1    3    3    0    0  0.32447894349E+01  0.73240626139E+01  0.53984055639E+01  0.96598827396E+01  0.51100000000E-03 0. -1.
        -11    1    3    3    0    0 -0.28241811339E+02  0.18072336988E+02  0.17761670827E+02  0.37943197318E+02  0.51100000000E-03 0.  1.
         12    1    3    3    0    0  0.25819722516E+02 -0.25134276872E+02 -0.22355394528E+02  0.42404641364E+02  0.00000000000E+00 0. -1.
</event>
<event>
 7    1  0.4008281E-015  0.9000658E+02  0.7816164E-02  0.1186341E+00
        -11   -1    0    0    0    0  0.00000000000E+00  0.00000000000E+00  0.45593999997E+02  0.45594000000E+02  0.51100000000E-03 0. -1.
         11   -1    0    0    0    0 -0.00000000000E+00 -0.00000000000E+00 -0.45593999997E+02  0.45594000000E+02  0.51100000000E-03 0.  1.
    9900012    2    1    2    0    0 -0.83137060428E+00 -0.73179459647E+00  0.41115558764E+00  0.90006581645E+02  0.89998827715E+02 0.  0.
         12    1    1    2    0    0  0.83137060428E+00  0.73179459647E+00 -0.41115558764E+00  0.11814183553E+01  0.00000000000E+00 0. -1.
         11    1    3    3    0    0 -0.65026747927E+01 -0.64351516294E+01 -0.80113055964E+00  0.91835595707E+01  0.51100000000E-03 0. -1.
        -11    1    3    3    0    0 -0.20534604001E+02  0.27903215928E+02 -0.20437541671E+02  0.40223780658E+02  0.51100000000E-03 0.  1.
         12    1    3    3    0    0  0.26205908190E+02 -0.22199858895E+02  0.21649827818E+02  0.40599241416E+02  0.00000000000E+00 0. -1.
</event>
<event>
 7    1  0.4008281E-015  0.9000774E+02  0.7816164E-02  0.1186339E+00
        -11   -1    0    0    0    0  0.00000000000E+00  0.00000000000E+00  0.45593999997E+02  0.45594000000E+02  0.51100000000E-03 0.  1.
         11   -1    0    0    0    0 -0.00000000000E+00 -0.00000000000E+00 -0.45593999997E+02  0.45594000000E+02  0.51100000000E-03 0. -1.
    9900012    2    1    2    0    0  0.38670092077E-01 -0.80371686780E+00  0.86345036839E+00  0.90007744639E+02  0.90000006068E+02 0.  0.
         12    1    1    2    0    0 -0.38670092077E-01  0.80371686780E+00 -0.86345036839E+00  0.11802553615E+01  0.00000000000E+00 0. -1.
         11    1    3    3    0    0  0.22515375683E+02  0.14408990361E+02 -0.27773151803E+02  0.38547491574E+02  0.51100000000E-03 0. -1.
        -11    1    3    3    0    0  0.20810499028E+01  0.82559676739E+01  0.35137833319E+01  0.92107787127E+01  0.51100000000E-03 0.  1.
        -12    1    3    3    0    0 -0.24557755493E+02 -0.23468674902E+02  0.25122818839E+02  0.42249474352E+02  0.00000000000E+00 0.  1.
</event>
<event>
 7    1  0.4008281E-015  0.9000783E+02  0.7816164E-02  0.1186339E+00
        -11   -1    0    0    0    0  0.00000000000E+00  0.00000000000E+00  0.45593999997E+02  0.45594000000E+02  0.51100000000E-03 0.  1.
         11   -1    0    0    0    0 -0.00000000000E+00 -0.00000000000E+00 -0.45593999997E+02  0.45594000000E+02  0.51100000000E-03 0. -1.
    9900012    2    1    2    0    0  0.64737532112E-01 -0.11388601411E+01 -0.30265344854E+00  0.90007833707E+02  0.90000096312E+02 0.  0.
         12    1    1    2    0    0 -0.64737532112E-01  0.11388601411E+01  0.30265344854E+00  0.11801662929E+01  0.00000000000E+00 0. -1.
         11    1    3    3    0    0 -0.22505410305E+01 -0.73986288849E+00  0.91104524299E+01  0.94134306054E+01  0.51100000000E-03 0. -1.
        -11    1    3    3    0    0 -0.46411873180E+01  0.29605334274E+02  0.21557764669E+02  0.36915493427E+02  0.51100000000E-03 0.  1.
         12    1    3    3    0    0  0.69564658806E+01 -0.30004331526E+02 -0.30970870547E+02  0.43678909675E+02  0.00000000000E+00 0. -1.
</event>
<event>
 7    1  0.4008281E-015  0.9000774E+02  0.7816164E-02  0.1186339E+00
        -11   -1    0    0    0    0  0.00000000000E+00  0.00000000000E+00  0.45593999997E+02  0.45594000000E+02  0.51100000000E-03 0. -1.
         11   -1    0    0    0    0 -0.00000000000E+00 -0.00000000000E+00 -0.45593999997E+02  0.45594000000E+02  0.51100000000E-03 0.  1.
    9900012    2    1    2    0    0  0.60623603489E+00  0.51763919454E+00 -0.87036383719E+00  0.90007743386E+02  0.90000004799E+02 0.  0.
         12    1    1    2    0    0 -0.60623603489E+00 -0.51763919454E+00  0.87036383719E+00  0.11802566140E+01  0.00000000000E+00 0. -1.
         11    1    3    3    0    0 -0.21887810337E+02 -0.14596037314E+01 -0.18341922965E+01  0.22012972222E+02  0.51100000000E-03 0. -1.
        -11    1    3    3    0    0 -0.90636269664E+01 -0.24591672947E+02 -0.37414872326E+01  0.26474486569E+02  0.51100000000E-03 0.  1.
        -12    1    3    3    0    0  0.31557673338E+02  0.26568915872E+02  0.47053156919E+01  0.41520284596E+02  0.00000000000E+00 0.  1.
</event>
<event>
 7    1  0.4008281E-015  0.9000773E+02  0.7816164E-02  0.1186339E+00
        -11   -1    0    0    0    0  0.00000000000E+00  0.00000000000E+00  0.45593999997E+02  0.45594000000E+02  0.51100000000E-03 0.  1.
         11   -1    0    0    0    0 -0.00000000000E+00 -0.00000000000E+00 -0.45593999997E+02  0.45594000000E+02  0.51100000000E-03 0. -1.
    9900012    2    1    2    0    0 -0.62795033219E+00  0.42952389871E+00  0.90234566834E+00  0.90007728800E+02  0.89999990021E+02 0.  0.
         12    1    1    2    0    0  0.62795033219E+00 -0.42952389871E+00 -0.90234566834E+00  0.11802711995E+01  0.00000000000E+00 0. -1.
         11    1    3    3    0    0  0.98502735540E+01  0.44946283763E+01 -0.37255360945E+01  0.11450292257E+02  0.51100000000E-03 0. -1.
        -11    1    3    3    0    0  0.22881385143E+01  0.35596508239E+02 -0.43539295307E+01  0.35934714125E+02  0.51100000000E-03 0.  1.
         12    1    3    3    0    0 -0.12766362400E+02 -0.39661612716E+02  0.89818112935E+01  0.42622722418E+02  0.00000000000E+00 0. -1.
</event>
<event>
 7    1  0.4008281E-015  0.9000770E+02  0.7816164E-02  0.1186339E+00
        -11   -1    0    0    0    0  0.00000000000E+00  0.00000000000E+00  0.45593999997E+02  0.45594000000E+02  0.51100000000E-03 0. -1.
         11   -1    0    0    0    0 -0.00000000000E+00 -0.00000000000E+00 -0.45593999997E+02  0.45594000000E+02  0.51100000000E-03 0.  1.
    9900012    2    1    2    0    0  0.11567942508E+01 -0.18650217768E+00  0.14197568495E+00  0.90007697879E+02  0.89999958691E+02 0.  0.
         12    1    1    2    0    0 -0.11567942508E+01  0.18650217768E+00 -0.14197568495E+00  0.11803021206E+01  0.00000000000E+00 0. -1.
         11    1    3    3    0    0  0.47361253665E+01  0.32964405139E+02 -0.20206691487E+02  0.38953732437E+02  0.51100000000E-03 0. -1.
        -11    1    3    3    0    0 -0.51832704609E+01  0.18870782138E+01 -0.52626834040E+01  0.76238568800E+01  0.51100000000E-03 0.  1.
        -12    1    3    3    0    0  0.16039393451E+01 -0.35037985530E+02  0.25611350576E+02  0.43430108563E+02  0.00000000000E+00 0.  1.
</event>
<event>
 7    1  0.4008281E-015  0.9000771E+02  0.7816164E-02  0.1186339E+00
        -11   -1    0    0    0    0  0.00000000000E+00  0.00000000000E+00  0.45593999997E+02  0.45594000000E+02  0.51100000000E-03 0.  1.
         11   -1    0    0    0    0 -0.00000000000E+00 -0.00000000000E+00 -0.45593999997E+02  0.45594000000E+02  0.51100000000E-03 0. -1.
    9900012    2    1    2    0    0  0.94755456999E+00  0.70168739791E+00 -0.53421505291E-01  0.90007712440E+02  0.89999973444E+02 0.  0.
         12    1    1    2    0    0 -0.94755456999E+00 -0.70168739791E+00  0.53421505291E-01  0.11802875602E+01  0.00000000000E+00 0. -1.
         11    1    3    3    0    0  0.85982380717E+01  0.99184819349E+00  0.91222926030E+01  0.12574962559E+02  0.51100000000E-03 0. -1.
        -11    1    3    3    0    0 -0.13749932799E+02 -0.35638700963E+02  0.56576521014E+01  0.38615886444E+02  0.51100000000E-03 0.  1.
         12    1    3    3    0    0  0.60992492976E+01  0.35348540167E+02 -0.14833366210E+02  0.38816863436E+02  0.00000000000E+00 0. -1.
</event>
<event>
 7    1  0.4008281E-015  0.9000776E+02  0.7816164E-02  0.1186339E+00
        -11   -1    0    0    0    0  0.00000000000E+00  0.00000000000E+00  0.45593999997E+02  0.45594000000E+02  0.51100000000E-03 0.  1.
         11   -1    0    0    0    0 -0.00000000000E+00 -0.00000000000E+00 -0.45593999997E+02  0.45594000000E+02  0.51100000000E-03 0. -1.
    9900012    2    1    2    0    0 -0.55488506467E+00 -0.46886518109E+00  0.93017740573E+00  0.90007761889E+02  0.90000023546E+02 0.  0.
         12    1    1    2    0    0  0.55488506467E+00  0.46886518109E+00 -0.93017740573E+00  0.11802381112E+01  0.00000000000E+00 0. -1.
         11    1    3    3    0    0 -0.19818555234E+01  0.35861946161E+02  0.16554253991E+02  0.39548075291E+02  0.51100000000E-03 0. -1.
        -11    1    3    3    0    0 -0.85913447863E+01 -0.42814324543E+01  0.52308331840E+01  0.10931764961E+02  0.51100000000E-03 0.  1.
        -12    1    3    3    0    0  0.10018315245E+02 -0.32049378888E+02 -0.20854909770E+02  0.39527921637E+02  0.00000000000E+00 0.  1.
</event>
<event>
 7    1  0.4008281E-015  0.9000802E+02  0.7816164E-02  0.1186338E+00
        -11   -1    0    0    0    0  0.00000000000E+00  0.00000000000E+00  0.45593999997E+02  0.45594000000E+02  0.51100000000E-03 0. -1.
         11   -1    0    0    0    0 -0.00000000000E+00 -0.00000000000E+00 -0.45593999997E+02  0.45594000000E+02  0.51100000000E-03 0.  1.
    9900012    2    1    2    0    0  0.11772031905E+01 -0.31208068440E-01 -0.74701663034E-01  0.90008016257E+02  0.90000281271E+02 0.  0.
         12    1    1    2    0    0 -0.11772031905E+01  0.31208068440E-01  0.74701663034E-01  0.11799837430E+01  0.00000000000E+00 0. -1.
         11    1    3    3    0    0  0.22966461298E+02  0.27198676275E+02  0.45546907875E+01  0.35888320441E+02  0.51100000000E-03 0. -1.
        -11    1    3    3    0    0  0.98874062992E+01  0.15585460710E+01  0.33958503970E+01  0.10569847178E+02  0.51100000000E-03 0.  1.
        -12    1    3    3    0    0 -0.31676664407E+02 -0.28788430414E+02 -0.80252428475E+01  0.43549848638E+02  0.00000000000E+00 0.  1.
</event>
<event>
 7    1  0.4008281E-015  0.9000767E+02  0.7816164E-02  0.1186339E+00
        -11   -1    0    0    0    0  0.00000000000E+00  0.00000000000E+00  0.45593999997E+02  0.45594000000E+02  0.51100000000E-03 0.  1.
         11   -1    0    0    0    0 -0.00000000000E+00 -0.00000000000E+00 -0.45593999997E+02  0.45594000000E+02  0.51100000000E-03 0. -1.
    9900012    2    1    2    0    0 -0.49631359591E+00  0.10648350737E+01  0.11397218461E+00  0.90007665057E+02  0.89999925435E+02 0.  0.
         12    1    1    2    0    0  0.49631359591E+00 -0.10648350737E+01 -0.11397218461E+00  0.11803349433E+01  0.00000000000E+00 0. -1.
         11    1    3    3    0    0  0.19877847212E+02 -0.24474195191E+02 -0.14479509045E+02  0.34695406360E+02  0.51100000000E-03 0. -1.
        -11    1    3    3    0    0 -0.28036366148E+01 -0.11366557199E+02 -0.55589296294E+00  0.11720410320E+02  0.51100000000E-03 0.  1.
        -12    1    3    3    0    0 -0.17570524193E+02  0.36905587464E+02  0.15149374192E+02  0.43591848377E+02  0.00000000000E+00 0.  1.
</event>
<event>
 7    1  0.4008281E-015  0.9000715E+02  0.7816164E-02  0.1186340E+00
        -11   -1    0    0    0    0  0.00000000000E+00  0.00000000000E+00  0.45593999997E+02  0.45594000000E+02  0.51100000000E-03 0.  1.
         11   -1    0    0    0    0 -0.00000000000E+00 -0.00000000000E+00 -0.45593999997E+02  0.45594000000E+02  0.51100000000E-03 0. -1.
    9900012    2    1    2    0    0  0.12386191019E+00 -0.79209480364E+00  0.86697529933E+00  0.90007151949E+02  0.89999405552E+02 0.  0.
         12    1    1    2    0    0 -0.12386191019E+00  0.79209480364E+00 -0.86697529933E+00  0.11808480514E+01  0.00000000000E+00 0. -1.
         11    1    3    3    0    0  0.27590089958E+01  0.32938298847E+01  0.30958332626E+01  0.52958124777E+01  0.51100000000E-03 0. -1.
        -11    1    3    3    0    0  0.40091425840E+02 -0.90619560107E+01 -0.59677877005E+01  0.41533793023E+02  0.51100000000E-03 0.  1.
         12    1    3    3    0    0 -0.42726572925E+02  0.49760313224E+01  0.37389297371E+01  0.43177546448E+02  0.00000000000E+00 0. -1.
</event>
<event>
 7    1  0.4067128E-015  0.9000765E+02  0.7816164E-02  0.1186339E+00
        -11   -1    0    0    0    0  0.00000000000E+00  0.00000000000E+00  0.45593999997E+02  0.45594000000E+02  0.51100000000E-03 0. -1.
         11   -1    0    0    0    0 -0.00000000000E+00 -0.00000000000E+00 -0.45593999997E+02  0.45594000000E+02  0.51100000000E-03 0.  1.
    9900012    2    1    2    0    0 -0.78544615580E+00  0.38439423195E+00 -0.79280855168E+00  0.90007648362E+02  0.89999908521E+02 0.  0.
         12    1    1    2    0    0  0.78544615580E+00 -0.38439423195E+00  0.79280855168E+00  0.11803516378E+01  0.00000000000E+00 0. -1.
         11    1    3    3    0    0  0.70825955902E+01  0.40661689097E+01 -0.55485861476E+01  0.98733833307E+01  0.51100000000E-03 0. -1.
        -11    1    3    3    0    0  0.14419180013E+02 -0.20449709456E+02 -0.27708556870E+02  0.37334534859E+02  0.51100000000E-03 0.  1.
         12    1    3    3    0    0 -0.22287221759E+02  0.16767934778E+02  0.32464334466E+02  0.42799730172E+02  0.00000000000E+00 0. -1.
</event>
<event>
 7    1  0.4008281E-015  0.9000727E+02  0.7816164E-02  0.1186340E+00
        -11   -1    0    0    0    0  0.00000000000E+00  0.00000000000E+00  0.45593999997E+02  0.45594000000E+02  0.51100000000E-03 0.  1.
         11   -1    0    0    0    0 -0.00000000000E+00 -0.00000000000E+00 -0.45593999997E+02  0.45594000000E+02  0.51100000000E-03 0. -1.
    9900012    2    1    2    0    0 -0.86020360804E+00  0.22420457722E+00  0.77711934355E+00  0.90007266155E+02  0.89999521266E+02 0.  0.
         12    1    1    2    0    0  0.86020360804E+00 -0.22420457722E+00 -0.77711934355E+00  0.11807338455E+01  0.00000000000E+00 0. -1.
         11    1    3    3    0    0  0.10323815119E+02  0.39280564329E+00  0.33468458789E+01  0.10859872581E+02  0.51100000000E-03 0. -1.
        -11    1    3    3    0    0  0.20541202134E+02  0.37772669410E+00  0.28238599437E+02  0.34921371121E+02  0.51100000000E-03 0.  1.
         12    1    3    3    0    0 -0.31725220861E+02 -0.54632776017E+00 -0.30808325972E+02  0.44226022452E+02  0.00000000000E+00 0. -1.
</event>
<event>
 7    1  0.4008281E-015  0.9000791E+02  0.7816164E-02  0.1186339E+00
        -11   -1    0    0    0    0  0.00000000000E+00  0.00000000000E+00  0.45593999997E+02  0.45594000000E+02  0.51100000000E-03 0.  1.
         11   -1    0    0    0    0 -0.00000000000E+00 -0.00000000000E+00 -0.45593999997E+02  0.45594000000E+02  0.51100000000E-03 0. -1.
    9900012    2    1    2    0    0  0.72693817217E+00  0.71940639530E-01  0.92681866020E+00  0.90007912126E+02  0.90000175766E+02 0.  0.
         12    1    1    2    0    0 -0.72693817217E+00 -0.71940639530E-01 -0.92681866020E+00  0.11800878741E+01  0.00000000000E+00 0. -1.
         11    1    3    3    0    0 -0.31079982334E+01 -0.78160365988E+01  0.68767817555E+01  0.10864631089E+02  0.51100000000E-03 0. -1.
        -11    1    3    3    0    0  0.15074080515E+01  0.19767875745E+02  0.32921701314E+02  0.38430191363E+02  0.51100000000E-03 0.  1.
         12    1    3    3    0    0  0.23275283541E+01 -0.11879898507E+02 -0.38871664410E+02  0.40713089673E+02  0.00000000000E+00 0. -1.
</event>
<event>
 7    1  0.4008281E-015  0.9000775E+02  0.7816164E-02  0.1186339E+00
        -11   -1    0    0    0    0  0.00000000000E+00  0.00000000000E+00  0.45593999997E+02  0.45594000000E+02  0.51100000000E-03 0.  1.
         11   -1    0    0    0    0 -0.00000000000E+00 -0.00000000000E+00 -0.45593999997E+02  0.45594000000E+02  0.51100000000E-03 0. -1.
    9900012    2    1    2    0    0  0.57580418099E+00  0.53894454477E+00  0.87805277297E+00  0.90007750726E+02  0.90000012235E+02 0.  0.
         12    1    1    2    0    0 -0.57580418099E+00 -0.53894454477E+00 -0.87805277297E+00  0.11802492742E+01  0.00000000000E+00 0. -1.
         11    1    3    3    0    0  0.32369979571E+02  0.86673604579E+01 -0.14667861387E+02  0.36579842436E+02  0.51100000000E-03 0. -1.
        -11    1    3    3    0    0  0.84750511071E+01  0.29432475689E+01  0.53213175562E+01  0.10430993161E+02  0.51100000000E-03 0.  1.
        -12    1    3    3    0    0 -0.40269226497E+02 -0.11071663482E+02  0.10224596603E+02  0.42996915129E+02  0.00000000000E+00 0.  1.
</event>
<event>
 7    1  0.4008281E-015  0.9000772E+02  0.7816164E-02  0.1186339E+00
        -11   -1    0    0    0    0  0.00000000000E+00  0.00000000000E+00  0.45593999997E+02  0.45594000000E+02  0.51100000000E-03 0. -1.
         11   -1    0    0    0    0 -0.00000000000E+00 -0.00000000000E+00 -0.45593999997E+02  0.45594000000E+02  0.51100000000E-03 0.  1.
    9900012    2    1    2    0    0  0.65479882453E+00 -0.77442268015E+00 -0.60378766412E+00  0.90007723960E+02  0.89999985116E+02 0.  0.
         12    1    1    2    0    0 -0.65479882453E+00  0.77442268015E+00  0.60378766412E+00  0.11802760404E+01  0.00000000000E+00 0. -1.
         11    1    3    3    0    0  0.34337001040E+01  0.77142072450E+01  0.64683065696E+00  0.84686291679E+01  0.51100000000E-03 0. -1.
        -11    1    3    3    0    0 -0.15365215857E+02  0.27380100615E+02  0.20735323398E+02  0.37625967159E+02  0.51100000000E-03 0.  1.
         12    1    3    3    0    0  0.12586314577E+02 -0.35868730540E+02 -0.21985941719E+02  0.43913127632E+02  0.00000000000E+00 0. -1.
</event>
<event>
 7    1  0.4008281E-015  0.9000774E+02  0.7816164E-02  0.1186339E+00
        -11   -1    0    0    0    0  0.00000000000E+00  0.00000000000E+00  0.45593999997E+02  0.45594000000E+02  0.51100000000E-03 0. -1.
         11   -1    0    0    0    0 -0.00000000000E+00 -0.00000000000E+00 -0.45593999997E+02  0.45594000000E+02  0.51100000000E-03 0.  1.
    9900012    2    1    2    0    0 -0.54944359027E+00 -0.15102628537E+00 -0.10335928313E+01  0.90007740987E+02  0.90000002368E+02 0.  0.
         12    1    1    2    0    0  0.54944359027E+00  0.15102628537E+00  0.10335928313E+01  0.11802590134E+01  0.00000000000E+00 0. -1.
         11    1    3    3    0    0  0.11772348144E+02 -0.12022181434E+02  0.37794496932E+02  0.41370823365E+02  0.51100000000E-03 0. -1.
        -11    1    3    3    0    0  0.59843781147E+01  0.44435993058E+01 -0.36692920693E+01  0.83079516585E+01  0.51100000000E-03 0.  1.
        -12    1    3    3    0    0 -0.18306169849E+02  0.74275558433E+01 -0.35158797694E+02  0.40328965963E+02  0.00000000000E+00 0.  1.
</event>
<event>
 7    1  0.4008281E-015  0.9000773E+02  0.7816164E-02  0.1186339E+00
        -11   -1    0    0    0    0  0.00000000000E+00  0.00000000000E+00  0.45593999997E+02  0.45594000000E+02  0.51100000000E-03 0.  1.
         11   -1    0    0    0    0 -0.00000000000E+00 -0.00000000000E+00 -0.45593999997E+02  0.45594000000E+02  0.51100000000E-03 0. -1.
    9900012    2    1    2    0    0  0.75677429014E+00  0.89707743878E+00 -0.12485341914E+00  0.90007727305E+02  0.89999988506E+02 0.  0.
         12    1    1    2    0    0 -0.75677429014E+00 -0.89707743878E+00  0.12485341914E+00  0.11802726946E+01  0.00000000000E+00 0. -1.
         11    1    3    3    0    0  0.86684885995E+01  0.25716591375E+00  0.40218429227E+01  0.95595004923E+01  0.51100000000E-03 0. -1.
        -11    1    3    3    0    0 -0.12638186850E+02 -0.26126687124E+02  0.26628923498E+02  0.39388159564E+02  0.51100000000E-03 0.  1.
         12    1    3    3    0    0  0.47264725411E+01  0.26766598649E+02 -0.30775619840E+02  0.41060067249E+02  0.00000000000E+00 0. -1.
</event>
<event>
 7    1  0.4008281E-015  0.9000770E+02  0.7816164E-02  0.1186339E+00
        -11   -1    0    0    0    0  0.00000000000E+00  0.00000000000E+00  0.45593999997E+02  0.45594000000E+02  0.51100000000E-03 0. -1.
         11   -1    0    0    0    0 -0.00000000000E+00 -0.00000000000E+00 -0.45593999997E+02  0.45594000000E+02  0.51100000000E-03 0.  1.
    9900012    2    1    2    0    0  0.10970642924E+01  0.21720083830E+00  0.37732267555E+00  0.90007703992E+02  0.89999964884E+02 0.  0.
         12    1    1    2    0    0 -0.10970642924E+01 -0.21720083830E+00 -0.37732267555E+00  0.11802960083E+01  0.00000000000E+00 0. -1.
         11    1    3    3    0    0  0.60330989447E+01  0.35398050666E+02  0.10523665641E+02  0.37418816291E+02  0.51100000000E-03 0. -1.
        -11    1    3    3    0    0  0.85749768498E+01  0.43183796695E+01  0.10896386461E+00  0.96015886357E+01  0.51100000000E-03 0.  1.
        -12    1    3    3    0    0 -0.13511011502E+02 -0.39499229498E+02 -0.10255306830E+02  0.42987299065E+02  0.00000000000E+00 0.  1.
</event>
<event>
 7    1  0.4008281E-015  0.9000760E+02  0.7816164E-02  0.1186339E+00
        -11   -1    0    0    0    0  0.00000000000E+00  0.00000000000E+00  0.45593999997E+02  0.45594000000E+02  0.51100000000E-03 0.  1.
         11   -1    0    0    0    0 -0.00000000000E+00 -0.00000000000E+00 -0.45593999997E+02  0.45594000000E+02  0.51100000000E-03 0. -1.
    9900012    2    1    2    0    0 -0.72774838573E+00 -0.57014454010E-01  0.92761525039E+00  0.90007602434E+02  0.89999861986E+02 0.  0.
         12    1    1    2    0    0  0.72774838573E+00  0.57014454010E-01 -0.92761525039E+00  0.11803975659E+01  0.00000000000E+00 0. -1.
         11    1    3    3    0    0  0.45131093614E+01  0.67385072589E+01  0.40262337162E+01  0.90546228185E+01  0.51100000000E-03 0. -1.
        -11    1    3    3    0    0 -0.93329521691E+01  0.34521343197E+02  0.10488864585E+02  0.37267189495E+02  0.51100000000E-03 0.  1.
         12    1    3    3    0    0  0.40920944220E+01 -0.41316864910E+02 -0.13587483050E+02  0.43685790120E+02  0.00000000000E+00 0. -1.
</event>
<event>
 7    1  0.4008281E-015  0.9000782E+02  0.7816164E-02  0.1186339E+00
        -11   -1    0    0    0    0  0.00000000000E+00  0.00000000000E+00  0.45593999997E+02  0.45594000000E+02  0.51100000000E-03 0.  1.
         11   -1    0    0    0    0 -0.00000000000E+00 -0.00000000000E+00 -0.45593999997E+02  0.45594000000E+02  0.51100000000E-03 0. -1.
    9900012    2    1    2    0    0 -0.32635298708E+00  0.38025095651E-01  0.11335227953E+01  0.90007819460E+02  0.90000081877E+02 0.  0.
         12    1    1    2    0    0  0.32635298708E+00 -0.38025095651E-01 -0.11335227953E+01  0.11801805403E+01  0.00000000000E+00 0. -1.
         11    1    3    3    0    0 -0.73575217572E+01 -0.48342855465E+01  0.30554995992E+01  0.93187725165E+01  0.51100000000E-03 0. -1.
        -11    1    3    3    0    0 -0.13792662179E+02 -0.33225711719E+02  0.62370116138E+01  0.36511447018E+02  0.51100000000E-03 0.  1.
         12    1    3    3    0    0  0.20823830949E+02  0.38098022361E+02 -0.81589884177E+01  0.44177599926E+02  0.00000000000E+00 0. -1.
</event>
<event>
 7    1  0.4008281E-015  0.9000776E+02  0.7816164E-02  0.1186339E+00
        -11   -1    0    0    0    0  0.00000000000E+00  0.00000000000E+00  0.45593999997E+02  0.45594000000E+02  0.51100000000E-03 0.  1.
         11   -1    0    0    0    0 -0.00000000000E+00 -0.00000000000E+00 -0.45593999997E+02  0.45594000000E+02  0.51100000000E-03 0. -1.
    9900012    2    1    2    0    0 -0.31827713181E+00  0.62052384686E+00  0.95216952449E+00  0.90007755542E+02  0.90000017115E+02 0.  0.
         12    1    1    2    0    0  0.31827713181E+00 -0.62052384686E+00 -0.95216952449E+00  0.11802444579E+01  0.00000000000E+00 0. -1.
         11    1    3    3    0    0  0.20102000701E+02 -0.25746132855E+02 -0.13603562444E+02  0.35383763234E+02  0.51100000000E-03 0. -1.
        -11    1    3    3    0    0 -0.27883243748E+01 -0.75579507081E+01 -0.70529068054E+01  0.10707047511E+02  0.51100000000E-03 0.  1.
        -12    1    3    3    0    0 -0.17631953458E+02  0.33924607410E+02  0.21608638774E+02  0.43916944797E+02  0.00000000000E+00 0.  1.
</event>
<event>
 7    1  0.4008281E-015  0.9000776E+02  0.7816164E-02  0.1186339E+00
        -11   -1    0    0    0    0  0.00000000000E+00  0.00000000000E+00  0.45593999997E+02  0.45594000000E+02  0.51100000000E-03 0.  1.
         11   -1    0    0    0    0 -0.00000000000E+00 -0.00000000000E+00 -0.45593999997E+02  0.45594000000E+02  0.51100000000E-03 0. -1.
    9900012    2    1    2    0    0  0.94163690124E+00  0.61571992409E+00 -0.35660698097E+00  0.90007762898E+02  0.90000024568E+02 0.  0.
         12    1    1    2    0    0 -0.94163690124E+00 -0.61571992409E+00  0.35660698097E+00  0.11802371023E+01  0.00000000000E+00 0. -1.
         11    1    3    3    0    0 -0.93994144696E+00  0.80403259542E+01 -0.47421055805E+01  0.93817853829E+01  0.51100000000E-03 0. -1.
        -11    1    3    3    0    0 -0.26818265189E+02 -0.60438236513E+01  0.31018942132E+02  0.41447821695E+02  0.51100000000E-03 0.  1.
         12    1    3    3    0    0  0.28699843537E+02 -0.13807823788E+01 -0.26633443532E+02  0.39178155819E+02  0.00000000000E+00 0. -1.
</event>
<event>
 7    1  0.4008281E-015  0.9000768E+02  0.7816164E-02  0.1186339E+00
        -11   -1    0    0    0    0  0.00000000000E+00  0.00000000000E+00  0.45593999997E+02  0.45594000000E+02  0.51100000000E-03 0.  1.
         11   -1    0    0    0    0 -0.00000000000E+00 -0.00000000000E+00 -0.45593999997E+02  0.45594000000E+02  0.51100000000E-03 0. -1.
    9900012    2    1    2    0    0  0.10970620582E+01  0.39732407237E+00  0.17813699067E+00  0.90007684633E+02  0.89999945270E+02 0.  0.
         12    1    1    2    0    0 -0.10970620582E+01 -0.39732407237E+00 -0.17813699067E+00  0.11803153670E+01  0.00000000000E+00 0. -1.
         11    1    3    3    0    0  0.16852106136E+01 -0.25680142912E+02  0.34419841205E+02  0.42977146760E+02  0.51100000000E-03 0. -1.
        -11    1    3    3    0    0  0.12602140720E+01 -0.22969522402E+01 -0.76996067533E+01  0.81331465939E+01  0.51100000000E-03 0.  1.
        -12    1    3    3    0    0 -0.18483626275E+01  0.28374419225E+02 -0.26542097461E+02  0.38897391279E+02  0.00000000000E+00 0.  1.
</event>
<event>
 7    1  0.4008281E-015  0.9000758E+02  0.7816164E-02  0.1186339E+00
        -11   -1    0    0    0    0  0.00000000000E+00  0.00000000000E+00  0.45593999997E+02  0.45594000000E+02  0.51100000000E-03 0. -1.
         11   -1    0    0    0    0 -0.00000000000E+00 -0.00000000000E+00 -0.45593999997E+02  0.45594000000E+02  0.51100000000E-03 0.  1.
    9900012    2    1    2    0    0  0.56324798576E+00 -0.88278313330E+00  0.54482532694E+00  0.90007581010E+02  0.89999840280E+02 0.  0.
         12    1    1    2    0    0 -0.56324798576E+00  0.88278313330E+00 -0.54482532694E+00  0.11804189895E+01  0.00000000000E+00 0. -1.
         11    1    3    3    0    0  0.63633145228E+01 -0.28171003514E+01  0.69921838320E+01  0.98650119669E+01  0.51100000000E-03 0. -1.
        -11    1    3    3    0    0  0.29076508976E+00 -0.30290518792E+02 -0.27712785027E+02  0.41056041301E+02  0.51100000000E-03 0.  1.
         12    1    3    3    0    0 -0.60908316268E+01  0.32224836011E+02  0.21265426522E+02  0.39086527743E+02  0.00000000000E+00 0. -1.
</event>
<event>
 7    1  0.6240248E-015  0.9000817E+02  0.7816164E-02  0.1186338E+00
        -11   -1    0    0    0    0  0.00000000000E+00  0.00000000000E+00  0.45593999997E+02  0.45594000000E+02  0.51100000000E-03 0.  1.
         11   -1    0    0    0    0 -0.00000000000E+00 -0.00000000000E+00 -0.45593999997E+02  0.45594000000E+02  0.51100000000E-03 0. -1.
    9900012    2    1    2    0    0  0.10314695271E+01  0.47458995712E+00 -0.32066454744E+00  0.90008173418E+02  0.90000440506E+02 0.  0.
         12    1    1    2    0    0 -0.10314695271E+01 -0.47458995712E+00  0.32066454744E+00  0.11798265825E+01  0.00000000000E+00 0. -1.
         11    1    3    3    0    0  0.85881837958E+01  0.10200049046E+01 -0.49017868315E+01  0.99410676146E+01  0.51100000000E-03 0. -1.
        -11    1    3    3    0    0 -0.13840914812E+02  0.33305892960E+02 -0.16535956043E+02  0.39677339518E+02  0.51100000000E-03 0.  1.
         12    1    3    3    0    0  0.62842005433E+01 -0.33851307907E+02  0.21117078327E+02  0.40389766285E+02  0.00000000000E+00 0. -1.
</event>
<event>
 7    1  0.4008281E-015  0.9000774E+02  0.7816164E-02  0.1186339E+00
        -11   -1    0    0    0    0  0.00000000000E+00  0.00000000000E+00  0.45593999997E+02  0.45594000000E+02  0.51100000000E-03 0. -1.
         11   -1    0    0    0    0 -0.00000000000E+00 -0.00000000000E+00 -0.45593999997E+02  0.45594000000E+02  0.51100000000E-03 0.  1.
    9900012    2    1    2    0    0  0.45940991830E+00 -0.56641033246E+00 -0.92797194823E+00  0.90007741522E+02  0.90000002910E+02 0.  0.
         12    1    1    2    0    0 -0.45940991830E+00  0.56641033246E+00  0.92797194823E+00  0.11802584778E+01  0.00000000000E+00 0. -1.
         11    1    3    3    0    0 -0.10112943359E+02 -0.36469474967E+01 -0.14931454730E+02  0.18398918176E+02  0.51100000000E-03 0. -1.
        -11    1    3    3    0    0 -0.15558839817E+02 -0.46001939067E+01 -0.21453813581E+02  0.26898055653E+02  0.51100000000E-03 0.  1.
         12    1    3    3    0    0  0.26131193094E+02  0.76807310710E+01  0.35457296364E+02  0.44710767694E+02  0.00000000000E+00 0. -1.
</event>
<event>
 7    1  0.4008281E-015  0.9000774E+02  0.7816164E-02  0.1186339E+00
        -11   -1    0    0    0    0  0.00000000000E+00  0.00000000000E+00  0.45593999997E+02  0.45594000000E+02  0.51100000000E-03 0. -1.
         11   -1    0    0    0    0 -0.00000000000E+00 -0.00000000000E+00 -0.45593999997E+02  0.45594000000E+02  0.51100000000E-03 0.  1.
    9900012    2    1    2    0    0 -0.87786776616E+00 -0.54574717847E+00  0.56966385208E+00  0.90007742104E+02  0.90000003499E+02 0.  0.
         12    1    1    2    0    0  0.87786776616E+00  0.54574717847E+00 -0.56966385208E+00  0.11802578964E+01  0.00000000000E+00 0. -1.
         11    1    3    3    0    0  0.71385892318E+01  0.24256851424E+02  0.26480433481E+02  0.36613763189E+02  0.51100000000E-03 0. -1.
        -11    1    3    3    0    0 -0.40339076281E+01  0.48874816604E+01  0.66250588730E+01  0.91679492290E+01  0.51100000000E-03 0.  1.
        -12    1    3    3    0    0 -0.39825493699E+01 -0.29690080263E+02 -0.32535828501E+02  0.44226029686E+02  0.00000000000E+00 0.  1.
</event>
<event>
 7    1  0.4008281E-015  0.9000776E+02  0.7816164E-02  0.1186339E+00
        -11   -1    0    0    0    0  0.00000000000E+00  0.00000000000E+00  0.45593999997E+02  0.45594000000E+02  0.51100000000E-03 0. -1.
         11   -1    0    0    0    0 -0.00000000000E+00 -0.00000000000E+00 -0.45593999997E+02  0.45594000000E+02  0.51100000000E-03 0.  1.
    9900012    2    1    2    0    0  0.61783570426E+00 -0.99556155323E+00 -0.14177451767E+00  0.90007761135E+02  0.90000022782E+02 0.  0.
         12    1    1    2    0    0 -0.61783570426E+00  0.99556155323E+00  0.14177451767E+00  0.11802388646E+01  0.00000000000E+00 0. -1.
         11    1    3    3    0    0 -0.39629677559E+01  0.61611172411E+01  0.55189253663E+01  0.91718600378E+01  0.51100000000E-03 0. -1.
        -11    1    3    3    0    0  0.30932639993E+01  0.33041795245E+02  0.14052933870E+02  0.36039054730E+02  0.51100000000E-03 0.  1.
         12    1    3    3    0    0  0.14875394609E+01 -0.40198474039E+02 -0.19713633754E+02  0.44796846368E+02  0.00000000000E+00 0. -1.
</event>
<event>
 7    1  0.4008281E-015  0.9000771E+02  0.7816164E-02  0.1186339E+00
        -11   -1    0    0    0    0  0.00000000000E+00  0.00000000000E+00  0.45593999997E+02  0.45594000000E+02  0.51100000000E-03 0. -1.
         11   -1    0    0    0    0 -0.00000000000E+00 -0.00000000000E+00 -0.45593999997E+02  0.45594000000E+02  0.51100000000E-03 0.  1.
    9900012    2    1    2    0    0  0.12555773319E+00  0.62283140429E+00 -0.99468739833E+00  0.90007709052E+02  0.89999970011E+02 0.  0.
         12    1    1    2    0    0 -0.12555773319E+00 -0.62283140429E+00  0.99468739833E+00  0.11802909484E+01  0.00000000000E+00 0. -1.
         11    1    3    3    0    0 -0.46615517058E+01 -0.37971122592E+01 -0.34854941381E+01  0.69495895895E+01  0.51100000000E-03 0. -1.
        -11    1    3    3    0    0 -0.38573914302E+02 -0.20945631760E+01  0.58975307062E+01  0.39078317878E+02  0.51100000000E-03 0.  1.
         12    1    3    3    0    0  0.43361023741E+02  0.65145068395E+01 -0.34067239664E+01  0.43979801584E+02  0.00000000000E+00 0. -1.
</event>
<event>
 7    1  0.4008281E-015  0.9000789E+02  0.7816164E-02  0.1186339E+00
        -11   -1    0    0    0    0  0.00000000000E+00  0.00000000000E+00  0.45593999997E+02  0.45594000000E+02  0.51100000000E-03 0.  1.
         11   -1    0    0    0    0 -0.00000000000E+00 -0.00000000000E+00 -0.45593999997E+02  0.45594000000E+02  0.51100000000E-03 0. -1.
    9900012    2    1    2    0    0  0.56820598140E+00  0.10063258490E+01  0.23899968676E+00  0.90007885344E+02  0.90000148630E+02 0.  0.
         12    1    1    2    0    0 -0.56820598140E+00 -0.10063258490E+01 -0.23899968676E+00  0.11801146563E+01  0.00000000000E+00 0. -1.
         11    1    3    3    0    0 -0.12227205303E+02  0.23676420043E+02 -0.27748398653E+02  0.38471431526E+02  0.51100000000E-03 0. -1.
        -11    1    3    3    0    0 -0.92595014699E+01 -0.50300171883E+01 -0.15722015255E+01  0.10654166241E+02  0.51100000000E-03 0.  1.
        -12    1    3    3    0    0  0.22054912754E+02 -0.17640077006E+02  0.29559599865E+02  0.40882287577E+02  0.00000000000E+00 0.  1.
</event>
<event>
 7    1  0.4008281E-015  0.9000772E+02  0.7816164E-02  0.1186339E+00
        -11   -1    0    0    0    0  0.00000000000E+00  0.00000000000E+00  0.45593999997E+02  0.45594000000E+02  0.51100000000E-03 0. -1.
         11   -1    0    0    0    0 -0.00000000000E+00 -0.00000000000E+00 -0.45593999997E+02  0.45594000000E+02  0.51100000000E-03 0.  1.
    9900012    2    1    2    0    0 -0.62976332267E+00 -0.30806131122E+00 -0.94950496759E+00  0.90007718975E+02  0.89999980066E+02 0.  0.
         12    1    1    2    0    0  0.62976332267E+00  0.30806131122E+00  0.94950496759E+00  0.11802810248E+01  0.00000000000E+00 0. -1.
         11    1    3    3    0    0 -0.61760902548E+01  0.13398772004E+02  0.63940246479E+00  0.14767532557E+02  0.51100000000E-03 0. -1.
        -11    1    3    3    0    0  0.18525744576E+02  0.26860565738E+02 -0.54171790402E+00  0.32634133394E+02  0.51100000000E-03 0.  1.
         12    1    3    3    0    0 -0.12979417644E+02 -0.40567399053E+02 -0.10471895284E+01  0.42606053023E+02  0.00000000000E+00 0. -1.
</event>
<event>
 7    1  0.4008281E-015  0.9000766E+02  0.7816164E-02  0.1186339E+00
        -11   -1    0    0    0    0  0.00000000000E+00  0.00000000000E+00  0.45593999997E+02  0.45594000000E+02  0.51100000000E-03 0.  1.
         11   -1    0    0    0    0 -0.00000000000E+00 -0.00000000000E+00 -0.45593999997E+02  0.45594000000E+02  0.51100000000E-03 0. -1.
    9900012    2    1    2    0    0 -0.50067100428E+00  0.20865322519E+00  0.10483330364E+01  0.90007656924E+02  0.89999917195E+02 0.  0.
         12    1    1    2    0    0  0.50067100428E+00 -0.20865322519E+00 -0.10483330364E+01  0.11803430764E+01  0.00000000000E+00 0. -1.
         11    1    3    3    0    0  0.11362511056E+02 -0.27126712294E+02 -0.27856934244E+02  0.40508936830E+02  0.51100000000E-03 0. -1.
        -11    1    3    3    0    0 -0.72708836227E+01  0.62519841349E+01 -0.38016404659E+01  0.10315305365E+02  0.51100000000E-03 0.  1.
        -12    1    3    3    0    0 -0.45922984380E+01  0.21083381384E+02  0.32706907746E+02  0.39183414729E+02  0.00000000000E+00 0.  1.
</event>
<event>
 7    1  0.4008281E-015  0.9000773E+02  0.7816164E-02  0.1186339E+00
        -11   -1    0    0    0    0  0.00000000000E+00  0.00000000000E+00  0.45593999997E+02  0.45594000000E+02  0.51100000000E-03 0.  1.
         11   -1    0    0    0    0 -0.00000000000E+00 -0.00000000000E+00 -0.45593999997E+02  0.45594000000E+02  0.51100000000E-03 0. -1.
    9900012    2    1    2    0    0  0.16985768085E+00  0.81947096107E+00  0.83225180868E+00  0.90007734199E+02  0.89999995491E+02 0.  0.
         12    1    1    2    0    0 -0.16985768085E+00 -0.81947096107E+00 -0.83225180868E+00  0.11802658009E+01  0.00000000000E+00 0. -1.
         11    1    3    3    0    0  0.25644700930E+02 -0.15399535249E+02 -0.25595030125E+02  0.39368793975E+02  0.51100000000E-03 0. -1.
        -11    1    3    3    0    0 -0.60162789580E+01  0.51604740508E+01 -0.68898502712E+01  0.10502197006E+02  0.51100000000E-03 0.  1.
        -12    1    3    3    0    0 -0.19458564291E+02  0.11058532160E+02  0.33317132205E+02  0.40136743218E+02  0.00000000000E+00 0.  1.
</event>
<event>
 7    1  0.4008281E-015  0.9000781E+02  0.7816164E-02  0.1186339E+00
        -11   -1    0    0    0    0  0.00000000000E+00  0.00000000000E+00  0.45593999997E+02  0.45594000000E+02  0.51100000000E-03 0. -1.
         11   -1    0    0    0    0 -0.00000000000E+00 -0.00000000000E+00 -0.45593999997E+02  0.45594000000E+02  0.51100000000E-03 0.  1.
    9900012    2    1    2    0    0 -0.94803776046E-01  0.90964195977E+00 -0.74592697913E+00  0.90007812172E+02  0.90000074493E+02 0.  0.
         12    1    1    2    0    0  0.94803776046E-01 -0.90964195977E+00  0.74592697913E+00  0.11801878279E+01  0.00000000000E+00 0. -1.
         11    1    3    3    0    0  0.80654916356E+00 -0.80583628409E+01 -0.31857022968E+01  0.87026681319E+01  0.51100000000E-03 0. -1.
        -11    1    3    3    0    0 -0.31797706362E+02  0.15230422883E+02 -0.21875945871E+02  0.41492371818E+02  0.51100000000E-03 0.  1.
         12    1    3    3    0    0  0.30896353423E+02 -0.62624180822E+01  0.24315721189E+02  0.39812772222E+02  0.00000000000E+00 0. -1.
</event>
<event>
 7    1  0.4063021E-015  0.9000770E+02  0.7816164E-02  0.1186339E+00
        -11   -1    0    0    0    0  0.00000000000E+00  0.00000000000E+00  0.45593999997E+02  0.45594000000E+02  0.51100000000E-03 0. -1.
         11   -1    0    0    0    0 -0.00000000000E+00 -0.00000000000E+00 -0.45593999997E+02  0.45594000000E+02  0.51100000000E-03 0.  1.
    9900012    2    1    2    0    0  0.49235128015E+00  0.62409653117E+00 -0.87247522090E+00  0.90007695262E+02  0.89999956040E+02 0.  0.
         12    1    1    2    0    0 -0.49235128015E+00 -0.62409653117E+00  0.87247522090E+00  0.11803047379E+01  0.00000000000E+00 0. -1.
         11    1    3    3    0    0 -0.68954085841E+01 -0.40371454943E+01 -0.42099297177E+01  0.90315398340E+01  0.51100000000E-03 0. -1.
        -11    1    3    3    0    0  0.23506746485E+02  0.21034813629E+02 -0.27958842046E+02  0.42151243914E+02  0.51100000000E-03 0.  1.
         12    1    3    3    0    0 -0.16118986621E+02 -0.16373571603E+02  0.31296296543E+02  0.38824911514E+02  0.00000000000E+00 0. -1.
</event>
<event>
 7    1  0.4008281E-015  0.9000821E+02  0.7816164E-02  0.1186338E+00
        -11   -1    0    0    0    0  0.00000000000E+00  0.00000000000E+00  0.45593999997E+02  0.45594000000E+02  0.51100000000E-03 0. -1.
         11   -1    0    0    0    0 -0.00000000000E+00 -0.00000000000E+00 -0.45593999997E+02  0.45594000000E+02  0.51100000000E-03 0.  1.
    9900012    2    1    2    0    0 -0.10454346062E+01  0.32270209304E-01 -0.54583425461E+00  0.90008207681E+02  0.90000475221E+02 0.  0.
         12    1    1    2    0    0  0.10454346062E+01 -0.32270209304E-01  0.54583425461E+00  0.11797923189E+01  0.00000000000E+00 0. -1.
         11    1    3    3    0    0 -0.32181738671E+01  0.33182734857E+02  0.26700549351E+02  0.42712642994E+02  0.51100000000E-03 0. -1.
        -11    1    3    3    0    0  0.44608147537E+01 -0.22475922730E+01  0.13021064558E+01  0.51619783781E+01  0.51100000000E-03 0.  1.
        -12    1    3    3    0    0 -0.22880754928E+01 -0.30902872375E+02 -0.28548490062E+02  0.42133586309E+02  0.00000000000E+00 0.  1.
</event>
<event>
 7    1  0.4008281E-015  0.9000767E+02  0.7816164E-02  0.1186339E+00
        -11   -1    0    0    0    0  0.00000000000E+00  0.00000000000E+00  0.45593999997E+02  0.45594000000E+02  0.51100000000E-03 0. -1.
         11   -1    0    0    0    0 -0.00000000000E+00 -0.00000000000E+00 -0.45593999997E+02  0.45594000000E+02  0.51100000000E-03 0.  1.
    9900012    2    1    2    0    0 -0.68562263279E+00  0.90948730858E+00  0.30974105831E+00  0.90007667385E+02  0.89999927794E+02 0.  0.
         12    1    1    2    0    0  0.68562263279E+00 -0.90948730858E+00 -0.30974105831E+00  0.11803326151E+01  0.00000000000E+00 0. -1.
         11    1    3    3    0    0  0.32416949977E+02 -0.37834038166E+01  0.17980167367E+02  0.37262034419E+02  0.51100000000E-03 0. -1.
        -11    1    3    3    0    0 -0.13882311559E+00  0.47103880958E+01  0.91217184523E+01  0.10267072399E+02  0.51100000000E-03 0.  1.
        -12    1    3    3    0    0 -0.32963749495E+02 -0.17496970679E-01 -0.26792144761E+02  0.42478560566E+02  0.00000000000E+00 0.  1.
</event>
<event>
 7    1  0.4008281E-015  0.9000771E+02  0.7816164E-02  0.1186339E+00
        -11   -1    0    0    0    0  0.00000000000E+00  0.00000000000E+00  0.45593999997E+02  0.45594000000E+02  0.51100000000E-03 0.  1.
         11   -1    0    0    0    0 -0.00000000000E+00 -0.00000000000E+00 -0.45593999997E+02  0.45594000000E+02  0.51100000000E-03 0. -1.
    9900012    2    1    2    0    0  0.85792758742E+00  0.34212914517E+00  0.73484721450E+00  0.90007706593E+02  0.89999967520E+02 0.  0.
         12    1    1    2    0    0 -0.85792758742E+00 -0.34212914517E+00 -0.73484721450E+00  0.11802934067E+01  0.00000000000E+00 0. -1.
         11    1    3    3    0    0 -0.98134592159E+01 -0.73716527931E-01  0.19865320778E+01  0.10012778129E+02  0.51100000000E-03 0. -1.
        -11    1    3    3    0    0  0.23252555714E+02  0.28335999130E+02  0.20903849630E+02  0.42196932632E+02  0.51100000000E-03 0.  1.
         12    1    3    3    0    0 -0.12581168911E+02 -0.27920153457E+02 -0.22155534493E+02  0.37797995832E+02  0.00000000000E+00 0. -1.
</event>
<event>
 7    1  0.4008281E-015  0.9000774E+02  0.7816164E-02  0.1186339E+00
        -11   -1    0    0    0    0  0.00000000000E+00  0.00000000000E+00  0.45593999997E+02  0.45594000000E+02  0.51100000000E-03 0.  1.
         11   -1    0    0    0    0 -0.00000000000E+00 -0.00000000000E+00 -0.45593999997E+02  0.45594000000E+02  0.51100000000E-03 0. -1.
    9900012    2    1    2    0    0  0.20155869627E+00 -0.46480439482E+00  0.10659919258E+01  0.90007742478E+02  0.90000003878E+02 0.  0.
         12    1    1    2    0    0 -0.20155869627E+00  0.46480439482E+00 -0.10659919258E+01  0.11802575225E+01  0.00000000000E+00 0. -1.
         11    1    3    3    0    0  0.13259011682E+02 -0.36511235689E+02 -0.11137250668E+02  0.40409282040E+02  0.51100000000E-03 0. -1.
        -11    1    3    3    0    0  0.54226173473E+01  0.71578622378E-01  0.69491306204E+01  0.88147784450E+01  0.51100000000E-03 0.  1.
        -12    1    3    3    0    0 -0.18480070333E+02  0.35974852671E+02  0.52541119738E+01  0.40783681992E+02  0.00000000000E+00 0.  1.
</event>
<event>
 7    1  0.4008281E-015  0.9000808E+02  0.7816164E-02  0.1186338E+00
        -11   -1    0    0    0    0  0.00000000000E+00  0.00000000000E+00  0.45593999997E+02  0.45594000000E+02  0.51100000000E-03 0. -1.
         11   -1    0    0    0    0 -0.00000000000E+00 -0.00000000000E+00 -0.45593999997E+02  0.45594000000E+02  0.51100000000E-03 0.  1.
    9900012    2    1    2    0    0 -0.42242391873E+00  0.99602476644E+00 -0.47084956928E+00  0.90008081944E+02  0.90000347825E+02 0.  0.
         12    1    1    2    0    0  0.42242391873E+00 -0.99602476644E+00  0.47084956928E+00  0.11799180562E+01  0.00000000000E+00 0. -1.
         11    1    3    3    0    0  0.27550126149E+02  0.16211171466E+02  0.17244527308E+02  0.36320589938E+02  0.51100000000E-03 0. -1.
        -11    1    3    3    0    0 -0.61563879676E+01 -0.10906502502E+01  0.12412881529E+02  0.13898570390E+02  0.51100000000E-03 0.  1.
        -12    1    3    3    0    0 -0.21816162100E+02 -0.14124496449E+02 -0.30128258406E+02  0.39788921615E+02  0.00000000000E+00 0.  1.
</event>
<event>
 7    1  0.5008358E-015  0.9000770E+02  0.7816164E-02  0.1186339E+00
        -11   -1    0    0    0    0  0.00000000000E+00  0.00000000000E+00  0.45593999997E+02  0.45594000000E+02  0.51100000000E-03 0.  1.
         11   -1    0    0    0    0 -0.00000000000E+00 -0.00000000000E+00 -0.45593999997E+02  0.45594000000E+02  0.51100000000E-03 0. -1.
    9900012    2    1    2    0    0  0.44846540263E-01 -0.11794008005E+01 -0.10875412362E-01  0.90007696761E+02  0.89999957559E+02 0.  0.
         12    1    1    2    0    0 -0.44846540263E-01  0.11794008005E+01  0.10875412362E-01  0.11803032386E+01  0.00000000000E+00 0. -1.
         11    1    3    3    0    0  0.59019451427E+01  0.50274796670E+01  0.52789161048E+01  0.93795236431E+01  0.51100000000E-03 0. -1.
        -11    1    3    3    0    0 -0.16337544270E+02  0.18954350257E+01  0.34754415642E+02  0.38449674037E+02  0.51100000000E-03 0.  1.
         12    1    3    3    0    0  0.10480445668E+02 -0.81023154933E+01 -0.40044207159E+02  0.42178499081E+02  0.00000000000E+00 0. -1.
</event>
<event>
 7    1  0.4008281E-015  0.9000776E+02  0.7816164E-02  0.1186339E+00
        -11   -1    0    0    0    0  0.00000000000E+00  0.00000000000E+00  0.45593999997E+02  0.45594000000E+02  0.51100000000E-03 0.  1.
         11   -1    0    0    0    0 -0.00000000000E+00 -0.00000000000E+00 -0.45593999997E+02  0.45594000000E+02  0.51100000000E-03 0. -1.
    9900012    2    1    2    0    0  0.64070531621E+00  0.92365187098E+00 -0.35963151942E+00  0.90007758113E+02  0.90000019721E+02 0.  0.
         12    1    1    2    0    0 -0.64070531621E+00 -0.92365187098E+00  0.35963151942E+00  0.11802418865E+01  0.00000000000E+00 0. -1.
         11    1    3    3    0    0 -0.13379392844E+02 -0.39486916175E+02  0.28197876582E+01  0.41787269647E+02  0.51100000000E-03 0. -1.
        -11    1    3    3    0    0  0.40939019560E+01  0.40274522975E+01  0.70999497162E+01  0.91317956322E+01  0.51100000000E-03 0.  1.
        -12    1    3    3    0    0  0.99261962044E+01  0.36383115748E+02 -0.10279368894E+02  0.39088692834E+02  0.00000000000E+00 0.  1.
</event>
<event>
 7    1  0.4008281E-015  0.9000768E+02  0.7816164E-02  0.1186339E+00
        -11   -1    0    0    0    0  0.00000000000E+00  0.00000000000E+00  0.45593999997E+02  0.45594000000E+02  0.51100000000E-03 0.  1.
         11   -1    0    0    0    0 -0.00000000000E+00 -0.00000000000E+00 -0.45593999997E+02  0.45594000000E+02  0.51100000000E-03 0. -1.
    9900012    2    1    2    0    0 -0.79871188109E+00 -0.75021216854E+00  0.43863955319E+00  0.90007676475E+02  0.89999937004E+02 0.  0.
         12    1    1    2    0    0  0.79871188109E+00  0.75021216854E+00 -0.43863955319E+00  0.11803235253E+01  0.00000000000E+00 0. -1.
         11    1    3    3    0    0 -0.31105049257E+02  0.24862632318E+02 -0.73511464278E+01  0.40493381301E+02  0.51100000000E-03 0. -1.
        -11    1    3    3    0    0  0.20652721041E+01 -0.19113917136E+02 -0.94182874924E+00  0.19248226380E+02  0.51100000000E-03 0.  1.
        -12    1    3    3    0    0  0.28241065272E+02 -0.64989273508E+01  0.87316147303E+01  0.30266068794E+02  0.00000000000E+00 0.  1.
</event>
<event>
 7    1  0.4008281E-015  0.9000772E+02  0.7816164E-02  0.1186339E+00
        -11   -1    0    0    0    0  0.00000000000E+00  0.00000000000E+00  0.45593999997E+02  0.45594000000E+02  0.51100000000E-03 0. -1.
         11   -1    0    0    0    0 -0.00000000000E+00 -0.00000000000E+00 -0.45593999997E+02  0.45594000000E+02  0.51100000000E-03 0.  1.
    9900012    2    1    2    0    0  0.96446178633E-01  0.11763223064E+01 -0.55563711482E-02  0.90007717446E+02  0.89999978516E+02 0.  0.
         12    1    1    2    0    0 -0.96446178633E-01 -0.11763223064E+01  0.55563711482E-02  0.11802825540E+01  0.00000000000E+00 0. -1.
         11    1    3    3    0    0 -0.28631861221E+02  0.12727760026E+02 -0.23192095581E+02  0.38982722455E+02  0.51100000000E-03 0. -1.
        -11    1    3    3    0    0 -0.68963914958E+01  0.13047354678E+01  0.67529134121E+01  0.97398352202E+01  0.51100000000E-03 0.  1.
        -12    1    3    3    0    0  0.35624698896E+02 -0.12856173187E+02  0.16433625798E+02  0.41285159771E+02  0.00000000000E+00 0.  1.
</event>
<event>
 7    1  0.4008281E-015  0.9000775E+02  0.7816164E-02  0.1186339E+00
        -11   -1    0    0    0    0  0.00000000000E+00  0.00000000000E+00  0.45593999997E+02  0.45594000000E+02  0.51100000000E-03 0. -1.
         11   -1    0    0    0    0 -0.00000000000E+00 -0.00000000000E+00 -0.45593999997E+02  0.45594000000E+02  0.51100000000E-03 0.  1.
    9900012    2    1    2    0    0 -0.57771813600E+00  0.11112991553E-01 -0.10291259978E+01  0.90007753389E+02  0.90000014934E+02 0.  0.
         12    1    1    2    0    0  0.57771813600E+00 -0.11112991553E-01  0.10291259978E+01  0.11802466109E+01  0.00000000000E+00 0. -1.
         11    1    3    3    0    0 -0.11548046707E+02  0.23586095180E+01  0.35670737240E+02  0.37567564695E+02  0.51100000000E-03 0. -1.
        -11    1    3    3    0    0 -0.32687581481E+01 -0.90771182406E+01  0.26922988151E+01  0.10016353057E+02  0.51100000000E-03 0.  1.
        -12    1    3    3    0    0  0.14239086720E+02  0.67296217141E+01 -0.39392162053E+02  0.42423835638E+02  0.00000000000E+00 0.  1.
</event>
<event>
 7    1  0.4008281E-015  0.9000775E+02  0.7816164E-02  0.1186339E+00
        -11   -1    0    0    0    0  0.00000000000E+00  0.00000000000E+00  0.45593999997E+02  0.45594000000E+02  0.51100000000E-03 0. -1.
         11   -1    0    0    0    0 -0.00000000000E+00 -0.00000000000E+00 -0.45593999997E+02  0.45594000000E+02  0.51100000000E-03 0.  1.
    9900012    2    1    2    0    0 -0.32661255279E+00 -0.25004210132E+00 -0.11062478768E+01  0.90007753764E+02  0.90000015314E+02 0.  0.
         12    1    1    2    0    0  0.32661255279E+00  0.25004210132E+00  0.11062478768E+01  0.11802462357E+01  0.00000000000E+00 0. -1.
         11    1    3    3    0    0  0.47105556528E+01  0.22151966135E+02 -0.78660838214E+01  0.23974449173E+02  0.51100000000E-03 0. -1.
        -11    1    3    3    0    0 -0.48981556781E+01  0.21364894516E+02  0.23051666948E+01  0.22040064439E+02  0.51100000000E-03 0.  1.
        -12    1    3    3    0    0 -0.13901252748E+00 -0.43766902752E+02  0.44546692499E+01  0.43993240152E+02  0.00000000000E+00 0.  1.
</event>
<event>
 7    1  0.4008281E-015  0.9000782E+02  0.7816164E-02  0.1186339E+00
        -11   -1    0    0    0    0  0.00000000000E+00  0.00000000000E+00  0.45593999997E+02  0.45594000000E+02  0.51100000000E-03 0.  1.
         11   -1    0    0    0    0 -0.00000000000E+00 -0.00000000000E+00 -0.45593999997E+02  0.45594000000E+02  0.51100000000E-03 0. -1.
    9900012    2    1    2    0    0  0.10689137864E+00  0.11138460213E+01  0.37514855698E+00  0.90007824095E+02  0.90000086573E+02 0.  0.
         12    1    1    2    0    0 -0.10689137864E+00 -0.11138460213E+01 -0.37514855698E+00  0.11801759046E+01  0.00000000000E+00 0. -1.
         11    1    3    3    0    0  0.13245576836E+02  0.28040182738E+02 -0.21250653340E+02  0.37593715184E+02  0.51100000000E-03 0. -1.
        -11    1    3    3    0    0  0.19972855626E+01 -0.35522882364E+01 -0.96875415866E+01  0.10509822243E+02  0.51100000000E-03 0.  1.
        -12    1    3    3    0    0 -0.15135971020E+02 -0.23374048480E+02  0.31313343483E+02  0.41904286668E+02  0.00000000000E+00 0.  1.
</event>
<event>
 7    1  0.4008281E-015  0.9000776E+02  0.7816164E-02  0.1186339E+00
        -11   -1    0    0    0    0  0.00000000000E+00  0.00000000000E+00  0.45593999997E+02  0.45594000000E+02  0.51100000000E-03 0.  1.
         11   -1    0    0    0    0 -0.00000000000E+00 -0.00000000000E+00 -0.45593999997E+02  0.45594000000E+02  0.51100000000E-03 0. -1.
    9900012    2    1    2    0    0 -0.31029414273E-01 -0.28625303510E+00  0.11445836465E+01  0.90007756233E+02  0.90000017816E+02 0.  0.
         12    1    1    2    0    0  0.31029414273E-01  0.28625303510E+00 -0.11445836465E+01  0.11802437666E+01  0.00000000000E+00 0. -1.
         11    1    3    3    0    0 -0.63659978503E+01  0.71207422098E+01 -0.82675816637E+01  0.12632648379E+02  0.51100000000E-03 0. -1.
        -11    1    3    3    0    0  0.36969143899E+02  0.60834606756E+01 -0.98712045325E+01  0.38744893517E+02  0.51100000000E-03 0.  1.
         12    1    3    3    0    0 -0.30634175463E+02 -0.13490455921E+02  0.19283369843E+02  0.38630214337E+02  0.00000000000E+00 0. -1.
</event>
<event>
 7    1  0.4008281E-015  0.9000780E+02  0.7816164E-02  0.1186339E+00
        -11   -1    0    0    0    0  0.00000000000E+00  0.00000000000E+00  0.45593999997E+02  0.45594000000E+02  0.51100000000E-03 0. -1.
         11   -1    0    0    0    0 -0.00000000000E+00 -0.00000000000E+00 -0.45593999997E+02  0.45594000000E+02  0.51100000000E-03 0.  1.
    9900012    2    1    2    0    0 -0.64804160020E-01  0.11171892858E+01 -0.37489956591E+00  0.90007804608E+02  0.90000066828E+02 0.  0.
         12    1    1    2    0    0  0.64804160020E-01 -0.11171892858E+01  0.37489956591E+00  0.11801953923E+01  0.00000000000E+00 0. -1.
         11    1    3    3    0    0 -0.24768908870E+02  0.95849588979E+01 -0.23754871017E+02  0.35632347396E+02  0.51100000000E-03 0. -1.
        -11    1    3    3    0    0 -0.95193842030E+01  0.49744023569E+01 -0.11463544954E+00  0.10741345165E+02  0.51100000000E-03 0.  1.
        -12    1    3    3    0    0  0.34223488913E+02 -0.13442171969E+02  0.23494606900E+02  0.43634112046E+02  0.00000000000E+00 0.  1.
</event>
<event>
 7    1  0.4008281E-015  0.9000763E+02  0.7816164E-02  0.1186339E+00
        -11   -1    0    0    0    0  0.00000000000E+00  0.00000000000E+00  0.45593999997E+02  0.45594000000E+02  0.51100000000E-03 0.  1.
         11   -1    0    0    0    0 -0.00000000000E+00 -0.00000000000E+00 -0.45593999997E+02  0.45594000000E+02  0.51100000000E-03 0. -1.
    9900012    2    1    2    0    0 -0.60111252554E-01  0.11615605883E+01 -0.20108032706E+00  0.90007631557E+02  0.89999891494E+02 0.  0.
         12    1    1    2    0    0  0.60111252554E-01 -0.11615605883E+01  0.20108032706E+00  0.11803684428E+01  0.00000000000E+00 0. -1.
         11    1    3    3    0    0  0.86195432342E+01  0.45999730834E+01  0.30208586171E+01  0.10226527513E+02  0.51100000000E-03 0. -1.
        -11    1    3    3    0    0 -0.67923093776E+01  0.56049278161E+01  0.37245582583E+02  0.38272498020E+02  0.51100000000E-03 0.  1.
         12    1    3    3    0    0 -0.18873451091E+01 -0.90433403112E+01 -0.40467521527E+02  0.41508606024E+02  0.00000000000E+00 0. -1.
</event>
<event>
 7    1  0.4008281E-015  0.9000778E+02  0.7816164E-02  0.1186339E+00
        -11   -1    0    0    0    0  0.00000000000E+00  0.00000000000E+00  0.45593999997E+02  0.45594000000E+02  0.51100000000E-03 0.  1.
         11   -1    0    0    0    0 -0.00000000000E+00 -0.00000000000E+00 -0.45593999997E+02  0.45594000000E+02  0.51100000000E-03 0. -1.
    9900012    2    1    2    0    0  0.26895919819E+00  0.10458775409E+01  0.47615589839E+00  0.90007778275E+02  0.90000040148E+02 0.  0.
         12    1    1    2    0    0 -0.26895919819E+00 -0.10458775409E+01 -0.47615589839E+00  0.11802217251E+01  0.00000000000E+00 0. -1.
         11    1    3    3    0    0  0.53322457866E+01 -0.10200709367E+02 -0.22022876719E+01  0.11719103548E+02  0.51100000000E-03 0. -1.
        -11    1    3    3    0    0 -0.31391549020E+01 -0.32353759579E+02 -0.77509639227E+01  0.33417024020E+02  0.51100000000E-03 0.  1.
         12    1    3    3    0    0 -0.19241316865E+01  0.43600346487E+02  0.10429407493E+02  0.44871650707E+02  0.00000000000E+00 0. -1.
</event>
<event>
 7    1  0.4008281E-015  0.9000771E+02  0.7816164E-02  0.1186339E+00
        -11   -1    0    0    0    0  0.00000000000E+00  0.00000000000E+00  0.45593999997E+02  0.45594000000E+02  0.51100000000E-03 0.  1.
         11   -1    0    0    0    0 -0.00000000000E+00 -0.00000000000E+00 -0.45593999997E+02  0.45594000000E+02  0.51100000000E-03 0. -1.
    9900012    2    1    2    0    0 -0.52432772445E+00  0.78573051774E+00  0.70767005405E+00  0.90007708123E+02  0.89999969070E+02 0.  0.
         12    1    1    2    0    0  0.52432772445E+00 -0.78573051774E+00 -0.70767005405E+00  0.11802918768E+01  0.00000000000E+00 0. -1.
         11    1    3    3    0    0  0.54577628034E+01  0.74713147490E+01 -0.54143700000E+01  0.10720220224E+02  0.51100000000E-03 0. -1.
        -11    1    3    3    0    0  0.97313084866E+01  0.29745657354E+02  0.20129901904E+02  0.37211764903E+02  0.51100000000E-03 0.  1.
         12    1    3    3    0    0 -0.15713399015E+02 -0.36431241585E+02 -0.14007861850E+02  0.42075722996E+02  0.00000000000E+00 0. -1.
</event>
<event>
 7    1  0.4008281E-015  0.9000742E+02  0.7816164E-02  0.1186340E+00
        -11   -1    0    0    0    0  0.00000000000E+00  0.00000000000E+00  0.45593999997E+02  0.45594000000E+02  0.51100000000E-03 0. -1.
         11   -1    0    0    0    0 -0.00000000000E+00 -0.00000000000E+00 -0.45593999997E+02  0.45594000000E+02  0.51100000000E-03 0.  1.
    9900012    2    1    2    0    0  0.34381487225E+00 -0.46842777014E+00 -0.10276795595E+01  0.90007424497E+02  0.89999681699E+02 0.  0.
         12    1    1    2    0    0 -0.34381487225E+00  0.46842777014E+00  0.10276795595E+01  0.11805755034E+01  0.00000000000E+00 0. -1.
         11    1    3    3    0    0 -0.32632634028E+02 -0.20013827740E+02  0.16408969558E+02  0.41649686513E+02  0.51100000000E-03 0. -1.
        -11    1    3    3    0    0  0.35279591072E+00  0.95258952739E+01  0.97194610526E+00  0.95818487369E+01  0.51100000000E-03 0.  1.
        -12    1    3    3    0    0  0.32623652990E+02  0.10019504696E+02 -0.18408595223E+02  0.38775889246E+02  0.00000000000E+00 0.  1.
</event>
<event>
 7    1  0.4008281E-015  0.9000780E+02  0.7816164E-02  0.1186339E+00
        -11   -1    0    0    0    0  0.00000000000E+00  0.00000000000E+00  0.45593999997E+02  0.45594000000E+02  0.51100000000E-03 0.  1.
         11   -1    0    0    0    0 -0.00000000000E+00 -0.00000000000E+00 -0.45593999997E+02  0.45594000000E+02  0.51100000000E-03 0. -1.
    9900012    2    1    2    0    0 -0.58926975150E+00  0.10154256525E+01 -0.12056419148E+00  0.90007803482E+02  0.90000065688E+02 0.  0.
         12    1    1    2    0    0  0.58926975150E+00 -0.10154256525E+01  0.12056419148E+00  0.11801965175E+01  0.00000000000E+00 0. -1.
         11    1    3    3    0    0  0.66206786416E+01 -0.29213596756E+01  0.29061347910E+01  0.77982913330E+01  0.51100000000E-03 0. -1.
        -11    1    3    3    0    0 -0.32116065131E+02 -0.23536633476E+02  0.12895402111E+02  0.41853388761E+02  0.51100000000E-03 0.  1.
         12    1    3    3    0    0  0.24906116738E+02  0.27473418804E+02 -0.15922101093E+02  0.40356123389E+02  0.00000000000E+00 0. -1.
</event>
<event>
 7    1  0.4008281E-015  0.9000771E+02  0.7816164E-02  0.1186339E+00
        -11   -1    0    0    0    0  0.00000000000E+00  0.00000000000E+00  0.45593999997E+02  0.45594000000E+02  0.51100000000E-03 0. -1.
         11   -1    0    0    0    0 -0.00000000000E+00 -0.00000000000E+00 -0.45593999997E+02  0.45594000000E+02  0.51100000000E-03 0.  1.
    9900012    2    1    2    0    0  0.66619509666E+00 -0.72868933646E+00  0.64674631829E+00  0.90007709842E+02  0.89999970812E+02 0.  0.
         12    1    1    2    0    0 -0.66619509666E+00  0.72868933646E+00 -0.64674631829E+00  0.11802901576E+01  0.00000000000E+00 0. -1.
         11    1    3    3    0    0 -0.12369807764E+02  0.10175557792E+02  0.45785993154E+00  0.16023849614E+02  0.51100000000E-03 0. -1.
        -11    1    3    3    0    0 -0.20327954194E+02 -0.29455122130E+02  0.96139390154E+00  0.35801595215E+02  0.51100000000E-03 0.  1.
         12    1    3    3    0    0  0.33363957054E+02  0.18550875002E+02 -0.77250751479E+00  0.38182265013E+02  0.00000000000E+00 0. -1.
</event>
<event>
 7    1  0.4008281E-015  0.9000769E+02  0.7816164E-02  0.1186339E+00
        -11   -1    0    0    0    0  0.00000000000E+00  0.00000000000E+00  0.45593999997E+02  0.45594000000E+02  0.51100000000E-03 0. -1.
         11   -1    0    0    0    0 -0.00000000000E+00 -0.00000000000E+00 -0.45593999997E+02  0.45594000000E+02  0.51100000000E-03 0.  1.
    9900012    2    1    2    0    0 -0.33334368412E-01  0.11745664551E+01 -0.11139977305E+00  0.90007691800E+02  0.89999952532E+02 0.  0.
         12    1    1    2    0    0  0.33334368412E-01 -0.11745664551E+01  0.11139977305E+00  0.11803082000E+01  0.00000000000E+00 0. -1.
         11    1    3    3    0    0  0.81169999939E+01 -0.93989084613E+01  0.22413111502E+01  0.12619375781E+02  0.51100000000E-03 0. -1.
        -11    1    3    3    0    0  0.22188114782E+02  0.19945847211E+02  0.22250650525E+02  0.37218821954E+02  0.51100000000E-03 0.  1.
         12    1    3    3    0    0 -0.30338449144E+02 -0.93723722951E+01 -0.24603361449E+02  0.40169494065E+02  0.00000000000E+00 0. -1.
</event>
<event>
 7    1  0.4008281E-015  0.9000771E+02  0.7816164E-02  0.1186339E+00
        -11   -1    0    0    0    0  0.00000000000E+00  0.00000000000E+00  0.45593999997E+02  0.45594000000E+02  0.51100000000E-03 0. -1.
         11   -1    0    0    0    0 -0.00000000000E+00 -0.00000000000E+00 -0.45593999997E+02  0.45594000000E+02  0.51100000000E-03 0.  1.
    9900012    2    1    2    0    0 -0.65784885390E+00 -0.74132377492E+00 -0.64090929252E+00  0.90007707335E+02  0.89999968272E+02 0.  0.
         12    1    1    2    0    0  0.65784885390E+00  0.74132377492E+00  0.64090929252E+00  0.11802926650E+01  0.00000000000E+00 0. -1.
         11    1    3    3    0    0 -0.13469362294E+02  0.84951235059E+00 -0.57372727798E+01  0.14664981795E+02  0.51100000000E-03 0. -1.
        -11    1    3    3    0    0  0.12483473142E+02 -0.34972151040E+02 -0.10365432445E+02  0.38552958901E+02  0.51100000000E-03 0.  1.
         12    1    3    3    0    0  0.32804029873E+00  0.33381314914E+02  0.15461795932E+02  0.36789766638E+02  0.00000000000E+00 0. -1.
</event>
<event>
 7    1  0.4008281E-015  0.9000773E+02  0.7816164E-02  0.1186339E+00
        -11   -1    0    0    0    0  0.00000000000E+00  0.00000000000E+00  0.45593999997E+02  0.45594000000E+02  0.51100000000E-03 0. -1.
         11   -1    0    0    0    0 -0.00000000000E+00 -0.00000000000E+00 -0.45593999997E+02  0.45594000000E+02  0.51100000000E-03 0.  1.
    9900012    2    1    2    0    0 -0.90529932737E-01  0.73870348076E+00 -0.91605524191E+00  0.90007730663E+02  0.89999991908E+02 0.  0.
         12    1    1    2    0    0  0.90529932737E-01 -0.73870348076E+00  0.91605524191E+00  0.11802693368E+01  0.00000000000E+00 0. -1.
         11    1    3    3    0    0  0.23010715959E+01  0.91999192492E+00  0.84163296142E+01  0.87735921986E+01  0.51100000000E-03 0. -1.
        -11    1    3    3    0    0 -0.39353280600E+02  0.11829167065E+02  0.69024368956E+00  0.41098495399E+02  0.51100000000E-03 0.  1.
         12    1    3    3    0    0  0.36961679071E+02 -0.12010455509E+02 -0.10022628546E+02  0.40135643066E+02  0.00000000000E+00 0. -1.
</event>
<event>
 7    1  0.4008281E-015  0.9000771E+02  0.7816164E-02  0.1186339E+00
        -11   -1    0    0    0    0  0.00000000000E+00  0.00000000000E+00  0.45593999997E+02  0.45594000000E+02  0.51100000000E-03 0.  1.
         11   -1    0    0    0    0 -0.00000000000E+00 -0.00000000000E+00 -0.45593999997E+02  0.45594000000E+02  0.51100000000E-03 0. -1.
    9900012    2    1    2    0    0 -0.19288516218E+00 -0.11643977407E+01 -0.72310010937E-02  0.90007712293E+02  0.89999973295E+02 0.  0.
         12    1    1    2    0    0  0.19288516218E+00  0.11643977407E+01  0.72310010937E-02  0.11802877072E+01  0.00000000000E+00 0. -1.
         11    1    3    3    0    0  0.66989016212E+01 -0.72298282931E+00 -0.71819897868E+01  0.98477898363E+01  0.51100000000E-03 0. -1.
        -11    1    3    3    0    0  0.36017473283E+02 -0.65470264911E+00 -0.27136750518E+01  0.36125490305E+02  0.51100000000E-03 0.  1.
         12    1    3    3    0    0 -0.42909260066E+02  0.21328773774E+00  0.98884338376E+01  0.44034432151E+02  0.00000000000E+00 0. -1.
</event>
<event>
 7    1  0.4008281E-015  0.9000773E+02  0.7816164E-02  0.1186339E+00
        -11   -1    0    0    0    0  0.00000000000E+00  0.00000000000E+00  0.45593999997E+02  0.45594000000E+02  0.51100000000E-03 0.  1.
         11   -1    0    0    0    0 -0.00000000000E+00 -0.00000000000E+00 -0.45593999997E+02  0.45594000000E+02  0.51100000000E-03 0. -1.
    9900012    2    1    2    0    0  0.75800867971E+00  0.44071014486E+00  0.79008691381E+00  0.90007728878E+02  0.89999990099E+02 0.  0.
         12    1    1    2    0    0 -0.75800867971E+00 -0.44071014486E+00 -0.79008691381E+00  0.11802711221E+01  0.00000000000E+00 0. -1.
         11    1    3    3    0    0  0.55522495568E+01  0.38620233515E+01  0.53573670815E+01  0.86280983893E+01  0.51100000000E-03 0. -1.
        -11    1    3    3    0    0  0.30421654857E+02  0.81701302052E+01 -0.23925221306E+02  0.39555585277E+02  0.51100000000E-03 0.  1.
         12    1    3    3    0    0 -0.35215895734E+02 -0.11591443412E+02  0.19357941139E+02  0.41824045211E+02  0.00000000000E+00 0. -1.
</event>
<event>
 7    1  0.4008281E-015  0.9000781E+02  0.7816164E-02  0.1186339E+00
        -11   -1    0    0    0    0  0.00000000000E+00  0.00000000000E+00  0.45593999997E+02  0.45594000000E+02  0.51100000000E-03 0. -1.
         11   -1    0    0    0    0 -0.00000000000E+00 -0.00000000000E+00 -0.45593999997E+02  0.45594000000E+02  0.51100000000E-03 0.  1.
    9900012    2    1    2    0    0  0.66105104962E+00 -0.97767050417E+00 -0.47380594783E-02  0.90007809103E+02  0.90000071383E+02 0.  0.
         12    1    1    2    0    0 -0.66105104962E+00  0.97767050417E+00  0.47380594783E-02  0.11801908973E+01  0.00000000000E+00 0. -1.
         11    1    3    3    0    0  0.24536381350E+02 -0.15514997949E+01  0.36035306158E+02  0.43623210009E+02  0.51100000000E-03 0. -1.
        -11    1    3    3    0    0 -0.29053037226E+00  0.48782088281E+01 -0.90436025756E+01  0.10279497900E+02  0.51100000000E-03 0.  1.
        -12    1    3    3    0    0 -0.23584799928E+02 -0.43043795373E+01 -0.26996441642E+02  0.36105101193E+02  0.00000000000E+00 0.  1.
</event>
<event>
 7    1  0.4008281E-015  0.9000762E+02  0.7816164E-02  0.1186339E+00
        -11   -1    0    0    0    0  0.00000000000E+00  0.00000000000E+00  0.45593999997E+02  0.45594000000E+02  0.51100000000E-03 0.  1.
         11   -1    0    0    0    0 -0.00000000000E+00 -0.00000000000E+00 -0.45593999997E+02  0.45594000000E+02  0.51100000000E-03 0. -1.
    9900012    2    1    2    0    0 -0.11092179246E+00  0.40363136540E+00  0.11036595444E+01  0.90007624503E+02  0.89999884347E+02 0.  0.
         12    1    1    2    0    0  0.11092179246E+00 -0.40363136540E+00 -0.11036595444E+01  0.11803754966E+01  0.00000000000E+00 0. -1.
         11    1    3    3    0    0 -0.33899563365E+02  0.91846666469E+01 -0.16207361460E+02  0.38680965132E+02  0.51100000000E-03 0. -1.
        -11    1    3    3    0    0  0.17718178102E+01  0.78359995963E+01 -0.44649720374E+01  0.91912025101E+01  0.51100000000E-03 0.  1.
        -12    1    3    3    0    0  0.32016823763E+02 -0.16617034878E+02  0.21775993042E+02  0.42135456862E+02  0.00000000000E+00 0.  1.
</event>
<event>
 7    1  0.4008281E-015  0.9000773E+02  0.7816164E-02  0.1186339E+00
        -11   -1    0    0    0    0  0.00000000000E+00  0.00000000000E+00  0.45593999997E+02  0.45594000000E+02  0.51100000000E-03 0.  1.
         11   -1    0    0    0    0 -0.00000000000E+00 -0.00000000000E+00 -0.45593999997E+02  0.45594000000E+02  0.51100000000E-03 0. -1.
    9900012    2    1    2    0    0 -0.95240951571E+00  0.60183368042E-01  0.69449578054E+00  0.90007732949E+02  0.89999994224E+02 0.  0.
         12    1    1    2    0    0  0.95240951571E+00 -0.60183368042E-01 -0.69449578054E+00  0.11802670514E+01  0.00000000000E+00 0. -1.
         11    1    3    3    0    0  0.90657249112E+01 -0.21211912736E+01  0.37300969978E+01  0.10029977291E+02  0.51100000000E-03 0. -1.
        -11    1    3    3    0    0  0.64129991558E+00 -0.34181603065E+02 -0.18707919109E+02  0.38971521542E+02  0.51100000000E-03 0.  1.
         12    1    3    3    0    0 -0.10659434342E+02  0.36362977707E+02  0.15672317892E+02  0.41006234115E+02  0.00000000000E+00 0. -1.
</event>
<event>
 7    1  0.4008281E-015  0.9000776E+02  0.7816164E-02  0.1186339E+00
        -11   -1    0    0    0    0  0.00000000000E+00  0.00000000000E+00  0.45593999997E+02  0.45594000000E+02  0.51100000000E-03 0. -1.
         11   -1    0    0    0    0 -0.00000000000E+00 -0.00000000000E+00 -0.45593999997E+02  0.45594000000E+02  0.51100000000E-03 0.  1.
    9900012    2    1    2    0    0  0.68450969905E+00  0.88667253076E+00 -0.37178310168E+00  0.90007760880E+02  0.90000022524E+02 0.  0.
         12    1    1    2    0    0 -0.68450969905E+00 -0.88667253076E+00  0.37178310168E+00  0.11802391197E+01  0.00000000000E+00 0. -1.
         11    1    3    3    0    0 -0.55233022882E+00  0.10057695468E+02 -0.10710997185E+02  0.14703325058E+02  0.51100000000E-03 0. -1.
        -11    1    3    3    0    0 -0.24807318534E+02 -0.11924694835E+02 -0.20884952785E+02  0.34551159935E+02  0.51100000000E-03 0.  1.
         12    1    3    3    0    0  0.26044158462E+02  0.27536718983E+01  0.31224166868E+02  0.40753275887E+02  0.00000000000E+00 0. -1.
</event>
<event>
 7    1  0.4008281E-015  0.9000776E+02  0.7816164E-02  0.1186339E+00
        -11   -1    0    0    0    0  0.00000000000E+00  0.00000000000E+00  0.45593999997E+02  0.45594000000E+02  0.51100000000E-03 0. -1.
         11   -1    0    0    0    0 -0.00000000000E+00 -0.00000000000E+00 -0.45593999997E+02  0.45594000000E+02  0.51100000000E-03 0.  1.
    9900012    2    1    2    0    0 -0.11294382462E+01  0.16809192529E+00 -0.29846484637E+00  0.90007759808E+02  0.90000021437E+02 0.  0.
         12    1    1    2    0    0  0.11294382462E+01 -0.16809192529E+00  0.29846484637E+00  0.11802401925E+01  0.00000000000E+00 0. -1.
         11    1    3    3    0    0  0.94739170395E+01 -0.21039902709E+02  0.28180467805E+02  0.36422127561E+02  0.51100000000E-03 0. -1.
        -11    1    3    3    0    0 -0.59695524458E+01 -0.45661859895E+01  0.64679719463E+01  0.99156579335E+01  0.51100000000E-03 0.  1.
        -12    1    3    3    0    0 -0.46338028399E+01  0.25774180624E+02 -0.34946904597E+02  0.43669974313E+02  0.00000000000E+00 0.  1.
</event>
<event>
 7    1  0.4008281E-015  0.9000774E+02  0.7816164E-02  0.1186339E+00
        -11   -1    0    0    0    0  0.00000000000E+00  0.00000000000E+00  0.45593999997E+02  0.45594000000E+02  0.51100000000E-03 0. -1.
         11   -1    0    0    0    0 -0.00000000000E+00 -0.00000000000E+00 -0.45593999997E+02  0.45594000000E+02  0.51100000000E-03 0.  1.
    9900012    2    1    2    0    0  0.69576055174E+00  0.85638429619E+00 -0.41896927967E+00  0.90007740679E+02  0.90000002056E+02 0.  0.
         12    1    1    2    0    0 -0.69576055174E+00 -0.85638429619E+00  0.41896927967E+00  0.11802593213E+01  0.00000000000E+00 0. -1.
         11    1    3    3    0    0  0.59046268769E+01  0.50463811624E+01  0.35181787294E+02  0.36028998583E+02  0.51100000000E-03 0. -1.
        -11    1    3    3    0    0 -0.22767523083E+01 -0.10984552202E+02  0.53048871695E+01  0.12409102155E+02  0.51100000000E-03 0.  1.
        -12    1    3    3    0    0 -0.29321140169E+01  0.67945553355E+01 -0.40905643743E+02  0.41569639941E+02  0.00000000000E+00 0.  1.
</event>
<event>
 7    1  0.4008281E-015  0.9000771E+02  0.7816164E-02  0.1186339E+00
        -11   -1    0    0    0    0  0.00000000000E+00  0.00000000000E+00  0.45593999997E+02  0.45594000000E+02  0.51100000000E-03 0.  1.
         11   -1    0    0    0    0 -0.00000000000E+00 -0.00000000000E+00 -0.45593999997E+02  0.45594000000E+02  0.51100000000E-03 0. -1.
    9900012    2    1    2    0    0  0.10566369798E+01 -0.52373282614E+00 -0.48027176810E-01  0.90007710040E+02  0.89999971012E+02 0.  0.
         12    1    1    2    0    0 -0.10566369798E+01  0.52373282614E+00  0.48027176810E-01  0.11802899601E+01  0.00000000000E+00 0. -1.
         11    1    3    3    0    0  0.14312942969E+02  0.20265102662E+02 -0.26035258599E+02  0.35963445509E+02  0.51100000000E-03 0. -1.
        -11    1    3    3    0    0  0.34251607231E+01  0.94017814590E+01 -0.12636069082E+01  0.10085728693E+02  0.51100000000E-03 0.  1.
        -12    1    3    3    0    0 -0.16681466713E+02 -0.30190616947E+02  0.27250838330E+02  0.43958535838E+02  0.00000000000E+00 0.  1.
</event>
<event>
 7    1  0.4008281E-015  0.9000752E+02  0.7816164E-02  0.1186339E+00
        -11   -1    0    0    0    0  0.00000000000E+00  0.00000000000E+00  0.45593999997E+02  0.45594000000E+02  0.51100000000E-03 0.  1.
         11   -1    0    0    0    0 -0.00000000000E+00 -0.00000000000E+00 -0.45593999997E+02  0.45594000000E+02  0.51100000000E-03 0. -1.
    9900012    2    1    2    0    0 -0.66747401294E+00  0.59343478734E+00 -0.77191236906E+00  0.90007519119E+02  0.89999777571E+02 0.  0.
         12    1    1    2    0    0  0.66747401294E+00 -0.59343478734E+00  0.77191236906E+00  0.11804808809E+01  0.00000000000E+00 0. -1.
         11    1    3    3    0    0 -0.83499662937E+01 -0.36942488021E+01 -0.58546603202E+01  0.10846495242E+02  0.51100000000E-03 0. -1.
        -11    1    3    3    0    0 -0.28569674914E+02 -0.20415452545E+02  0.30164996571E+01  0.35243670322E+02  0.51100000000E-03 0.  1.
         12    1    3    3    0    0  0.36252167195E+02  0.24703136135E+02  0.20662482941E+01  0.43917353555E+02  0.00000000000E+00 0. -1.
</event>
<event>
 7    1  0.4008281E-015  0.9000775E+02  0.7816164E-02  0.1186339E+00
        -11   -1    0    0    0    0  0.00000000000E+00  0.00000000000E+00  0.45593999997E+02  0.45594000000E+02  0.51100000000E-03 0.  1.
         11   -1    0    0    0    0 -0.00000000000E+00 -0.00000000000E+00 -0.45593999997E+02  0.45594000000E+02  0.51100000000E-03 0. -1.
    9900012    2    1    2    0    0 -0.89995195125E-01 -0.11551636428E+01  0.22470023252E+00  0.90007749022E+02  0.90000010509E+02 0.  0.
         12    1    1    2    0    0  0.89995195125E-01  0.11551636428E+01 -0.22470023252E+00  0.11802509781E+01  0.00000000000E+00 0. -1.
         11    1    3    3    0    0  0.62273379446E+01  0.58684076000E+01 -0.34136340414E-01  0.85568166502E+01  0.51100000000E-03 0. -1.
        -11    1    3    3    0    0 -0.25832984228E+01 -0.68666768161E+01  0.40438097784E+02  0.41098229084E+02  0.51100000000E-03 0.  1.
         12    1    3    3    0    0 -0.37340347168E+01 -0.15689442659E+00 -0.40179261211E+02  0.40352703287E+02  0.00000000000E+00 0. -1.
</event>
<event>
 7    1  0.4008281E-015  0.9000774E+02  0.7816164E-02  0.1186339E+00
        -11   -1    0    0    0    0  0.00000000000E+00  0.00000000000E+00  0.45593999997E+02  0.45594000000E+02  0.51100000000E-03 0. -1.
         11   -1    0    0    0    0 -0.00000000000E+00 -0.00000000000E+00 -0.45593999997E+02  0.45594000000E+02  0.51100000000E-03 0.  1.
    9900012    2    1    2    0    0 -0.70787135396E+00 -0.75042156337E+00 -0.57341801135E+00  0.90007736219E+02  0.89999997537E+02 0.  0.
         12    1    1    2    0    0  0.70787135396E+00  0.75042156337E+00  0.57341801135E+00  0.11802637808E+01  0.00000000000E+00 0. -1.
         11    1    3    3    0    0  0.35839908898E+01  0.67987757322E+01 -0.57062932388E+01  0.95723625581E+01  0.51100000000E-03 0. -1.
        -11    1    3    3    0    0  0.27552311285E+02 -0.23168364745E+02 -0.15730777743E+02  0.39285625244E+02  0.51100000000E-03 0.  1.
         12    1    3    3    0    0 -0.31844173529E+02  0.15619167449E+02  0.20863652971E+02  0.41149748418E+02  0.00000000000E+00 0. -1.
</event>
<event>
 7    1  0.4008281E-015  0.9000794E+02  0.7816164E-02  0.1186339E+00
        -11   -1    0    0    0    0  0.00000000000E+00  0.00000000000E+00  0.45593999997E+02  0.45594000000E+02  0.51100000000E-03 0. -1.
         11   -1    0    0    0    0 -0.00000000000E+00 -0.00000000000E+00 -0.45593999997E+02  0.45594000000E+02  0.51100000000E-03 0.  1.
    9900012    2    1    2    0    0 -0.23353572690E-01  0.46377302339E+00 -0.10848602146E+01  0.90007935387E+02  0.90000199334E+02 0.  0.
         12    1    1    2    0    0  0.23353572690E-01 -0.46377302339E+00  0.10848602146E+01  0.11800646134E+01  0.00000000000E+00 0. -1.
         11    1    3    3    0    0  0.12100155784E+02  0.28749243921E+01 -0.91683397436E+01  0.15451129867E+02  0.51100000000E-03 0. -1.
        -11    1    3    3    0    0  0.13170031364E+02  0.21165256465E+02 -0.18415726852E+02  0.30992850839E+02  0.51100000000E-03 0.  1.
         12    1    3    3    0    0 -0.25293540721E+02 -0.23576407834E+02  0.26499206381E+02  0.43563954680E+02  0.00000000000E+00 0. -1.
</event>
<event>
 7    1  0.4008281E-015  0.9000770E+02  0.7816164E-02  0.1186339E+00
        -11   -1    0    0    0    0  0.00000000000E+00  0.00000000000E+00  0.45593999997E+02  0.45594000000E+02  0.51100000000E-03 0.  1.
         11   -1    0    0    0    0 -0.00000000000E+00 -0.00000000000E+00 -0.45593999997E+02  0.45594000000E+02  0.51100000000E-03 0. -1.
    9900012    2    1    2    0    0 -0.15508943145E+00  0.42816699649E+00  0.10889103806E+01  0.90007701086E+02  0.89999961941E+02 0.  0.
         12    1    1    2    0    0  0.15508943145E+00 -0.42816699649E+00 -0.10889103806E+01  0.11802989137E+01  0.00000000000E+00 0. -1.
         11    1    3    3    0    0  0.26859331487E+02  0.89313113060E+01 -0.21466820299E+02  0.35524869931E+02  0.51100000000E-03 0. -1.
        -11    1    3    3    0    0  0.33884145574E+01 -0.70984298105E+01 -0.80958140822E+01  0.11287659851E+02  0.51100000000E-03 0.  1.
        -12    1    3    3    0    0 -0.30402835476E+02 -0.14047144990E+01  0.30651544762E+02  0.43195171305E+02  0.00000000000E+00 0.  1.
</event>
<event>
 7    1  0.4008281E-015  0.9000774E+02  0.7816164E-02  0.1186339E+00
        -11   -1    0    0    0    0  0.00000000000E+00  0.00000000000E+00  0.45593999997E+02  0.45594000000E+02  0.51100000000E-03 0.  1.
         11   -1    0    0    0    0 -0.00000000000E+00 -0.00000000000E+00 -0.45593999997E+02  0.45594000000E+02  0.51100000000E-03 0. -1.
    9900012    2    1    2    0    0 -0.46787630948E+00 -0.68509191039E+00  0.83949244400E+00  0.90007742939E+02  0.90000004346E+02 0.  0.
         12    1    1    2    0    0  0.46787630948E+00  0.68509191039E+00 -0.83949244400E+00  0.11802570611E+01  0.00000000000E+00 0. -1.
         11    1    3    3    0    0 -0.41165913129E+01  0.31564822734E+01  0.81833359045E+01  0.96889984605E+01  0.51100000000E-03 0. -1.
        -11    1    3    3    0    0 -0.34731427362E+02  0.11328065086E+02 -0.12758117482E+02  0.38695822347E+02  0.51100000000E-03 0.  1.
         12    1    3    3    0    0  0.38380142365E+02 -0.15169639270E+02  0.54142740214E+01  0.41622922131E+02  0.00000000000E+00 0. -1.
</event>
<event>
 7    1  0.4008281E-015  0.9000766E+02  0.7816164E-02  0.1186339E+00
        -11   -1    0    0    0    0  0.00000000000E+00  0.00000000000E+00  0.45593999997E+02  0.45594000000E+02  0.51100000000E-03 0. -1.
         11   -1    0    0    0    0 -0.00000000000E+00 -0.00000000000E+00 -0.45593999997E+02  0.45594000000E+02  0.51100000000E-03 0.  1.
    9900012    2    1    2    0    0 -0.20910612374E+00 -0.10821827816E+01 -0.42231541857E+00  0.90007663075E+02  0.89999923428E+02 0.  0.
         12    1    1    2    0    0  0.20910612374E+00  0.10821827816E+01  0.42231541857E+00  0.11803369250E+01  0.00000000000E+00 0. -1.
         11    1    3    3    0    0  0.26277364788E+02  0.11947602195E+02 -0.23162582033E+02  0.37010137870E+02  0.51100000000E-03 0. -1.
        -11    1    3    3    0    0  0.78215394776E+01  0.46947954862E+01  0.59356256528E+01  0.10883438639E+02  0.51100000000E-03 0.  1.
        -12    1    3    3    0    0 -0.34308010390E+02 -0.17724580463E+02  0.16804640962E+02  0.42114086566E+02  0.00000000000E+00 0.  1.
</event>
<event>
 7    1  0.4008281E-015  0.9000773E+02  0.7816164E-02  0.1186339E+00
        -11   -1    0    0    0    0  0.00000000000E+00  0.00000000000E+00  0.45593999997E+02  0.45594000000E+02  0.51100000000E-03 0.  1.
         11   -1    0    0    0    0 -0.00000000000E+00 -0.00000000000E+00 -0.45593999997E+02  0.45594000000E+02  0.51100000000E-03 0. -1.
    9900012    2    1    2    0    0 -0.71113438221E+00 -0.88865853182E+00  0.31244125657E+00  0.90007726458E+02  0.89999987647E+02 0.  0.
         12    1    1    2    0    0  0.71113438221E+00  0.88865853182E+00 -0.31244125657E+00  0.11802735423E+01  0.00000000000E+00 0. -1.
         11    1    3    3    0    0  0.17222277514E+02 -0.82709415476E+01 -0.10458771369E+02  0.21780753330E+02  0.51100000000E-03 0. -1.
        -11    1    3    3    0    0  0.14123264691E+02 -0.68512353830E+00 -0.19038382648E+02  0.23714890131E+02  0.51100000000E-03 0.  1.
        -12    1    3    3    0    0 -0.32056676587E+02  0.80674065540E+01  0.29809595273E+02  0.44512082996E+02  0.00000000000E+00 0.  1.
</event>
<event>
 7    1  0.4008281E-015  0.9000768E+02  0.7816164E-02  0.1186339E+00
        -11   -1    0    0    0    0  0.00000000000E+00  0.00000000000E+00  0.45593999997E+02  0.45594000000E+02  0.51100000000E-03 0.  1.
         11   -1    0    0    0    0 -0.00000000000E+00 -0.00000000000E+00 -0.45593999997E+02  0.45594000000E+02  0.51100000000E-03 0. -1.
    9900012    2    1    2    0    0  0.11575437417E+01  0.11029474375E+00 -0.20267712440E+00  0.90007682051E+02  0.89999942654E+02 0.  0.
         12    1    1    2    0    0 -0.11575437417E+01 -0.11029474375E+00  0.20267712440E+00  0.11803179492E+01  0.00000000000E+00 0. -1.
         11    1    3    3    0    0  0.84719680189E+01 -0.41071391083E+01  0.22246039918E+01  0.96742801773E+01  0.51100000000E-03 0. -1.
        -11    1    3    3    0    0  0.10620544455E+02  0.15837928400E+02  0.33490440766E+02  0.38538883786E+02  0.51100000000E-03 0.  1.
         12    1    3    3    0    0 -0.17934968732E+02 -0.11620494548E+02 -0.35917721882E+02  0.41794518087E+02  0.00000000000E+00 0. -1.
</event>
<event>
 7    1  0.4008281E-015  0.9000773E+02  0.7816164E-02  0.1186339E+00
        -11   -1    0    0    0    0  0.00000000000E+00  0.00000000000E+00  0.45593999997E+02  0.45594000000E+02  0.51100000000E-03 0.  1.
         11   -1    0    0    0    0 -0.00000000000E+00 -0.00000000000E+00 -0.45593999997E+02  0.45594000000E+02  0.51100000000E-03 0. -1.
    9900012    2    1    2    0    0  0.66339724974E-01  0.72755292328E+00  0.92698163643E+00  0.90007733433E+02  0.89999994714E+02 0.  0.
         12    1    1    2    0    0 -0.66339724974E-01 -0.72755292328E+00 -0.92698163643E+00  0.11802665672E+01  0.00000000000E+00 0. -1.
         11    1    3    3    0    0  0.40286181983E+01 -0.13334865246E+02 -0.33595436254E+02  0.36368966621E+02  0.51100000000E-03 0. -1.
        -11    1    3    3    0    0 -0.75237675134E+01 -0.10980602362E+00 -0.65926394983E+01  0.10004100698E+02  0.51100000000E-03 0.  1.
        -12    1    3    3    0    0  0.35614890401E+01  0.14172224193E+02  0.41115057389E+02  0.43634666114E+02  0.00000000000E+00 0.  1.
</event>
<event>
 7    1  0.4008281E-015  0.9000774E+02  0.7816164E-02  0.1186339E+00
        -11   -1    0    0    0    0  0.00000000000E+00  0.00000000000E+00  0.45593999997E+02  0.45594000000E+02  0.51100000000E-03 0. -1.
         11   -1    0    0    0    0 -0.00000000000E+00 -0.00000000000E+00 -0.45593999997E+02  0.45594000000E+02  0.51100000000E-03 0.  1.
    9900012    2    1    2    0    0  0.31506801834E+00 -0.39417214889E+00 -0.10669452745E+01  0.90007740809E+02  0.90000002188E+02 0.  0.
         12    1    1    2    0    0 -0.31506801834E+00  0.39417214889E+00  0.10669452745E+01  0.11802591910E+01  0.00000000000E+00 0. -1.
         11    1    3    3    0    0  0.28216282472E+02 -0.14218298667E+02 -0.20170227236E+02  0.37485419572E+02  0.51100000000E-03 0. -1.
        -11    1    3    3    0    0  0.14318513412E+01 -0.46628647980E+01 -0.74120386778E+01  0.88730391643E+01  0.51100000000E-03 0.  1.
        -12    1    3    3    0    0 -0.29333065795E+02  0.18486991316E+02  0.26515320639E+02  0.43649282072E+02  0.00000000000E+00 0.  1.
</event>
<event>
 7    1  0.4008281E-015  0.9000783E+02  0.7816164E-02  0.1186339E+00
        -11   -1    0    0    0    0  0.00000000000E+00  0.00000000000E+00  0.45593999997E+02  0.45594000000E+02  0.51100000000E-03 0.  1.
         11   -1    0    0    0    0 -0.00000000000E+00 -0.00000000000E+00 -0.45593999997E+02  0.45594000000E+02  0.51100000000E-03 0. -1.
    9900012    2    1    2    0    0  0.69876504848E+00  0.84397913082E+00  0.43843258357E+00  0.90007832005E+02  0.90000094587E+02 0.  0.
         12    1    1    2    0    0 -0.69876504848E+00 -0.84397913082E+00 -0.43843258357E+00  0.11801679951E+01  0.00000000000E+00 0. -1.
         11    1    3    3    0    0 -0.61663490039E+01 -0.99882968710E+01 -0.16761248111E+01  0.11857458795E+02  0.51100000000E-03 0. -1.
        -11    1    3    3    0    0  0.13614623036E+02 -0.30211144308E+02  0.12266602043E+02  0.35334695792E+02  0.51100000000E-03 0.  1.
         12    1    3    3    0    0 -0.67495089836E+01  0.41043420310E+02 -0.10152044648E+02  0.42815677418E+02  0.00000000000E+00 0. -1.
</event>
<event>
 7    1  0.4008281E-015  0.9000773E+02  0.7816164E-02  0.1186339E+00
        -11   -1    0    0    0    0  0.00000000000E+00  0.00000000000E+00  0.45593999997E+02  0.45594000000E+02  0.51100000000E-03 0.  1.
         11   -1    0    0    0    0 -0.00000000000E+00 -0.00000000000E+00 -0.45593999997E+02  0.45594000000E+02  0.51100000000E-03 0. -1.
    9900012    2    1    2    0    0  0.78547856379E+00  0.46874717184E+00  0.74588010638E+00  0.90007729854E+02  0.89999991088E+02 0.  0.
         12    1    1    2    0    0 -0.78547856379E+00 -0.46874717184E+00 -0.74588010638E+00  0.11802701464E+01  0.00000000000E+00 0. -1.
         11    1    3    3    0    0  0.22895010618E+01  0.81595651916E+01  0.48853138674E+01  0.97819533362E+01  0.51100000000E-03 0. -1.
        -11    1    3    3    0    0  0.15955554584E+02  0.32523112845E+02 -0.33142787511E+01  0.36377424801E+02  0.51100000000E-03 0.  1.
         12    1    3    3    0    0 -0.17459577082E+02 -0.40213930865E+02 -0.82515500990E+00  0.43848351717E+02  0.00000000000E+00 0. -1.
</event>
<event>
 7    1  0.4008281E-015  0.9000760E+02  0.7816164E-02  0.1186339E+00
        -11   -1    0    0    0    0  0.00000000000E+00  0.00000000000E+00  0.45593999997E+02  0.45594000000E+02  0.51100000000E-03 0. -1.
         11   -1    0    0    0    0 -0.00000000000E+00 -0.00000000000E+00 -0.45593999997E+02  0.45594000000E+02  0.51100000000E-03 0.  1.
    9900012    2    1    2    0    0  0.69458194903E+00 -0.24687080606E+00 -0.92193448573E+00  0.90007596478E+02  0.89999855951E+02 0.  0.
         12    1    1    2    0    0 -0.69458194903E+00  0.24687080606E+00  0.92193448573E+00  0.11804035220E+01  0.00000000000E+00 0. -1.
         11    1    3    3    0    0 -0.21366337933E+02  0.10359918527E+02  0.25021476259E+02  0.34495254499E+02  0.51100000000E-03 0. -1.
        -11    1    3    3    0    0 -0.12662459774E+02  0.34614554699E+00 -0.66927644936E+01  0.14326576740E+02  0.51100000000E-03 0.  1.
        -12    1    3    3    0    0  0.34723379656E+02 -0.10952934880E+02 -0.19250646251E+02  0.41185765238E+02  0.00000000000E+00 0.  1.
</event>
<event>
 7    1  0.4008281E-015  0.9000772E+02  0.7816164E-02  0.1186339E+00
        -11   -1    0    0    0    0  0.00000000000E+00  0.00000000000E+00  0.45593999997E+02  0.45594000000E+02  0.51100000000E-03 0. -1.
         11   -1    0    0    0    0 -0.00000000000E+00 -0.00000000000E+00 -0.45593999997E+02  0.45594000000E+02  0.51100000000E-03 0.  1.
    9900012    2    1    2    0    0  0.18892676945E+00  0.84678905262E+00 -0.80020147182E+00  0.90007717229E+02  0.89999978296E+02 0.  0.
         12    1    1    2    0    0 -0.18892676945E+00 -0.84678905262E+00  0.80020147182E+00  0.11802827709E+01  0.00000000000E+00 0. -1.
         11    1    3    3    0    0  0.17108306790E+01  0.98929415502E+01 -0.58537195088E+01  0.11621672275E+02  0.51100000000E-03 0. -1.
        -11    1    3    3    0    0  0.10483195526E+01 -0.41300724118E+01 -0.36356880433E+02  0.36605726698E+02  0.51100000000E-03 0.  1.
         12    1    3    3    0    0 -0.25702234621E+01 -0.49160800857E+01  0.41410398470E+02  0.41780318255E+02  0.00000000000E+00 0. -1.
</event>
<event>
 7    1  0.4008281E-015  0.9000817E+02  0.7816164E-02  0.1186338E+00
        -11   -1    0    0    0    0  0.00000000000E+00  0.00000000000E+00  0.45593999997E+02  0.45594000000E+02  0.51100000000E-03 0.  1.
         11   -1    0    0    0    0 -0.00000000000E+00 -0.00000000000E+00 -0.45593999997E+02  0.45594000000E+02  0.51100000000E-03 0. -1.
    9900012    2    1    2    0    0 -0.10618425124E+01  0.57804229358E-02 -0.51425632333E+00  0.90008168444E+02  0.90000435466E+02 0.  0.
         12    1    1    2    0    0  0.10618425124E+01 -0.57804229358E-02  0.51425632333E+00  0.11798315560E+01  0.00000000000E+00 0. -1.
         11    1    3    3    0    0 -0.33418532619E+01 -0.71264379472E+01 -0.16493448509E+00  0.78728206308E+01  0.51100000000E-03 0. -1.
        -11    1    3    3    0    0  0.13561164785E+02  0.24232320498E+02  0.32917989737E+02  0.43066281423E+02  0.51100000000E-03 0.  1.
         12    1    3    3    0    0 -0.11281154035E+02 -0.17100102128E+02 -0.33267311575E+02  0.39069066390E+02  0.00000000000E+00 0. -1.
</event>
<event>
 7    1  0.4008281E-015  0.9000776E+02  0.7816164E-02  0.1186339E+00
        -11   -1    0    0    0    0  0.00000000000E+00  0.00000000000E+00  0.45593999997E+02  0.45594000000E+02  0.51100000000E-03 0. -1.
         11   -1    0    0    0    0 -0.00000000000E+00 -0.00000000000E+00 -0.45593999997E+02  0.45594000000E+02  0.51100000000E-03 0.  1.
    9900012    2    1    2    0    0 -0.10614011044E+01  0.19887114221E+00 -0.47628368936E+00  0.90007759267E+02  0.90000020889E+02 0.  0.
         12    1    1    2    0    0  0.10614011044E+01 -0.19887114221E+00  0.47628368936E+00  0.11802407332E+01  0.00000000000E+00 0. -1.
         11    1    3    3    0    0  0.29544209377E+01  0.67300549486E+01  0.13719540210E+02  0.15564319019E+02  0.51100000000E-03 0. -1.
        -11    1    3    3    0    0 -0.11516650914E+02  0.15454397636E+02  0.23359503123E+02  0.30284287031E+02  0.51100000000E-03 0.  1.
         12    1    3    3    0    0  0.75008288718E+01 -0.21985581442E+02 -0.37555327022E+02  0.44159153217E+02  0.00000000000E+00 0. -1.
</event>
<event>
 7    1  0.4008281E-015  0.9000775E+02  0.7816164E-02  0.1186339E+00
        -11   -1    0    0    0    0  0.00000000000E+00  0.00000000000E+00  0.45593999997E+02  0.45594000000E+02  0.51100000000E-03 0. -1.
         11   -1    0    0    0    0 -0.00000000000E+00 -0.00000000000E+00 -0.45593999997E+02  0.45594000000E+02  0.51100000000E-03 0.  1.
    9900012    2    1    2    0    0  0.14254759822E-01  0.72208563426E+00 -0.93348213166E+00  0.90007745895E+02  0.90000007341E+02 0.  0.
         12    1    1    2    0    0 -0.14254759822E-01 -0.72208563426E+00  0.93348213166E+00  0.11802541046E+01  0.00000000000E+00 0. -1.
         11    1    3    3    0    0  0.24325547960E+02  0.17392602434E+01  0.71440884816E+01  0.25412503030E+02  0.51100000000E-03 0. -1.
        -11    1    3    3    0    0 -0.12076175457E+02 -0.12016510786E+02  0.23478291702E+02  0.29007942475E+02  0.51100000000E-03 0.  1.
         12    1    3    3    0    0 -0.12235117744E+02  0.10999336177E+02 -0.31555862316E+02  0.35587300390E+02  0.00000000000E+00 0. -1.
</event>
<event>
 7    1  0.4008281E-015  0.9000772E+02  0.7816164E-02  0.1186339E+00
        -11   -1    0    0    0    0  0.00000000000E+00  0.00000000000E+00  0.45593999997E+02  0.45594000000E+02  0.51100000000E-03 0.  1.
         11   -1    0    0    0    0 -0.00000000000E+00 -0.00000000000E+00 -0.45593999997E+02  0.45594000000E+02  0.51100000000E-03 0. -1.
    9900012    2    1    2    0    0 -0.51720306568E+00 -0.72554541722E+00  0.77404330400E+00  0.90007721135E+02  0.89999982254E+02 0.  0.
         12    1    1    2    0    0  0.51720306568E+00  0.72554541722E+00 -0.77404330400E+00  0.11802788654E+01  0.00000000000E+00 0. -1.
         11    1    3    3    0    0 -0.30988187785E+01 -0.65774314930E+01 -0.41959020118E+01  0.83946933726E+01  0.51100000000E-03 0. -1.
        -11    1    3    3    0    0 -0.24882755911E+02 -0.17814452864E+02  0.25601482027E+02  0.39899149801E+02  0.51100000000E-03 0.  1.
         12    1    3    3    0    0  0.27464371624E+02  0.23666338939E+02 -0.20631536711E+02  0.41713877961E+02  0.00000000000E+00 0. -1.
</event>
<event>
 7    1  0.4008281E-015  0.9000787E+02  0.7816164E-02  0.1186339E+00
        -11   -1    0    0    0    0  0.00000000000E+00  0.00000000000E+00  0.45593999997E+02  0.45594000000E+02  0.51100000000E-03 0.  1.
         11   -1    0    0    0    0 -0.00000000000E+00 -0.00000000000E+00 -0.45593999997E+02  0.45594000000E+02  0.51100000000E-03 0. -1.
    9900012    2    1    2    0    0 -0.11212231415E+01 -0.30337700682E-01 -0.36694797387E+00  0.90007867582E+02  0.90000130634E+02 0.  0.
         12    1    1    2    0    0  0.11212231415E+01  0.30337700682E-01  0.36694797387E+00  0.11801324182E+01  0.00000000000E+00 0. -1.
         11    1    3    3    0    0  0.57363130786E+00 -0.49758119338E+01  0.81115187523E+01  0.95333359329E+01  0.51100000000E-03 0. -1.
        -11    1    3    3    0    0  0.26639440846E+01  0.11811961097E+02  0.34588287803E+02  0.36646537032E+02  0.51100000000E-03 0.  1.
         12    1    3    3    0    0 -0.43587985339E+01 -0.68664868639E+01 -0.43066754529E+02  0.43827994617E+02  0.00000000000E+00 0. -1.
</event>
<event>
 7    1  0.7728073E-015  0.9000783E+02  0.7816164E-02  0.1186339E+00
        -11   -1    0    0    0    0  0.00000000000E+00  0.00000000000E+00  0.45593999997E+02  0.45594000000E+02  0.51100000000E-03 0. -1.
         11   -1    0    0    0    0 -0.00000000000E+00 -0.00000000000E+00 -0.45593999997E+02  0.45594000000E+02  0.51100000000E-03 0.  1.
    9900012    2    1    2    0    0  0.71681300463E+00  0.14731882969E+00 -0.92588920717E+00  0.90007832832E+02  0.90000095425E+02 0.  0.
         12    1    1    2    0    0 -0.71681300463E+00 -0.14731882969E+00  0.92588920717E+00  0.11801671683E+01  0.00000000000E+00 0. -1.
         11    1    3    3    0    0  0.27287861629E+01 -0.72176300613E+01  0.58338525295E+01  0.96733806512E+01  0.51100000000E-03 0. -1.
        -11    1    3    3    0    0  0.12582018787E+01 -0.57603375494E+01 -0.42091221526E+02  0.42502182185E+02  0.51100000000E-03 0.  1.
         12    1    3    3    0    0 -0.32701750370E+01  0.13125286440E+02  0.35331479789E+02  0.37832269996E+02  0.00000000000E+00 0. -1.
</event>
<event>
 7    1  0.4008281E-015  0.9000774E+02  0.7816164E-02  0.1186339E+00
        -11   -1    0    0    0    0  0.00000000000E+00  0.00000000000E+00  0.45593999997E+02  0.45594000000E+02  0.51100000000E-03 0. -1.
         11   -1    0    0    0    0 -0.00000000000E+00 -0.00000000000E+00 -0.45593999997E+02  0.45594000000E+02  0.51100000000E-03 0.  1.
    9900012    2    1    2    0    0 -0.64219289804E+00 -0.84710480257E+00 -0.51284504975E+00  0.90007742270E+02  0.90000003668E+02 0.  0.
         12    1    1    2    0    0  0.64219289804E+00  0.84710480257E+00  0.51284504975E+00  0.11802577303E+01  0.00000000000E+00 0. -1.
         11    1    3    3    0    0  0.17757433618E+02 -0.23999940688E+02  0.23287812717E+02  0.37863515726E+02  0.51100000000E-03 0. -1.
        -11    1    3    3    0    0  0.76476303495E+01  0.12940525391E+01  0.35264963942E+01  0.85203872574E+01  0.51100000000E-03 0.  1.
        -12    1    3    3    0    0 -0.26047256866E+02  0.21858783346E+02 -0.27327154161E+02  0.43623839287E+02  0.00000000000E+00 0.  1.
</event>
<event>
 7    1  0.4008281E-015  0.9000770E+02  0.7816164E-02  0.1186339E+00
        -11   -1    0    0    0    0  0.00000000000E+00  0.00000000000E+00  0.45593999997E+02  0.45594000000E+02  0.51100000000E-03 0. -1.
         11   -1    0    0    0    0 -0.00000000000E+00 -0.00000000000E+00 -0.45593999997E+02  0.45594000000E+02  0.51100000000E-03 0.  1.
    9900012    2    1    2    0    0  0.35867981679E+00 -0.98971776675E-02 -0.11244364553E+01  0.90007700671E+02  0.89999961519E+02 0.  0.
         12    1    1    2    0    0 -0.35867981679E+00  0.98971776675E-02  0.11244364553E+01  0.11802993295E+01  0.00000000000E+00 0. -1.
         11    1    3    3    0    0 -0.31340390252E+02  0.16309126829E+02 -0.38823147097E+01  0.35542651095E+02  0.51100000000E-03 0. -1.
        -11    1    3    3    0    0  0.54387962566E+01  0.11141462279E+02  0.98231720355E+01  0.15817945364E+02  0.51100000000E-03 0.  1.
        -12    1    3    3    0    0  0.26260273812E+02 -0.27460486286E+02 -0.70652937811E+01  0.38647104212E+02  0.00000000000E+00 0.  1.
</event>
<event>
 7    1  0.4008281E-015  0.9000779E+02  0.7816164E-02  0.1186339E+00
        -11   -1    0    0    0    0  0.00000000000E+00  0.00000000000E+00  0.45593999997E+02  0.45594000000E+02  0.51100000000E-03 0.  1.
         11   -1    0    0    0    0 -0.00000000000E+00 -0.00000000000E+00 -0.45593999997E+02  0.45594000000E+02  0.51100000000E-03 0. -1.
    9900012    2    1    2    0    0  0.18849796631E+00 -0.89769011824E+00 -0.74264446467E+00  0.90007788226E+02  0.90000050230E+02 0.  0.
         12    1    1    2    0    0 -0.18849796631E+00  0.89769011824E+00  0.74264446467E+00  0.11802117745E+01  0.00000000000E+00 0. -1.
         11    1    3    3    0    0  0.17989138387E+01 -0.35052771545E+02 -0.10024567138E+02  0.36502394861E+02  0.51100000000E-03 0. -1.
        -11    1    3    3    0    0 -0.35035818805E+01  0.68030523951E+00 -0.12846538101E+02  0.13333095764E+02  0.51100000000E-03 0.  1.
        -12    1    3    3    0    0  0.18931660081E+01  0.33474776187E+02  0.22128460774E+02  0.40172297601E+02  0.00000000000E+00 0.  1.
</event>
<event>
 7    1  0.4008281E-015  0.9000780E+02  0.7816164E-02  0.1186339E+00
        -11   -1    0    0    0    0  0.00000000000E+00  0.00000000000E+00  0.45593999997E+02  0.45594000000E+02  0.51100000000E-03 0.  1.
         11   -1    0    0    0    0 -0.00000000000E+00 -0.00000000000E+00 -0.45593999997E+02  0.45594000000E+02  0.51100000000E-03 0. -1.
    9900012    2    1    2    0    0  0.27584071117E+00  0.45153844592E+00  0.10549401717E+01  0.90007799241E+02  0.90000061391E+02 0.  0.
         12    1    1    2    0    0 -0.27584071117E+00 -0.45153844592E+00 -0.10549401717E+01  0.11802007591E+01  0.00000000000E+00 0. -1.
         11    1    3    3    0    0 -0.78275601750E+01 -0.28114935737E+02 -0.22421080411E+02  0.36802515632E+02  0.51100000000E-03 0. -1.
        -11    1    3    3    0    0 -0.46960360200E+01 -0.74901566392E+01  0.11720736192E+01  0.89179009644E+01  0.51100000000E-03 0.  1.
        -12    1    3    3    0    0  0.12799436906E+02  0.36056630822E+02  0.22303946964E+02  0.44287382644E+02  0.00000000000E+00 0.  1.
</event>
<event>
 7    1  0.4008281E-015  0.9000774E+02  0.7816164E-02  0.1186339E+00
        -11   -1    0    0    0    0  0.00000000000E+00  0.00000000000E+00  0.45593999997E+02  0.45594000000E+02  0.51100000000E-03 0. -1.
         11   -1    0    0    0    0 -0.00000000000E+00 -0.00000000000E+00 -0.45593999997E+02  0.45594000000E+02  0.51100000000E-03 0.  1.
    9900012    2    1    2    0    0  0.11908933402E+00  0.84878595727E+00 -0.81141232466E+00  0.90007741625E+02  0.90000003015E+02 0.  0.
         12    1    1    2    0    0 -0.11908933402E+00 -0.84878595727E+00  0.81141232466E+00  0.11802583748E+01  0.00000000000E+00 0. -1.
         11    1    3    3    0    0 -0.28133885170E+02  0.20488550670E+02  0.10042672873E+01  0.34818167045E+02  0.51100000000E-03 0. -1.
        -11    1    3    3    0    0 -0.50100845288E+01  0.88387512066E+01 -0.49246769043E+01  0.11290567424E+02  0.51100000000E-03 0.  1.
        -12    1    3    3    0    0  0.33263059033E+02 -0.28478515919E+02  0.31089972924E+01  0.43899007157E+02  0.00000000000E+00 0.  1.
</event>
<event>
 7    1  0.4008281E-015  0.9000752E+02  0.7816164E-02  0.1186339E+00
        -11   -1    0    0    0    0  0.00000000000E+00  0.00000000000E+00  0.45593999997E+02  0.45594000000E+02  0.51100000000E-03 0. -1.
         11   -1    0    0    0    0 -0.00000000000E+00 -0.00000000000E+00 -0.45593999997E+02  0.45594000000E+02  0.51100000000E-03 0.  1.
    9900012    2    1    2    0    0 -0.67686105022E+00  0.48693859030E+00 -0.83562655141E+00  0.90007524754E+02  0.89999783281E+02 0.  0.
         12    1    1    2    0    0  0.67686105022E+00 -0.48693859030E+00  0.83562655141E+00  0.11804752456E+01  0.00000000000E+00 0. -1.
         11    1    3    3    0    0  0.63662384223E+01 -0.55263505529E+01 -0.43418481012E+01  0.94826782756E+01  0.51100000000E-03 0. -1.
        -11    1    3    3    0    0 -0.91374949704E+01 -0.34922944542E+02  0.13144354972E+02  0.38417182845E+02  0.51100000000E-03 0.  1.
         12    1    3    3    0    0  0.20943954979E+01  0.40936233686E+02 -0.96381334218E+01  0.42107663634E+02  0.00000000000E+00 0. -1.
</event>
<event>
 7    1  0.4300795E-015  0.9000770E+02  0.7816164E-02  0.1186339E+00
        -11   -1    0    0    0    0  0.00000000000E+00  0.00000000000E+00  0.45593999997E+02  0.45594000000E+02  0.51100000000E-03 0.  1.
         11   -1    0    0    0    0 -0.00000000000E+00 -0.00000000000E+00 -0.45593999997E+02  0.45594000000E+02  0.51100000000E-03 0. -1.
    9900012    2    1    2    0    0 -0.11603562576E+01  0.14010562778E+00 -0.16450472066E+00  0.90007695787E+02  0.89999956572E+02 0.  0.
         12    1    1    2    0    0  0.11603562576E+01 -0.14010562778E+00  0.16450472066E+00  0.11803042128E+01  0.00000000000E+00 0. -1.
         11    1    3    3    0    0 -0.85281832661E+01 -0.32110120448E+00  0.33962264705E+01  0.91851712180E+01  0.51100000000E-03 0. -1.
        -11    1    3    3    0    0  0.64943227359E+01  0.22451551291E+02  0.31623110412E+02  0.39322633375E+02  0.51100000000E-03 0.  1.
         12    1    3    3    0    0  0.87350427254E+00 -0.21990344459E+02 -0.35183841603E+02  0.41499891194E+02  0.00000000000E+00 0. -1.
</event>
<event>
 7    1  0.4008281E-015  0.9000766E+02  0.7816164E-02  0.1186339E+00
        -11   -1    0    0    0    0  0.00000000000E+00  0.00000000000E+00  0.45593999997E+02  0.45594000000E+02  0.51100000000E-03 0.  1.
         11   -1    0    0    0    0 -0.00000000000E+00 -0.00000000000E+00 -0.45593999997E+02  0.45594000000E+02  0.51100000000E-03 0. -1.
    9900012    2    1    2    0    0 -0.23766212092E+00  0.72460443175E+00  0.90092684190E+00  0.90007659354E+02  0.89999919657E+02 0.  0.
         12    1    1    2    0    0  0.23766212092E+00 -0.72460443175E+00 -0.90092684190E+00  0.11803406460E+01  0.00000000000E+00 0. -1.
         11    1    3    3    0    0  0.27434081458E+02 -0.18092806565E+02 -0.21455300723E+02  0.39246762978E+02  0.51100000000E-03 0. -1.
        -11    1    3    3    0    0  0.60611308877E+01  0.28171889166E+01 -0.94617537562E+00  0.67504895476E+01  0.51100000000E-03 0.  1.
        -12    1    3    3    0    0 -0.33732874467E+02  0.16000222080E+02  0.23302402940E+02  0.44010406829E+02  0.00000000000E+00 0.  1.
</event>
<event>
 7    1  0.4008281E-015  0.9000745E+02  0.7816164E-02  0.1186340E+00
        -11   -1    0    0    0    0  0.00000000000E+00  0.00000000000E+00  0.45593999997E+02  0.45594000000E+02  0.51100000000E-03 0. -1.
         11   -1    0    0    0    0 -0.00000000000E+00 -0.00000000000E+00 -0.45593999997E+02  0.45594000000E+02  0.51100000000E-03 0.  1.
    9900012    2    1    2    0    0  0.37966289049E+00 -0.82988325016E+00 -0.74889750993E+00  0.90007450298E+02  0.89999707841E+02 0.  0.
         12    1    1    2    0    0 -0.37966289049E+00  0.82988325016E+00  0.74889750993E+00  0.11805497023E+01  0.00000000000E+00 0. -1.
         11    1    3    3    0    0 -0.32968741016E+02  0.13878601182E+02 -0.11428963635E+01  0.35789099840E+02  0.51100000000E-03 0. -1.
        -11    1    3    3    0    0  0.11334062225E+01  0.12086759684E+02  0.19081894603E+01  0.12288838700E+02  0.51100000000E-03 0.  1.
        -12    1    3    3    0    0  0.32214997684E+02 -0.26795244116E+02 -0.15141906068E+01  0.41929511758E+02  0.00000000000E+00 0.  1.
</event>
<event>
 7    1  0.5817519E-015  0.9000775E+02  0.7816164E-02  0.1186339E+00
        -11   -1    0    0    0    0  0.00000000000E+00  0.00000000000E+00  0.45593999997E+02  0.45594000000E+02  0.51100000000E-03 0. -1.
         11   -1    0    0    0    0 -0.00000000000E+00 -0.00000000000E+00 -0.45593999997E+02  0.45594000000E+02  0.51100000000E-03 0.  1.
    9900012    2    1    2    0    0 -0.60162846163E+00 -0.56570799253E+00 -0.84320908109E+00  0.90007752614E+02  0.90000014148E+02 0.  0.
         12    1    1    2    0    0  0.60162846163E+00  0.56570799253E+00  0.84320908109E+00  0.11802473864E+01  0.00000000000E+00 0. -1.
         11    1    3    3    0    0  0.26104659935E+01 -0.89404760472E+01  0.40922747552E+00  0.93227738383E+01  0.51100000000E-03 0. -1.
        -11    1    3    3    0    0 -0.28600993895E+02 -0.22064674463E+02 -0.14452780548E+02  0.38906934816E+02  0.51100000000E-03 0.  1.
         12    1    3    3    0    0  0.25388899440E+02  0.30439442518E+02  0.13200343991E+02  0.41778043959E+02  0.00000000000E+00 0. -1.
</event>
<event>
 7    1  0.4008281E-015  0.9000773E+02  0.7816164E-02  0.1186339E+00
        -11   -1    0    0    0    0  0.00000000000E+00  0.00000000000E+00  0.45593999997E+02  0.45594000000E+02  0.51100000000E-03 0.  1.
         11   -1    0    0    0    0 -0.00000000000E+00 -0.00000000000E+00 -0.45593999997E+02  0.45594000000E+02  0.51100000000E-03 0. -1.
    9900012    2    1    2    0    0 -0.57675258960E-01 -0.70729130239E+00  0.94310693956E+00  0.90007729641E+02  0.89999990872E+02 0.  0.
         12    1    1    2    0    0  0.57675258960E-01  0.70729130239E+00 -0.94310693956E+00  0.11802703594E+01  0.00000000000E+00 0. -1.
         11    1    3    3    0    0  0.24416899826E+02  0.23586095370E+02 -0.26325621990E+02  0.42959600386E+02  0.51100000000E-03 0. -1.
        -11    1    3    3    0    0  0.95826873738E+00 -0.77093422293E+01  0.76253288365E+01  0.10885673002E+02  0.51100000000E-03 0.  1.
        -12    1    3    3    0    0 -0.25432843822E+02 -0.16584044444E+02  0.19643400093E+02  0.36162456252E+02  0.00000000000E+00 0.  1.
</event>
<event>
 7    1  0.4008281E-015  0.9000751E+02  0.7816164E-02  0.1186340E+00
        -11   -1    0    0    0    0  0.00000000000E+00  0.00000000000E+00  0.45593999997E+02  0.45594000000E+02  0.51100000000E-03 0.  1.
         11   -1    0    0    0    0 -0.00000000000E+00 -0.00000000000E+00 -0.45593999997E+02  0.45594000000E+02  0.51100000000E-03 0. -1.
    9900012    2    1    2    0    0 -0.36424918086E+00 -0.62309056866E+00  0.93415589477E+00  0.90007505799E+02  0.89999764075E+02 0.  0.
         12    1    1    2    0    0  0.36424918086E+00  0.62309056866E+00 -0.93415589477E+00  0.11804942009E+01  0.00000000000E+00 0. -1.
         11    1    3    3    0    0  0.62142266396E+01  0.30046923958E+01  0.10747481743E+01  0.69856905901E+01  0.51100000000E-03 0. -1.
        -11    1    3    3    0    0  0.87098867133E+00 -0.37454045029E+02  0.20495115697E+02  0.42703792314E+02  0.51100000000E-03 0.  1.
         12    1    3    3    0    0 -0.74494644918E+01  0.33826262065E+02 -0.20635707976E+02  0.40318022895E+02  0.00000000000E+00 0. -1.
</event>
<event>
 7    1  0.4008281E-015  0.9000784E+02  0.7816164E-02  0.1186339E+00
        -11   -1    0    0    0    0  0.00000000000E+00  0.00000000000E+00  0.45593999997E+02  0.45594000000E+02  0.51100000000E-03 0. -1.
         11   -1    0    0    0    0 -0.00000000000E+00 -0.00000000000E+00 -0.45593999997E+02  0.45594000000E+02  0.51100000000E-03 0.  1.
    9900012    2    1    2    0    0 -0.66611775366E+00 -0.30438576109E+00 -0.92542345318E+00  0.90007842332E+02  0.90000105051E+02 0.  0.
         12    1    1    2    0    0  0.66611775366E+00  0.30438576109E+00  0.92542345318E+00  0.11801576679E+01  0.00000000000E+00 0. -1.
         11    1    3    3    0    0 -0.38055625458E+02 -0.37409062021E+00 -0.76041500952E+01  0.38809711049E+02  0.51100000000E-03 0. -1.
        -11    1    3    3    0    0 -0.41635970763E+01  0.27870646520E+00  0.86434872404E+01  0.95980774035E+01  0.51100000000E-03 0.  1.
        -12    1    3    3    0    0  0.41553104781E+02 -0.20900160608E+00 -0.19647605984E+01  0.41600053880E+02  0.00000000000E+00 0.  1.
</event>
<event>
 7    1  0.4008281E-015  0.9000774E+02  0.7816164E-02  0.1186339E+00
        -11   -1    0    0    0    0  0.00000000000E+00  0.00000000000E+00  0.45593999997E+02  0.45594000000E+02  0.51100000000E-03 0. -1.
         11   -1    0    0    0    0 -0.00000000000E+00 -0.00000000000E+00 -0.45593999997E+02  0.45594000000E+02  0.51100000000E-03 0.  1.
    9900012    2    1    2    0    0 -0.71635309221E+00  0.24845737563E+00 -0.90449419232E+00  0.90007744704E+02  0.90000006134E+02 0.  0.
         12    1    1    2    0    0  0.71635309221E+00 -0.24845737563E+00  0.90449419232E+00  0.11802552962E+01  0.00000000000E+00 0. -1.
         11    1    3    3    0    0  0.23077694182E+00  0.39079135498E+02  0.98799268376E+01  0.40309366701E+02  0.51100000000E-03 0. -1.
        -11    1    3    3    0    0 -0.84275462673E+01 -0.11331795980E+02  0.73493603407E+01  0.15919994783E+02  0.51100000000E-03 0.  1.
        -12    1    3    3    0    0  0.74804162332E+01 -0.27498882143E+02 -0.18133781371E+02  0.33778383220E+02  0.00000000000E+00 0.  1.
</event>
<event>
 7    1  0.4008281E-015  0.9000771E+02  0.7816164E-02  0.1186339E+00
        -11   -1    0    0    0    0  0.00000000000E+00  0.00000000000E+00  0.45593999997E+02  0.45594000000E+02  0.51100000000E-03 0.  1.
         11   -1    0    0    0    0 -0.00000000000E+00 -0.00000000000E+00 -0.45593999997E+02  0.45594000000E+02  0.51100000000E-03 0. -1.
    9900012    2    1    2    0    0  0.50939374176E+00  0.47701299133E+00  0.95187761130E+00  0.90007705814E+02  0.89999966731E+02 0.  0.
         12    1    1    2    0    0 -0.50939374176E+00 -0.47701299133E+00 -0.95187761130E+00  0.11802941858E+01  0.00000000000E+00 0. -1.
         11    1    3    3    0    0 -0.10362451896E+00 -0.20317679887E+01  0.10572732076E+02  0.10766683938E+02  0.51100000000E-03 0. -1.
        -11    1    3    3    0    0  0.36174884533E+02 -0.99961349775E+01  0.67682742393E+01  0.38136000339E+02  0.51100000000E-03 0.  1.
         12    1    3    3    0    0 -0.35561866272E+02  0.12504915958E+02 -0.16389128704E+02  0.41105021537E+02  0.00000000000E+00 0. -1.
</event>
<event>
 7    1  0.4008281E-015  0.9000763E+02  0.7816164E-02  0.1186339E+00
        -11   -1    0    0    0    0  0.00000000000E+00  0.00000000000E+00  0.45593999997E+02  0.45594000000E+02  0.51100000000E-03 0.  1.
         11   -1    0    0    0    0 -0.00000000000E+00 -0.00000000000E+00 -0.45593999997E+02  0.45594000000E+02  0.51100000000E-03 0. -1.
    9900012    2    1    2    0    0 -0.42540373814E+00  0.77444554536E+00  0.78264961812E+00  0.90007629436E+02  0.89999889345E+02 0.  0.
         12    1    1    2    0    0  0.42540373814E+00 -0.77444554536E+00 -0.78264961812E+00  0.11803705638E+01  0.00000000000E+00 0. -1.
         11    1    3    3    0    0  0.82119190885E+01  0.15319870388E+01  0.38231932742E+01  0.91869149596E+01  0.51100000000E-03 0. -1.
        -11    1    3    3    0    0 -0.42435797102E+02 -0.13117589280E+02  0.21064988399E+01  0.44466901869E+02  0.51100000000E-03 0.  1.
         12    1    3    3    0    0  0.33798474276E+02  0.12360047787E+02 -0.51470424960E+01  0.36353812607E+02  0.00000000000E+00 0. -1.
</event>
<event>
 7    1  0.4008281E-015  0.9000777E+02  0.7816164E-02  0.1186339E+00
        -11   -1    0    0    0    0  0.00000000000E+00  0.00000000000E+00  0.45593999997E+02  0.45594000000E+02  0.51100000000E-03 0. -1.
         11   -1    0    0    0    0 -0.00000000000E+00 -0.00000000000E+00 -0.45593999997E+02  0.45594000000E+02  0.51100000000E-03 0.  1.
    9900012    2    1    2    0    0 -0.75041857568E-01  0.75849124022E+00 -0.90110939963E+00  0.90007771890E+02  0.90000033679E+02 0.  0.
         12    1    1    2    0    0  0.75041857568E-01 -0.75849124022E+00  0.90110939963E+00  0.11802281101E+01  0.00000000000E+00 0. -1.
         11    1    3    3    0    0 -0.16167229863E+02 -0.34173192203E+02 -0.20775288154E+01  0.37861623223E+02  0.51100000000E-03 0. -1.
        -11    1    3    3    0    0 -0.88081961741E+01  0.32562683354E+00 -0.29949707274E+01  0.93091461797E+01  0.51100000000E-03 0.  1.
        -12    1    3    3    0    0  0.24900384180E+02  0.34606056610E+02  0.41713901432E+01  0.42837002488E+02  0.00000000000E+00 0.  1.
</event>
<event>
 7    1  0.4008281E-015  0.9000772E+02  0.7816164E-02  0.1186339E+00
        -11   -1    0    0    0    0  0.00000000000E+00  0.00000000000E+00  0.45593999997E+02  0.45594000000E+02  0.51100000000E-03 0.  1.
         11   -1    0    0    0    0 -0.00000000000E+00 -0.00000000000E+00 -0.45593999997E+02  0.45594000000E+02  0.51100000000E-03 0. -1.
    9900012    2    1    2    0    0  0.46539828784E+00  0.78893552188E+00 -0.74434787844E+00  0.90007716734E+02  0.89999977795E+02 0.  0.
         12    1    1    2    0    0 -0.46539828784E+00 -0.78893552188E+00  0.74434787844E+00  0.11802832661E+01  0.00000000000E+00 0. -1.
         11    1    3    3    0    0  0.24626741532E+02  0.18578380772E+02 -0.25444493434E+02  0.39988184217E+02  0.51100000000E-03 0. -1.
        -11    1    3    3    0    0 -0.31250859101E+01  0.82607031518E+01  0.77337518348E+00  0.88658608123E+01  0.51100000000E-03 0.  1.
        -12    1    3    3    0    0 -0.21036257334E+02 -0.26050148402E+02  0.23926770372E+02  0.41153671705E+02  0.00000000000E+00 0.  1.
</event>
<event>
 7    1  0.4008281E-015  0.9000773E+02  0.7816164E-02  0.1186339E+00
        -11   -1    0    0    0    0  0.00000000000E+00  0.00000000000E+00  0.45593999997E+02  0.45594000000E+02  0.51100000000E-03 0.  1.
         11   -1    0    0    0    0 -0.00000000000E+00 -0.00000000000E+00 -0.45593999997E+02  0.45594000000E+02  0.51100000000E-03 0. -1.
    9900012    2    1    2    0    0 -0.40201305063E+00 -0.72383595008E+00  0.84111875076E+00  0.90007731502E+02  0.89999992757E+02 0.  0.
         12    1    1    2    0    0  0.40201305063E+00  0.72383595008E+00 -0.84111875076E+00  0.11802684984E+01  0.00000000000E+00 0. -1.
         11    1    3    3    0    0  0.96550448837E+01  0.34878805394E+02  0.36487989406E+01  0.36373956224E+02  0.51100000000E-03 0. -1.
        -11    1    3    3    0    0 -0.17680181075E+01  0.75069133435E+01  0.47945553213E+01  0.90811561470E+01  0.51100000000E-03 0.  1.
        -12    1    3    3    0    0 -0.82890398269E+01 -0.43109554688E+02 -0.76022355111E+01  0.44552619130E+02  0.00000000000E+00 0.  1.
</event>
<event>
 7    1  0.4008281E-015  0.9000770E+02  0.7816164E-02  0.1186339E+00
        -11   -1    0    0    0    0  0.00000000000E+00  0.00000000000E+00  0.45593999997E+02  0.45594000000E+02  0.51100000000E-03 0.  1.
         11   -1    0    0    0    0 -0.00000000000E+00 -0.00000000000E+00 -0.45593999997E+02  0.45594000000E+02  0.51100000000E-03 0. -1.
    9900012    2    1    2    0    0 -0.39801995323E+00  0.33441153029E+00 -0.10596507904E+01  0.90007698872E+02  0.89999959697E+02 0.  0.
         12    1    1    2    0    0  0.39801995323E+00 -0.33441153029E+00  0.10596507904E+01  0.11803011278E+01  0.00000000000E+00 0. -1.
         11    1    3    3    0    0 -0.67914077183E+01  0.17022962803E+01  0.87003487088E+01  0.11167681019E+02  0.51100000000E-03 0. -1.
        -11    1    3    3    0    0 -0.26696228453E+02 -0.11239126118E+02  0.18371795303E+02  0.34300574812E+02  0.51100000000E-03 0.  1.
         12    1    3    3    0    0  0.33089616218E+02  0.98712413679E+01 -0.28131794802E+02  0.44539443041E+02  0.00000000000E+00 0. -1.
</event>
<event>
 7    1  0.4008281E-015  0.9000812E+02  0.7816164E-02  0.1186338E+00
        -11   -1    0    0    0    0  0.00000000000E+00  0.00000000000E+00  0.45593999997E+02  0.45594000000E+02  0.51100000000E-03 0.  1.
         11   -1    0    0    0    0 -0.00000000000E+00 -0.00000000000E+00 -0.45593999997E+02  0.45594000000E+02  0.51100000000E-03 0. -1.
    9900012    2    1    2    0    0 -0.63898700737E-01  0.63692818998E-01  0.11764206840E+01  0.90008124818E+02  0.90000391265E+02 0.  0.
         12    1    1    2    0    0  0.63898700737E-01 -0.63692818998E-01 -0.11764206840E+01  0.11798751819E+01  0.00000000000E+00 0. -1.
         11    1    3    3    0    0 -0.64902560118E+01 -0.29737019285E+01  0.62495895306E+01  0.94880817777E+01  0.51100000000E-03 0. -1.
        -11    1    3    3    0    0 -0.32741669567E+02  0.14895557439E+02  0.92864441863E+01  0.37150135980E+02  0.51100000000E-03 0.  1.
         12    1    3    3    0    0  0.39168026878E+02 -0.11858162691E+02 -0.14359613033E+02  0.43369907060E+02  0.00000000000E+00 0. -1.
</event>
<event>
 7    1  0.4008281E-015  0.9000774E+02  0.7816164E-02  0.1186339E+00
        -11   -1    0    0    0    0  0.00000000000E+00  0.00000000000E+00  0.45593999997E+02  0.45594000000E+02  0.51100000000E-03 0.  1.
         11   -1    0    0    0    0 -0.00000000000E+00 -0.00000000000E+00 -0.45593999997E+02  0.45594000000E+02  0.51100000000E-03 0. -1.
    9900012    2    1    2    0    0 -0.68022778075E+00 -0.29148795467E+00  0.91942226522E+00  0.90007740553E+02  0.90000001928E+02 0.  0.
         12    1    1    2    0    0  0.68022778075E+00  0.29148795467E+00 -0.91942226522E+00  0.11802594474E+01  0.00000000000E+00 0. -1.
         11    1    3    3    0    0  0.31727986242E+02 -0.17037322260E+02 -0.23358840593E+02  0.42925177867E+02  0.51100000000E-03 0. -1.
        -11    1    3    3    0    0 -0.77167488736E+00  0.44692992584E+01  0.85530204737E+01  0.96811299691E+01  0.51100000000E-03 0.  1.
        -12    1    3    3    0    0 -0.31636539135E+02  0.12276535047E+02  0.15725242385E+02  0.37401432717E+02  0.00000000000E+00 0.  1.
</event>
<event>
 7    1  0.4008281E-015  0.9000770E+02  0.7816164E-02  0.1186339E+00
        -11   -1    0    0    0    0  0.00000000000E+00  0.00000000000E+00  0.45593999997E+02  0.45594000000E+02  0.51100000000E-03 0.  1.
         11   -1    0    0    0    0 -0.00000000000E+00 -0.00000000000E+00 -0.45593999997E+02  0.45594000000E+02  0.51100000000E-03 0. -1.
    9900012    2    1    2    0    0  0.43748087649E+00  0.21379037991E+00  0.10751792099E+01  0.90007700810E+02  0.89999961661E+02 0.  0.
         12    1    1    2    0    0 -0.43748087649E+00 -0.21379037991E+00 -0.10751792099E+01  0.11802991897E+01  0.00000000000E+00 0. -1.
         11    1    3    3    0    0  0.70545938378E+01  0.36238825331E+02  0.88031752833E+01  0.37954125611E+02  0.51100000000E-03 0. -1.
        -11    1    3    3    0    0  0.14817436311E+01  0.46270470036E+01 -0.93865737801E+01  0.10569432140E+02  0.51100000000E-03 0.  1.
        -12    1    3    3    0    0 -0.80988565924E+01 -0.40652081955E+02  0.16585777066E+01  0.41484143059E+02  0.00000000000E+00 0.  1.
</event>
<event>
 7    1  0.4008281E-015  0.9000782E+02  0.7816164E-02  0.1186339E+00
        -11   -1    0    0    0    0  0.00000000000E+00  0.00000000000E+00  0.45593999997E+02  0.45594000000E+02  0.51100000000E-03 0.  1.
         11   -1    0    0    0    0 -0.00000000000E+00 -0.00000000000E+00 -0.45593999997E+02  0.45594000000E+02  0.51100000000E-03 0. -1.
    9900012    2    1    2    0    0  0.11056292715E+01 -0.39213942004E+00 -0.12893378294E+00  0.90007824873E+02  0.90000087361E+02 0.  0.
         12    1    1    2    0    0 -0.11056292715E+01  0.39213942004E+00  0.12893378294E+00  0.11801751273E+01  0.00000000000E+00 0. -1.
         11    1    3    3    0    0 -0.80491360429E+00 -0.80812456578E+01 -0.12574268441E+01  0.82180009626E+01  0.51100000000E-03 0. -1.
        -11    1    3    3    0    0 -0.69192064497E+01 -0.14153411166E+01  0.40146135449E+02  0.40762615227E+02  0.51100000000E-03 0.  1.
         12    1    3    3    0    0  0.88297493254E+01  0.91044473544E+01 -0.39017642388E+02  0.41027208683E+02  0.00000000000E+00 0. -1.
</event>
<event>
 7    1  0.4008281E-015  0.9000775E+02  0.7816164E-02  0.1186339E+00
        -11   -1    0    0    0    0  0.00000000000E+00  0.00000000000E+00  0.45593999997E+02  0.45594000000E+02  0.51100000000E-03 0. -1.
         11   -1    0    0    0    0 -0.00000000000E+00 -0.00000000000E+00 -0.45593999997E+02  0.45594000000E+02  0.51100000000E-03 0.  1.
    9900012    2    1    2    0    0  0.38374538117E-01 -0.11124131265E+01  0.39251074733E+00  0.90007745682E+02  0.90000007125E+02 0.  0.
         12    1    1    2    0    0 -0.38374538117E-01  0.11124131265E+01 -0.39251074733E+00  0.11802543184E+01  0.00000000000E+00 0. -1.
         11    1    3    3    0    0  0.12516158948E+02 -0.28093774275E+02  0.26021052746E+02  0.40286592982E+02  0.51100000000E-03 0. -1.
        -11    1    3    3    0    0  0.56954191765E+01  0.62325279212E+01  0.39123188313E+01  0.93052911176E+01  0.51100000000E-03 0.  1.
        -12    1    3    3    0    0 -0.18173203586E+02  0.20748833227E+02 -0.29540860830E+02  0.40415861582E+02  0.00000000000E+00 0.  1.
</event>
<event>
 7    1  0.4008281E-015  0.9000773E+02  0.7816164E-02  0.1186339E+00
        -11   -1    0    0    0    0  0.00000000000E+00  0.00000000000E+00  0.45593999997E+02  0.45594000000E+02  0.51100000000E-03 0. -1.
         11   -1    0    0    0    0 -0.00000000000E+00 -0.00000000000E+00 -0.45593999997E+02  0.45594000000E+02  0.51100000000E-03 0.  1.
    9900012    2    1    2    0    0  0.32313429138E+00 -0.54811646713E+00 -0.99408267096E+00  0.90007725545E+02  0.89999986722E+02 0.  0.
         12    1    1    2    0    0 -0.32313429138E+00  0.54811646713E+00  0.99408267096E+00  0.11802744547E+01  0.00000000000E+00 0. -1.
         11    1    3    3    0    0  0.39244700125E+02  0.39606886560E+01 -0.10901888556E+01  0.39459118775E+02  0.51100000000E-03 0. -1.
        -11    1    3    3    0    0 -0.98069668344E+00  0.98739525503E+01 -0.87876260818E+00  0.99613718399E+01  0.51100000000E-03 0.  1.
        -12    1    3    3    0    0 -0.37940869150E+02 -0.14382757673E+02  0.97486879286E+00  0.40587234930E+02  0.00000000000E+00 0.  1.
</event>
<event>
 7    1  0.4008281E-015  0.9000771E+02  0.7816164E-02  0.1186339E+00
        -11   -1    0    0    0    0  0.00000000000E+00  0.00000000000E+00  0.45593999997E+02  0.45594000000E+02  0.51100000000E-03 0.  1.
         11   -1    0    0    0    0 -0.00000000000E+00 -0.00000000000E+00 -0.45593999997E+02  0.45594000000E+02  0.51100000000E-03 0. -1.
    9900012    2    1    2    0    0 -0.22773024695E+00  0.11552573469E+01  0.81305665008E-01  0.90007707149E+02  0.89999968083E+02 0.  0.
         12    1    1    2    0    0  0.22773024695E+00 -0.11552573469E+01 -0.81305665008E-01  0.11802928510E+01  0.00000000000E+00 0. -1.
         11    1    3    3    0    0  0.26111303491E+02  0.28506298765E+02  0.15431580939E+01  0.38688377795E+02  0.51100000000E-03 0. -1.
        -11    1    3    3    0    0 -0.41845679830E+01  0.83103969977E+01 -0.67853119530E+00  0.93291860475E+01  0.51100000000E-03 0.  1.
        -12    1    3    3    0    0 -0.22154465755E+02 -0.35661438416E+02 -0.78332123360E+00  0.41990143306E+02  0.00000000000E+00 0.  1.
</event>
<event>
 7    1  0.4008281E-015  0.9000770E+02  0.7816164E-02  0.1186339E+00
        -11   -1    0    0    0    0  0.00000000000E+00  0.00000000000E+00  0.45593999997E+02  0.45594000000E+02  0.51100000000E-03 0.  1.
         11   -1    0    0    0    0 -0.00000000000E+00 -0.00000000000E+00 -0.45593999997E+02  0.45594000000E+02  0.51100000000E-03 0. -1.
    9900012    2    1    2    0    0  0.16012464109E+00  0.26167111478E+00  0.11397363596E+01  0.90007698919E+02  0.89999959744E+02 0.  0.
         12    1    1    2    0    0 -0.16012464109E+00 -0.26167111478E+00 -0.11397363596E+01  0.11803010813E+01  0.00000000000E+00 0. -1.
         11    1    3    3    0    0  0.66576843502E+01  0.98425598019E+01 -0.20570948490E+02  0.23756360546E+02  0.51100000000E-03 0. -1.
        -11    1    3    3    0    0  0.24286916874E+02 -0.16459820747E+02  0.27975514153E+01  0.29472127925E+02  0.51100000000E-03 0.  1.
         12    1    3    3    0    0 -0.30784476583E+02  0.68789320596E+01  0.18913133434E+02  0.36779210447E+02  0.00000000000E+00 0. -1.
</event>
<event>
 7    1  0.4008281E-015  0.9000769E+02  0.7816164E-02  0.1186339E+00
        -11   -1    0    0    0    0  0.00000000000E+00  0.00000000000E+00  0.45593999997E+02  0.45594000000E+02  0.51100000000E-03 0.  1.
         11   -1    0    0    0    0 -0.00000000000E+00 -0.00000000000E+00 -0.45593999997E+02  0.45594000000E+02  0.51100000000E-03 0. -1.
    9900012    2    1    2    0    0  0.11576457641E+01 -0.19967570694E+00 -0.11451912406E+00  0.90007691255E+02  0.89999951980E+02 0.  0.
         12    1    1    2    0    0 -0.11576457641E+01  0.19967570694E+00  0.11451912406E+00  0.11803087448E+01  0.00000000000E+00 0. -1.
         11    1    3    3    0    0  0.37558216835E+02  0.85229404329E+00 -0.10035805577E+02  0.38885260071E+02  0.51100000000E-03 0. -1.
        -11    1    3    3    0    0  0.16311276458E+01 -0.74997998202E+01 -0.56430464611E+01  0.95263607093E+01  0.51100000000E-03 0.  1.
        -12    1    3    3    0    0 -0.38031698717E+02  0.64478300699E+01  0.15564332914E+02  0.41596070475E+02  0.00000000000E+00 0.  1.
</event>
<event>
 7    1  0.4011669E-015  0.9000761E+02  0.7816164E-02  0.1186339E+00
        -11   -1    0    0    0    0  0.00000000000E+00  0.00000000000E+00  0.45593999997E+02  0.45594000000E+02  0.51100000000E-03 0. -1.
         11   -1    0    0    0    0 -0.00000000000E+00 -0.00000000000E+00 -0.45593999997E+02  0.45594000000E+02  0.51100000000E-03 0.  1.
    9900012    2    1    2    0    0 -0.10639108246E+01 -0.25757204175E+00 -0.44165776623E+00  0.90007613969E+02  0.89999873673E+02 0.  0.
         12    1    1    2    0    0  0.10639108246E+01  0.25757204175E+00  0.44165776623E+00  0.11803860308E+01  0.00000000000E+00 0. -1.
         11    1    3    3    0    0 -0.73799216839E+01 -0.50026462922E+01  0.38242612564E+01  0.97012725147E+01  0.51100000000E-03 0. -1.
        -11    1    3    3    0    0 -0.36009082630E+02 -0.56532708626E+01 -0.44616620306E+01  0.36722199439E+02  0.51100000000E-03 0.  1.
         12    1    3    3    0    0  0.42325093489E+02  0.10398345113E+02  0.19574300802E+00  0.43584142016E+02  0.00000000000E+00 0. -1.
</event>
<event>
 7    1  0.4008281E-015  0.9000779E+02  0.7816164E-02  0.1186339E+00
        -11   -1    0    0    0    0  0.00000000000E+00  0.00000000000E+00  0.45593999997E+02  0.45594000000E+02  0.51100000000E-03 0.  1.
         11   -1    0    0    0    0 -0.00000000000E+00 -0.00000000000E+00 -0.45593999997E+02  0.45594000000E+02  0.51100000000E-03 0. -1.
    9900012    2    1    2    0    0  0.53647236964E+00  0.10416357668E+01  0.14174667167E+00  0.90007788242E+02  0.90000050247E+02 0.  0.
         12    1    1    2    0    0 -0.53647236964E+00 -0.10416357668E+01 -0.14174667167E+00  0.11802117577E+01  0.00000000000E+00 0. -1.
         11    1    3    3    0    0  0.90933813918E+01 -0.22365946504E+01  0.25922002500E+01  0.97165551079E+01  0.51100000000E-03 0. -1.
        -11    1    3    3    0    0  0.10494535057E+02  0.28509393301E+02  0.24279698783E+02  0.38889902876E+02  0.51100000000E-03 0.  1.
         12    1    3    3    0    0 -0.19051444079E+02 -0.25231162883E+02 -0.26730152361E+02  0.41401330259E+02  0.00000000000E+00 0. -1.
</event>
<event>
 7    1  0.4008281E-015  0.9000778E+02  0.7816164E-02  0.1186339E+00
        -11   -1    0    0    0    0  0.00000000000E+00  0.00000000000E+00  0.45593999997E+02  0.45594000000E+02  0.51100000000E-03 0. -1.
         11   -1    0    0    0    0 -0.00000000000E+00 -0.00000000000E+00 -0.45593999997E+02  0.45594000000E+02  0.51100000000E-03 0.  1.
    9900012    2    1    2    0    0  0.33114589686E+00 -0.76778763101E+00  0.83293159984E+00  0.90007775233E+02  0.90000037066E+02 0.  0.
         12    1    1    2    0    0 -0.33114589686E+00  0.76778763101E+00 -0.83293159984E+00  0.11802247673E+01  0.00000000000E+00 0. -1.
         11    1    3    3    0    0  0.21045333408E+02 -0.36532968367E+02 -0.44893074845E+01  0.42399501387E+02  0.51100000000E-03 0. -1.
        -11    1    3    3    0    0  0.19654402843E+01 -0.31592079322E+00  0.45698450440E+01  0.49846008312E+01  0.51100000000E-03 0.  1.
        -12    1    3    3    0    0 -0.22679627795E+02  0.36081101529E+02  0.75239404029E+00  0.42623673015E+02  0.00000000000E+00 0.  1.
</event>
<event>
 7    1  0.4008281E-015  0.9000725E+02  0.7816164E-02  0.1186340E+00
        -11   -1    0    0    0    0  0.00000000000E+00  0.00000000000E+00  0.45593999997E+02  0.45594000000E+02  0.51100000000E-03 0.  1.
         11   -1    0    0    0    0 -0.00000000000E+00 -0.00000000000E+00 -0.45593999997E+02  0.45594000000E+02  0.51100000000E-03 0. -1.
    9900012    2    1    2    0    0 -0.71727699174E+00  0.32721882156E+00  0.87898143869E+00  0.90007251589E+02  0.89999506509E+02 0.  0.
         12    1    1    2    0    0  0.71727699174E+00 -0.32721882156E+00 -0.87898143869E+00  0.11807484108E+01  0.00000000000E+00 0. -1.
         11    1    3    3    0    0  0.74924532146E+01  0.28656594238E+02 -0.27889927533E+02  0.40683968667E+02  0.51100000000E-03 0. -1.
        -11    1    3    3    0    0  0.54367673034E+01 -0.16385670738E+00 -0.16448239689E+01  0.56824936323E+01  0.51100000000E-03 0.  1.
        -12    1    3    3    0    0 -0.13646497510E+02 -0.28165518709E+02  0.30413732940E+02  0.43640789289E+02  0.00000000000E+00 0.  1.
</event>
<event>
 7    1  0.4008281E-015  0.9000739E+02  0.7816164E-02  0.1186340E+00
        -11   -1    0    0    0    0  0.00000000000E+00  0.00000000000E+00  0.45593999997E+02  0.45594000000E+02  0.51100000000E-03 0.  1.
         11   -1    0    0    0    0 -0.00000000000E+00 -0.00000000000E+00 -0.45593999997E+02  0.45594000000E+02  0.51100000000E-03 0. -1.
    9900012    2    1    2    0    0 -0.28011742696E+00 -0.10828675983E+01 -0.37786173095E+00  0.90007386814E+02  0.89999643519E+02 0.  0.
         12    1    1    2    0    0  0.28011742696E+00  0.10828675983E+01  0.37786173095E+00  0.11806131865E+01  0.00000000000E+00 0. -1.
         11    1    3    3    0    0 -0.33069059287E+01 -0.67700463767E+01  0.44246225273E+01  0.87376449650E+01  0.51100000000E-03 0. -1.
        -11    1    3    3    0    0 -0.38250228045E+02 -0.45536883833E+01 -0.40728705473E+01  0.38735052577E+02  0.51100000000E-03 0.  1.
         12    1    3    3    0    0  0.41277016547E+02  0.10240867162E+02 -0.72961371102E+00  0.42534689271E+02  0.00000000000E+00 0. -1.
</event>
<event>
 7    1  0.4008281E-015  0.9000772E+02  0.7816164E-02  0.1186339E+00
        -11   -1    0    0    0    0  0.00000000000E+00  0.00000000000E+00  0.45593999997E+02  0.45594000000E+02  0.51100000000E-03 0. -1.
         11   -1    0    0    0    0 -0.00000000000E+00 -0.00000000000E+00 -0.45593999997E+02  0.45594000000E+02  0.51100000000E-03 0.  1.
    9900012    2    1    2    0    0 -0.95109169961E+00  0.69888779168E+00 -0.54386484639E-02  0.90007724970E+02  0.89999986140E+02 0.  0.
         12    1    1    2    0    0  0.95109169961E+00 -0.69888779168E+00  0.54386484639E-02  0.11802750295E+01  0.00000000000E+00 0. -1.
         11    1    3    3    0    0  0.39956269081E+01  0.75927929968E+01 -0.35251417478E+01  0.92758915735E+01  0.51100000000E-03 0. -1.
        -11    1    3    3    0    0 -0.86002672871E+01  0.36296073052E+02  0.10014466482E+01  0.37314506724E+02  0.51100000000E-03 0.  1.
         12    1    3    3    0    0  0.36535486794E+01 -0.43189978258E+02  0.25182564511E+01  0.43417326673E+02  0.00000000000E+00 0. -1.
</event>
<event>
 7    1  0.4008281E-015  0.9000774E+02  0.7816164E-02  0.1186339E+00
        -11   -1    0    0    0    0  0.00000000000E+00  0.00000000000E+00  0.45593999997E+02  0.45594000000E+02  0.51100000000E-03 0. -1.
         11   -1    0    0    0    0 -0.00000000000E+00 -0.00000000000E+00 -0.45593999997E+02  0.45594000000E+02  0.51100000000E-03 0.  1.
    9900012    2    1    2    0    0 -0.74650586838E+00 -0.47505069137E+00 -0.78106472091E+00  0.90007743134E+02  0.90000004544E+02 0.  0.
         12    1    1    2    0    0  0.74650586838E+00  0.47505069137E+00  0.78106472091E+00  0.11802568658E+01  0.00000000000E+00 0. -1.
         11    1    3    3    0    0 -0.26672630546E+01 -0.27739798207E+01 -0.84610052772E+01  0.92950452828E+01  0.51100000000E-03 0. -1.
        -11    1    3    3    0    0  0.13735703828E+02 -0.35559353782E+02 -0.63496095924E+01  0.38645242182E+02  0.51100000000E-03 0.  1.
         12    1    3    3    0    0 -0.11814946642E+02  0.37858282911E+02  0.14029550149E+02  0.42067455670E+02  0.00000000000E+00 0. -1.
</event>
<event>
 7    1  0.4008281E-015  0.9000778E+02  0.7816164E-02  0.1186339E+00
        -11   -1    0    0    0    0  0.00000000000E+00  0.00000000000E+00  0.45593999997E+02  0.45594000000E+02  0.51100000000E-03 0. -1.
         11   -1    0    0    0    0 -0.00000000000E+00 -0.00000000000E+00 -0.45593999997E+02  0.45594000000E+02  0.51100000000E-03 0.  1.
    9900012    2    1    2    0    0  0.27726085766E+00 -0.42185634344E-01 -0.11464131313E+01  0.90007781258E+02  0.90000043171E+02 0.  0.
         12    1    1    2    0    0 -0.27726085766E+00  0.42185634344E-01  0.11464131313E+01  0.11802187418E+01  0.00000000000E+00 0. -1.
         11    1    3    3    0    0 -0.15486096325E+02  0.33401429329E+02  0.43324472168E+01  0.37070807379E+02  0.51100000000E-03 0. -1.
        -11    1    3    3    0    0  0.75172148423E+00  0.24888118374E+01  0.10519983373E+02  0.10836480978E+02  0.51100000000E-03 0.  1.
        -12    1    3    3    0    0  0.15011635698E+02 -0.35932426801E+02 -0.15998843721E+02  0.42100492901E+02  0.00000000000E+00 0.  1.
</event>
<event>
 7    1  0.4008281E-015  0.9000786E+02  0.7816164E-02  0.1186339E+00
        -11   -1    0    0    0    0  0.00000000000E+00  0.00000000000E+00  0.45593999997E+02  0.45594000000E+02  0.51100000000E-03 0.  1.
         11   -1    0    0    0    0 -0.00000000000E+00 -0.00000000000E+00 -0.45593999997E+02  0.45594000000E+02  0.51100000000E-03 0. -1.
    9900012    2    1    2    0    0  0.73286948641E+00  0.17062884789E+00  0.90912906076E+00  0.90007861221E+02  0.90000124189E+02 0.  0.
         12    1    1    2    0    0 -0.73286948641E+00 -0.17062884789E+00 -0.90912906076E+00  0.11801387787E+01  0.00000000000E+00 0. -1.
         11    1    3    3    0    0 -0.57396669197E+01  0.79658087510E+01  0.10825134225E+01  0.98777386571E+01  0.51100000000E-03 0. -1.
        -11    1    3    3    0    0 -0.21446279788E+02  0.27334588539E+02  0.44165916263E+01  0.35023262686E+02  0.51100000000E-03 0.  1.
         12    1    3    3    0    0  0.27918816194E+02 -0.35129768442E+02 -0.45899759880E+01  0.45106859878E+02  0.00000000000E+00 0. -1.
</event>
<event>
 7    1  0.4008281E-015  0.9000774E+02  0.7816164E-02  0.1186339E+00
        -11   -1    0    0    0    0  0.00000000000E+00  0.00000000000E+00  0.45593999997E+02  0.45594000000E+02  0.51100000000E-03 0.  1.
         11   -1    0    0    0    0 -0.00000000000E+00 -0.00000000000E+00 -0.45593999997E+02  0.45594000000E+02  0.51100000000E-03 0. -1.
    9900012    2    1    2    0    0  0.54028142048E+00 -0.85133118764E+00  0.61347001890E+00  0.90007739745E+02  0.90000001110E+02 0.  0.
         12    1    1    2    0    0 -0.54028142048E+00  0.85133118764E+00 -0.61347001890E+00  0.11802602545E+01  0.00000000000E+00 0. -1.
         11    1    3    3    0    0  0.12483386358E+02  0.11758196501E+02 -0.15559630813E+01  0.17219498869E+02  0.51100000000E-03 0. -1.
        -11    1    3    3    0    0  0.13081599423E+02 -0.28352258569E+02  0.21097073756E+02  0.37683754202E+02  0.51100000000E-03 0.  1.
         12    1    3    3    0    0 -0.25024704361E+02  0.15742730880E+02 -0.18927640656E+02  0.35104486675E+02  0.00000000000E+00 0. -1.
</event>
<event>
 7    1  0.4008281E-015  0.9000771E+02  0.7816164E-02  0.1186339E+00
        -11   -1    0    0    0    0  0.00000000000E+00  0.00000000000E+00  0.45593999997E+02  0.45594000000E+02  0.51100000000E-03 0. -1.
         11   -1    0    0    0    0 -0.00000000000E+00 -0.00000000000E+00 -0.45593999997E+02  0.45594000000E+02  0.51100000000E-03 0.  1.
    9900012    2    1    2    0    0  0.12630746218E-01 -0.47831309840E+00 -0.10789539726E+01  0.90007709938E+02  0.89999970909E+02 0.  0.
         12    1    1    2    0    0 -0.12630746218E-01  0.47831309840E+00  0.10789539726E+01  0.11802900621E+01  0.00000000000E+00 0. -1.
         11    1    3    3    0    0 -0.14087636183E+02  0.35075560754E+02  0.73911647148E+01  0.38514747455E+02  0.51100000000E-03 0. -1.
        -11    1    3    3    0    0 -0.68555166029E+01  0.11364531351E+01 -0.59777484860E+01  0.91664121031E+01  0.51100000000E-03 0.  1.
        -12    1    3    3    0    0  0.20955783532E+02 -0.36690326987E+02 -0.24923702013E+01  0.42326550380E+02  0.00000000000E+00 0.  1.
</event>
<event>
 7    1  0.4008281E-015  0.9000771E+02  0.7816164E-02  0.1186339E+00
        -11   -1    0    0    0    0  0.00000000000E+00  0.00000000000E+00  0.45593999997E+02  0.45594000000E+02  0.51100000000E-03 0.  1.
         11   -1    0    0    0    0 -0.00000000000E+00 -0.00000000000E+00 -0.45593999997E+02  0.45594000000E+02  0.51100000000E-03 0. -1.
    9900012    2    1    2    0    0  0.39572907380E+00  0.64486235604E+00  0.90589189720E+00  0.90007708050E+02  0.89999968996E+02 0.  0.
         12    1    1    2    0    0 -0.39572907380E+00 -0.64486235604E+00 -0.90589189720E+00  0.11802919501E+01  0.00000000000E+00 0. -1.
         11    1    3    3    0    0  0.23864406465E+02 -0.31004745909E+02 -0.24688583195E+01  0.39203308872E+02  0.51100000000E-03 0. -1.
        -11    1    3    3    0    0 -0.18358180142E+01 -0.21587892470E+01 -0.84899199491E+01  0.89503821034E+01  0.51100000000E-03 0.  1.
        -12    1    3    3    0    0 -0.21632859377E+02  0.33808397512E+02  0.11864670166E+02  0.41854017075E+02  0.00000000000E+00 0.  1.
</event>
<event>
 7    1  0.4008281E-015  0.9000776E+02  0.7816164E-02  0.1186339E+00
        -11   -1    0    0    0    0  0.00000000000E+00  0.00000000000E+00  0.45593999997E+02  0.45594000000E+02  0.51100000000E-03 0. -1.
         11   -1    0    0    0    0 -0.00000000000E+00 -0.00000000000E+00 -0.45593999997E+02  0.45594000000E+02  0.51100000000E-03 0.  1.
    9900012    2    1    2    0    0 -0.99488126186E+00  0.50690832706E+00 -0.38238224019E+00  0.90007762331E+02  0.90000023994E+02 0.  0.
         12    1    1    2    0    0  0.99488126186E+00 -0.50690832706E+00  0.38238224019E+00  0.11802376688E+01  0.00000000000E+00 0. -1.
         11    1    3    3    0    0 -0.44297398639E+01  0.58256632744E+01 -0.78628483214E+01  0.10741756459E+02  0.51100000000E-03 0. -1.
        -11    1    3    3    0    0 -0.11559001219E+02  0.34432545419E+02  0.13989820138E+01  0.36347872622E+02  0.51100000000E-03 0.  1.
         12    1    3    3    0    0  0.14993859821E+02 -0.39751300366E+02  0.60814840674E+01  0.42918133250E+02  0.00000000000E+00 0. -1.
</event>
<event>
 7    1  0.4008281E-015  0.9000775E+02  0.7816164E-02  0.1186339E+00
        -11   -1    0    0    0    0  0.00000000000E+00  0.00000000000E+00  0.45593999997E+02  0.45594000000E+02  0.51100000000E-03 0.  1.
         11   -1    0    0    0    0 -0.00000000000E+00 -0.00000000000E+00 -0.45593999997E+02  0.45594000000E+02  0.51100000000E-03 0. -1.
    9900012    2    1    2    0    0 -0.63249441842E+00  0.97424292913E+00 -0.20928269400E+00  0.90007746756E+02  0.90000008213E+02 0.  0.
         12    1    1    2    0    0  0.63249441842E+00 -0.97424292913E+00  0.20928269400E+00  0.11802532441E+01  0.00000000000E+00 0. -1.
         11    1    3    3    0    0  0.53301755434E+01  0.38135568778E+02  0.29819111825E+01  0.38621550615E+02  0.51100000000E-03 0. -1.
        -11    1    3    3    0    0  0.12065329888E+02 -0.26561771872E+01 -0.58098246498E+00  0.12367902144E+02  0.51100000000E-03 0.  1.
        -12    1    3    3    0    0 -0.18027999850E+02 -0.34505148662E+02 -0.26102114116E+01  0.39018293996E+02  0.00000000000E+00 0.  1.
</event>
<event>
 7    1  0.4008281E-015  0.9000783E+02  0.7816164E-02  0.1186339E+00
        -11   -1    0    0    0    0  0.00000000000E+00  0.00000000000E+00  0.45593999997E+02  0.45594000000E+02  0.51100000000E-03 0.  1.
         11   -1    0    0    0    0 -0.00000000000E+00 -0.00000000000E+00 -0.45593999997E+02  0.45594000000E+02  0.51100000000E-03 0. -1.
    9900012    2    1    2    0    0  0.34908393732E+00  0.49284061698E+00  0.10139235884E+01  0.90007833693E+02  0.90000096298E+02 0.  0.
         12    1    1    2    0    0 -0.34908393732E+00 -0.49284061698E+00 -0.10139235884E+01  0.11801663069E+01  0.00000000000E+00 0. -1.
         11    1    3    3    0    0 -0.19869334602E+01  0.41615459264E+01  0.42648064658E+01  0.62813170215E+01  0.51100000000E-03 0. -1.
        -11    1    3    3    0    0  0.91729446665E+01 -0.56182625760E+01  0.39218118302E+02  0.40666553722E+02  0.51100000000E-03 0.  1.
         12    1    3    3    0    0 -0.68369272690E+01  0.19495572665E+01 -0.42469001179E+02  0.43059962949E+02  0.00000000000E+00 0. -1.
</event>
<event>
 7    1  0.4008281E-015  0.9000716E+02  0.7816164E-02  0.1186340E+00
        -11   -1    0    0    0    0  0.00000000000E+00  0.00000000000E+00  0.45593999997E+02  0.45594000000E+02  0.51100000000E-03 0. -1.
         11   -1    0    0    0    0 -0.00000000000E+00 -0.00000000000E+00 -0.45593999997E+02  0.45594000000E+02  0.51100000000E-03 0.  1.
    9900012    2    1    2    0    0  0.39424958824E+00  0.31929607330E+00 -0.10663055197E+01  0.90007157004E+02  0.89999410674E+02 0.  0.
         12    1    1    2    0    0 -0.39424958824E+00 -0.31929607330E+00  0.10663055197E+01  0.11808429962E+01  0.00000000000E+00 0. -1.
         11    1    3    3    0    0  0.32201271116E+02  0.24737102565E+02 -0.55771920770E+01  0.40987207474E+02  0.51100000000E-03 0. -1.
        -11    1    3    3    0    0  0.37992016273E+01 -0.44572668602E+01  0.57145931009E+01  0.81827706456E+01  0.51100000000E-03 0.  1.
        -12    1    3    3    0    0 -0.35606223156E+02 -0.19960539631E+02 -0.12037065436E+01  0.40837178884E+02  0.00000000000E+00 0.  1.
</event>
<event>
 7    1  0.4008281E-015  0.9000775E+02  0.7816164E-02  0.1186339E+00
        -11   -1    0    0    0    0  0.00000000000E+00  0.00000000000E+00  0.45593999997E+02  0.45594000000E+02  0.51100000000E-03 0.  1.
         11   -1    0    0    0    0 -0.00000000000E+00 -0.00000000000E+00 -0.45593999997E+02  0.45594000000E+02  0.51100000000E-03 0. -1.
    9900012    2    1    2    0    0 -0.96016816068E+00 -0.12105242885E+00  0.67559158873E+00  0.90007745544E+02  0.90000006985E+02 0.  0.
         12    1    1    2    0    0  0.96016816068E+00  0.12105242885E+00 -0.67559158873E+00  0.11802544565E+01  0.00000000000E+00 0. -1.
         11    1    3    3    0    0 -0.18705052823E+02  0.23339056799E+02 -0.21853423244E+02  0.37042714279E+02  0.51100000000E-03 0. -1.
        -11    1    3    3    0    0 -0.80480549434E+01  0.47244948408E+01  0.18203320963E+01  0.95081885275E+01  0.51100000000E-03 0.  1.
        -12    1    3    3    0    0  0.25792939605E+02 -0.28184604069E+02  0.20708682737E+02  0.43456842737E+02  0.00000000000E+00 0.  1.
</event>
<event>
 7    1  0.4008281E-015  0.9000776E+02  0.7816164E-02  0.1186339E+00
        -11   -1    0    0    0    0  0.00000000000E+00  0.00000000000E+00  0.45593999997E+02  0.45594000000E+02  0.51100000000E-03 0. -1.
         11   -1    0    0    0    0 -0.00000000000E+00 -0.00000000000E+00 -0.45593999997E+02  0.45594000000E+02  0.51100000000E-03 0.  1.
    9900012    2    1    2    0    0 -0.68580222979E+00 -0.60750110701E+00 -0.74403959842E+00  0.90007755442E+02  0.90000017014E+02 0.  0.
         12    1    1    2    0    0  0.68580222979E+00  0.60750110701E+00  0.74403959842E+00  0.11802445583E+01  0.00000000000E+00 0. -1.
         11    1    3    3    0    0  0.27693946538E+02  0.75900318614E+01  0.22594470356E+02  0.36538655550E+02  0.51100000000E-03 0. -1.
        -11    1    3    3    0    0  0.58617437541E+01 -0.34500995967E+01  0.52644208884E+01  0.86010089302E+01  0.51100000000E-03 0.  1.
        -12    1    3    3    0    0 -0.34241492522E+02 -0.47474333717E+01 -0.28602930843E+02  0.44868090961E+02  0.00000000000E+00 0.  1.
</event>
<event>
 7    1  0.4008281E-015  0.9000778E+02  0.7816164E-02  0.1186339E+00
        -11   -1    0    0    0    0  0.00000000000E+00  0.00000000000E+00  0.45593999997E+02  0.45594000000E+02  0.51100000000E-03 0. -1.
         11   -1    0    0    0    0 -0.00000000000E+00 -0.00000000000E+00 -0.45593999997E+02  0.45594000000E+02  0.51100000000E-03 0.  1.
    9900012    2    1    2    0    0  0.47148481726E+00 -0.35480915209E+00 -0.10221229341E+01  0.90007778512E+02  0.90000040389E+02 0.  0.
         12    1    1    2    0    0 -0.47148481726E+00  0.35480915209E+00  0.10221229341E+01  0.11802214876E+01  0.00000000000E+00 0. -1.
         11    1    3    3    0    0  0.68084906054E+01  0.15593425048E+02 -0.34351346906E+00  0.17018473809E+02  0.51100000000E-03 0. -1.
        -11    1    3    3    0    0  0.14034137916E+02  0.61018358458E+01 -0.28314709702E+02  0.32185590153E+02  0.51100000000E-03 0.  1.
         12    1    3    3    0    0 -0.20371143704E+02 -0.22050070045E+02  0.27636100237E+02  0.40803714550E+02  0.00000000000E+00 0. -1.
</event>
<event>
 7    1  0.4008281E-015  0.9000768E+02  0.7816164E-02  0.1186339E+00
        -11   -1    0    0    0    0  0.00000000000E+00  0.00000000000E+00  0.45593999997E+02  0.45594000000E+02  0.51100000000E-03 0.  1.
         11   -1    0    0    0    0 -0.00000000000E+00 -0.00000000000E+00 -0.45593999997E+02  0.45594000000E+02  0.51100000000E-03 0. -1.
    9900012    2    1    2    0    0  0.16135562824E+00  0.11353679589E+01 -0.27939963122E+00  0.90007677928E+02  0.89999938476E+02 0.  0.
         12    1    1    2    0    0 -0.16135562824E+00 -0.11353679589E+01  0.27939963122E+00  0.11803220725E+01  0.00000000000E+00 0. -1.
         11    1    3    3    0    0  0.18653506437E+02  0.34019671165E+02 -0.18639714638E+02  0.43043353617E+02  0.51100000000E-03 0. -1.
        -11    1    3    3    0    0 -0.91368380472E+01 -0.21850231132E+01 -0.10579190706E+01  0.94538525759E+01  0.51100000000E-03 0.  1.
        -12    1    3    3    0    0 -0.93553127619E+01 -0.30699280092E+02  0.19418234077E+02  0.37510471735E+02  0.00000000000E+00 0.  1.
</event>
<event>
 7    1  0.4008281E-015  0.9000773E+02  0.7816164E-02  0.1186339E+00
        -11   -1    0    0    0    0  0.00000000000E+00  0.00000000000E+00  0.45593999997E+02  0.45594000000E+02  0.51100000000E-03 0.  1.
         11   -1    0    0    0    0 -0.00000000000E+00 -0.00000000000E+00 -0.45593999997E+02  0.45594000000E+02  0.51100000000E-03 0. -1.
    9900012    2    1    2    0    0 -0.33170516902E+00  0.76734993451E+00  0.83317598419E+00  0.90007730344E+02  0.89999991584E+02 0.  0.
         12    1    1    2    0    0  0.33170516902E+00 -0.76734993451E+00 -0.83317598419E+00  0.11802696564E+01  0.00000000000E+00 0. -1.
         11    1    3    3    0    0  0.34048217433E+01  0.83186619449E+01  0.54022110068E+01  0.10486983917E+02  0.51100000000E-03 0. -1.
        -11    1    3    3    0    0 -0.21139132716E+02  0.27721276451E+02  0.11960905787E+02  0.36856415555E+02  0.51100000000E-03 0.  1.
         12    1    3    3    0    0  0.17402605803E+02 -0.35272588462E+02 -0.16529940809E+02  0.42664330871E+02  0.00000000000E+00 0. -1.
</event>
<event>
 7    1  0.4008281E-015  0.9000777E+02  0.7816164E-02  0.1186339E+00
        -11   -1    0    0    0    0  0.00000000000E+00  0.00000000000E+00  0.45593999997E+02  0.45594000000E+02  0.51100000000E-03 0.  1.
         11   -1    0    0    0    0 -0.00000000000E+00 -0.00000000000E+00 -0.45593999997E+02  0.45594000000E+02  0.51100000000E-03 0. -1.
    9900012    2    1    2    0    0 -0.63976678148E+00  0.89235536012E-01  0.98776852547E+00  0.90007766474E+02  0.90000028192E+02 0.  0.
         12    1    1    2    0    0  0.63976678148E+00 -0.89235536012E-01 -0.98776852547E+00  0.11802335258E+01  0.00000000000E+00 0. -1.
         11    1    3    3    0    0 -0.51839705117E+01 -0.21122679165E+02 -0.24507615954E+02  0.32766818054E+02  0.51100000000E-03 0. -1.
        -11    1    3    3    0    0  0.14799847617E+02 -0.61727534620E+01 -0.31097909039E+01  0.16334294430E+02  0.51100000000E-03 0.  1.
        -12    1    3    3    0    0 -0.10255643887E+02  0.27384668163E+02  0.28605175383E+02  0.40906653990E+02  0.00000000000E+00 0.  1.
</event>
<event>
 7    1  0.4008281E-015  0.9000762E+02  0.7816164E-02  0.1186339E+00
        -11   -1    0    0    0    0  0.00000000000E+00  0.00000000000E+00  0.45593999997E+02  0.45594000000E+02  0.51100000000E-03 0. -1.
         11   -1    0    0    0    0 -0.00000000000E+00 -0.00000000000E+00 -0.45593999997E+02  0.45594000000E+02  0.51100000000E-03 0.  1.
    9900012    2    1    2    0    0 -0.11463215158E+01 -0.28118292096E+00 -0.13232182195E-01  0.90007622118E+02  0.89999881930E+02 0.  0.
         12    1    1    2    0    0  0.11463215158E+01  0.28118292096E+00  0.13232182195E-01  0.11803778815E+01  0.00000000000E+00 0. -1.
         11    1    3    3    0    0  0.22053279923E+01  0.29391520660E+00 -0.95439269812E+01  0.97998163343E+01  0.51100000000E-03 0. -1.
        -11    1    3    3    0    0  0.93717199186E+01 -0.35032172049E+02 -0.11296574355E+02  0.37982822501E+02  0.51100000000E-03 0.  1.
         12    1    3    3    0    0 -0.12723369427E+02  0.34457073922E+02  0.20827269154E+02  0.42224983283E+02  0.00000000000E+00 0. -1.
</event>
<event>
 7    1  0.4008281E-015  0.9000778E+02  0.7816164E-02  0.1186339E+00
        -11   -1    0    0    0    0  0.00000000000E+00  0.00000000000E+00  0.45593999997E+02  0.45594000000E+02  0.51100000000E-03 0. -1.
         11   -1    0    0    0    0 -0.00000000000E+00 -0.00000000000E+00 -0.45593999997E+02  0.45594000000E+02  0.51100000000E-03 0.  1.
    9900012    2    1    2    0    0 -0.10420038697E+01 -0.42205859186E+00  0.35919999843E+00  0.90007775378E+02  0.90000037213E+02 0.  0.
         12    1    1    2    0    0  0.10420038697E+01  0.42205859186E+00 -0.35919999843E+00  0.11802246219E+01  0.00000000000E+00 0. -1.
         11    1    3    3    0    0  0.24856804266E+02 -0.13074001427E+01  0.32694079145E+02  0.41091030954E+02  0.51100000000E-03 0. -1.
        -11    1    3    3    0    0 -0.17113019958E+01 -0.89651417380E+01 -0.29239588604E+01  0.95839374258E+01  0.51100000000E-03 0.  1.
        -12    1    3    3    0    0 -0.24187506140E+02  0.98504832888E+01 -0.29410920286E+02  0.39332806998E+02  0.00000000000E+00 0.  1.
</event>
<event>
 7    1  0.4008281E-015  0.9000759E+02  0.7816164E-02  0.1186339E+00
        -11   -1    0    0    0    0  0.00000000000E+00  0.00000000000E+00  0.45593999997E+02  0.45594000000E+02  0.51100000000E-03 0.  1.
         11   -1    0    0    0    0 -0.00000000000E+00 -0.00000000000E+00 -0.45593999997E+02  0.45594000000E+02  0.51100000000E-03 0. -1.
    9900012    2    1    2    0    0 -0.25070224612E+00  0.99817138494E+00  0.57808146926E+00  0.90007586549E+02  0.89999845891E+02 0.  0.
         12    1    1    2    0    0  0.25070224612E+00 -0.99817138494E+00 -0.57808146926E+00  0.11804134509E+01  0.00000000000E+00 0. -1.
         11    1    3    3    0    0 -0.32067428289E+01  0.11105131882E+02  0.51726713322E+01  0.12663478300E+02  0.51100000000E-03 0. -1.
        -11    1    3    3    0    0 -0.11548485239E+02  0.12409495165E+02  0.29477972449E+02  0.34004616474E+02  0.51100000000E-03 0.  1.
         12    1    3    3    0    0  0.14504525822E+02 -0.22516455661E+02 -0.34072562312E+02  0.43339491776E+02  0.00000000000E+00 0. -1.
</event>
<event>
 7    1  0.4008281E-015  0.9000776E+02  0.7816164E-02  0.1186339E+00
        -11   -1    0    0    0    0  0.00000000000E+00  0.00000000000E+00  0.45593999997E+02  0.45594000000E+02  0.51100000000E-03 0. -1.
         11   -1    0    0    0    0 -0.00000000000E+00 -0.00000000000E+00 -0.45593999997E+02  0.45594000000E+02  0.51100000000E-03 0.  1.
    9900012    2    1    2    0    0 -0.94404956696E+00  0.69830304829E+00 -0.11875814061E+00  0.90007762639E+02  0.90000024306E+02 0.  0.
         12    1    1    2    0    0  0.94404956696E+00 -0.69830304829E+00  0.11875814061E+00  0.11802373609E+01  0.00000000000E+00 0. -1.
         11    1    3    3    0    0  0.13241094863E+02 -0.27522149053E+01 -0.64546642428E+01  0.14985458645E+02  0.51100000000E-03 0. -1.
        -11    1    3    3    0    0 -0.61625794442E+01  0.16825200971E+02 -0.30301782100E+02  0.35203164230E+02  0.51100000000E-03 0.  1.
         12    1    3    3    0    0 -0.80225649858E+01 -0.13374683017E+02  0.36637688202E+02  0.39819139764E+02  0.00000000000E+00 0. -1.
</event>
<event>
 7    1  0.4008281E-015  0.9000781E+02  0.7816164E-02  0.1186339E+00
        -11   -1    0    0    0    0  0.00000000000E+00  0.00000000000E+00  0.45593999997E+02  0.45594000000E+02  0.51100000000E-03 0.  1.
         11   -1    0    0    0    0 -0.00000000000E+00 -0.00000000000E+00 -0.45593999997E+02  0.45594000000E+02  0.51100000000E-03 0. -1.
    9900012    2    1    2    0    0  0.74869799661E+00  0.91084325730E+00 -0.51600899781E-01  0.90007810701E+02  0.90000073002E+02 0.  0.
         12    1    1    2    0    0 -0.74869799661E+00 -0.91084325730E+00  0.51600899781E-01  0.11801892994E+01  0.00000000000E+00 0. -1.
         11    1    3    3    0    0  0.32978730652E+02 -0.19486604912E+02  0.14427678161E+02  0.40932656203E+02  0.51100000000E-03 0. -1.
        -11    1    3    3    0    0 -0.92957990094E+01 -0.65778428945E+01 -0.48863474928E+01  0.12391783102E+02  0.51100000000E-03 0.  1.
        -12    1    3    3    0    0 -0.22934233646E+02  0.26975291064E+02 -0.95929315682E+01  0.36683371396E+02  0.00000000000E+00 0.  1.
</event>
<event>
 7    1  0.4008281E-015  0.9000772E+02  0.7816164E-02  0.1186339E+00
        -11   -1    0    0    0    0  0.00000000000E+00  0.00000000000E+00  0.45593999997E+02  0.45594000000E+02  0.51100000000E-03 0.  1.
         11   -1    0    0    0    0 -0.00000000000E+00 -0.00000000000E+00 -0.45593999997E+02  0.45594000000E+02  0.51100000000E-03 0. -1.
    9900012    2    1    2    0    0  0.57483693325E+00 -0.93763842841E+00 -0.42831240766E+00  0.90007722558E+02  0.89999983695E+02 0.  0.
         12    1    1    2    0    0 -0.57483693325E+00  0.93763842841E+00  0.42831240766E+00  0.11802774423E+01  0.00000000000E+00 0. -1.
         11    1    3    3    0    0 -0.52918853325E+01 -0.72303412650E+01  0.42314523518E+00  0.89700020809E+01  0.51100000000E-03 0. -1.
        -11    1    3    3    0    0 -0.56977612236E+01 -0.20380928574E+02  0.31241556281E+02  0.37734355322E+02  0.51100000000E-03 0.  1.
         12    1    3    3    0    0  0.11564483489E+02  0.26673631411E+02 -0.32093013923E+02  0.43303365154E+02  0.00000000000E+00 0. -1.
</event>
<event>
 7    1  0.4008281E-015  0.9000777E+02  0.7816164E-02  0.1186339E+00
        -11   -1    0    0    0    0  0.00000000000E+00  0.00000000000E+00  0.45593999997E+02  0.45594000000E+02  0.51100000000E-03 0.  1.
         11   -1    0    0    0    0 -0.00000000000E+00 -0.00000000000E+00 -0.45593999997E+02  0.45594000000E+02  0.51100000000E-03 0. -1.
    9900012    2    1    2    0    0  0.68525089018E+00 -0.92292405040E+00  0.26754605680E+00  0.90007771853E+02  0.90000033642E+02 0.  0.
         12    1    1    2    0    0 -0.68525089018E+00  0.92292405040E+00 -0.26754605680E+00  0.11802281465E+01  0.00000000000E+00 0. -1.
         11    1    3    3    0    0  0.17387357407E+01 -0.41109475469E+01 -0.83672129778E+01  0.94833193021E+01  0.51100000000E-03 0. -1.
        -11    1    3    3    0    0  0.24320981893E+02  0.25504882181E+02  0.24771555695E+02  0.43077130210E+02  0.51100000000E-03 0.  1.
         12    1    3    3    0    0 -0.25374466744E+02 -0.22316858685E+02 -0.16136796660E+02  0.37447322341E+02  0.00000000000E+00 0. -1.
</event>
<event>
 7    1  0.4008281E-015  0.9000778E+02  0.7816164E-02  0.1186339E+00
        -11   -1    0    0    0    0  0.00000000000E+00  0.00000000000E+00  0.45593999997E+02  0.45594000000E+02  0.51100000000E-03 0.  1.
         11   -1    0    0    0    0 -0.00000000000E+00 -0.00000000000E+00 -0.45593999997E+02  0.45594000000E+02  0.51100000000E-03 0. -1.
    9900012    2    1    2    0    0 -0.75128589862E+00  0.67162496137E+00  0.61434140267E+00  0.90007777161E+02  0.90000039020E+02 0.  0.
         12    1    1    2    0    0  0.75128589862E+00 -0.67162496137E+00 -0.61434140267E+00  0.11802228388E+01  0.00000000000E+00 0. -1.
         11    1    3    3    0    0  0.52722636488E+01 -0.59694532686E+01 -0.40973840102E+01  0.89565446628E+01  0.51100000000E-03 0. -1.
        -11    1    3    3    0    0  0.36240045767E+02  0.97767272025E+01  0.85528903159E+01  0.38497756363E+02  0.51100000000E-03 0.  1.
         12    1    3    3    0    0 -0.42263595314E+02 -0.31356489725E+01 -0.38411649030E+01  0.42553476135E+02  0.00000000000E+00 0. -1.
</event>
<event>
 7    1  0.4008281E-015  0.9000768E+02  0.7816164E-02  0.1186339E+00
        -11   -1    0    0    0    0  0.00000000000E+00  0.00000000000E+00  0.45593999997E+02  0.45594000000E+02  0.51100000000E-03 0.  1.
         11   -1    0    0    0    0 -0.00000000000E+00 -0.00000000000E+00 -0.45593999997E+02  0.45594000000E+02  0.51100000000E-03 0. -1.
    9900012    2    1    2    0    0 -0.42120430314E+00 -0.10922432488E+01 -0.15085076314E+00  0.90007676175E+02  0.89999936700E+02 0.  0.
         12    1    1    2    0    0  0.42120430314E+00  0.10922432488E+01  0.15085076314E+00  0.11803238252E+01  0.00000000000E+00 0. -1.
         11    1    3    3    0    0  0.68956711886E+01 -0.66006069167E+01  0.34454378062E+01  0.10148366112E+02  0.51100000000E-03 0. -1.
        -11    1    3    3    0    0  0.38813709233E+01  0.13688036399E+01  0.37161606875E+02  0.37388817706E+02  0.51100000000E-03 0.  1.
         12    1    3    3    0    0 -0.11198246415E+02  0.41395600280E+01 -0.40757895444E+02  0.42470492357E+02  0.00000000000E+00 0. -1.
</event>
<event>
 7    1  0.4008281E-015  0.9000785E+02  0.7816164E-02  0.1186339E+00
        -11   -1    0    0    0    0  0.00000000000E+00  0.00000000000E+00  0.45593999997E+02  0.45594000000E+02  0.51100000000E-03 0.  1.
         11   -1    0    0    0    0 -0.00000000000E+00 -0.00000000000E+00 -0.45593999997E+02  0.45594000000E+02  0.51100000000E-03 0. -1.
    9900012    2    1    2    0    0 -0.75489822003E+00  0.60813499043E+00 -0.67308763359E+00  0.90007853208E+02  0.90000116070E+02 0.  0.
         12    1    1    2    0    0  0.75489822003E+00 -0.60813499043E+00  0.67308763359E+00  0.11801467924E+01  0.00000000000E+00 0. -1.
         11    1    3    3    0    0  0.23616698307E+02  0.22303247264E+02 -0.16161367260E+02  0.36281855926E+02  0.51100000000E-03 0. -1.
        -11    1    3    3    0    0  0.87205567890E+01  0.35046524381E+01  0.16905369496E+00  0.93999616401E+01  0.51100000000E-03 0.  1.
        -12    1    3    3    0    0 -0.33092153316E+02 -0.25199764711E+02  0.15319225932E+02  0.44326035642E+02  0.00000000000E+00 0.  1.
</event>
<event>
 7    1  0.4125693E-015  0.9000780E+02  0.7816164E-02  0.1186339E+00
        -11   -1    0    0    0    0  0.00000000000E+00  0.00000000000E+00  0.45593999997E+02  0.45594000000E+02  0.51100000000E-03 0. -1.
         11   -1    0    0    0    0 -0.00000000000E+00 -0.00000000000E+00 -0.45593999997E+02  0.45594000000E+02  0.51100000000E-03 0.  1.
    9900012    2    1    2    0    0 -0.99682218359E+00 -0.25871501433E+00 -0.57643766818E+00  0.90007801580E+02  0.90000063761E+02 0.  0.
         12    1    1    2    0    0  0.99682218359E+00  0.25871501433E+00  0.57643766818E+00  0.11801984196E+01  0.00000000000E+00 0. -1.
         11    1    3    3    0    0  0.72400731041E+01 -0.52788220852E+01  0.35099201138E+01  0.96231055604E+01  0.51100000000E-03 0. -1.
        -11    1    3    3    0    0 -0.21045367650E+02 -0.68096204324E+01 -0.37017432239E+02  0.43122716981E+02  0.51100000000E-03 0.  1.
         12    1    3    3    0    0  0.12808472362E+02  0.11829727503E+02  0.32931074457E+02  0.37261979039E+02  0.00000000000E+00 0. -1.
</event>
<event>
 7    1  0.4008281E-015  0.9000785E+02  0.7816164E-02  0.1186339E+00
        -11   -1    0    0    0    0  0.00000000000E+00  0.00000000000E+00  0.45593999997E+02  0.45594000000E+02  0.51100000000E-03 0.  1.
         11   -1    0    0    0    0 -0.00000000000E+00 -0.00000000000E+00 -0.45593999997E+02  0.45594000000E+02  0.51100000000E-03 0. -1.
    9900012    2    1    2    0    0  0.84946635301E+00 -0.57149050798E+00 -0.58698452688E+00  0.90007853687E+02  0.90000116555E+02 0.  0.
         12    1    1    2    0    0 -0.84946635301E+00  0.57149050798E+00  0.58698452688E+00  0.11801463131E+01  0.00000000000E+00 0. -1.
         11    1    3    3    0    0  0.20908021812E+02  0.69882082905E+01 -0.35092719514E+02  0.41442482966E+02  0.51100000000E-03 0. -1.
        -11    1    3    3    0    0 -0.87351845327E+01 -0.17659063342E+01 -0.26461376880E+01  0.92964465753E+01  0.51100000000E-03 0.  1.
        -12    1    3    3    0    0 -0.11323370926E+02 -0.57937924643E+01  0.37151872676E+02  0.39268924146E+02  0.00000000000E+00 0.  1.
</event>
<event>
 7    1  0.4008281E-015  0.9000782E+02  0.7816164E-02  0.1186339E+00
        -11   -1    0    0    0    0  0.00000000000E+00  0.00000000000E+00  0.45593999997E+02  0.45594000000E+02  0.51100000000E-03 0. -1.
         11   -1    0    0    0    0 -0.00000000000E+00 -0.00000000000E+00 -0.45593999997E+02  0.45594000000E+02  0.51100000000E-03 0.  1.
    9900012    2    1    2    0    0 -0.10037518344E+01 -0.36613227112E+00 -0.50124753639E+00  0.90007822184E+02  0.90000084637E+02 0.  0.
         12    1    1    2    0    0  0.10037518344E+01  0.36613227112E+00  0.50124753639E+00  0.11801778162E+01  0.00000000000E+00 0. -1.
         11    1    3    3    0    0  0.26832327625E+01  0.95932932325E+01 -0.73546440892E+01  0.12382318161E+02  0.51100000000E-03 0. -1.
        -11    1    3    3    0    0  0.18413264582E+02 -0.32029522577E+02 -0.14609435204E+02  0.39728758178E+02  0.51100000000E-03 0.  1.
         12    1    3    3    0    0 -0.22100249179E+02  0.22070097073E+02  0.21462831757E+02  0.37896745845E+02  0.00000000000E+00 0. -1.
</event>
<event>
 7    1  0.4008281E-015  0.9000775E+02  0.7816164E-02  0.1186339E+00
        -11   -1    0    0    0    0  0.00000000000E+00  0.00000000000E+00  0.45593999997E+02  0.45594000000E+02  0.51100000000E-03 0.  1.
         11   -1    0    0    0    0 -0.00000000000E+00 -0.00000000000E+00 -0.45593999997E+02  0.45594000000E+02  0.51100000000E-03 0. -1.
    9900012    2    1    2    0    0 -0.51762195896E+00  0.89088901011E+00  0.57564792434E+00  0.90007751614E+02  0.90000013135E+02 0.  0.
         12    1    1    2    0    0  0.51762195896E+00 -0.89088901011E+00 -0.57564792434E+00  0.11802483864E+01  0.00000000000E+00 0. -1.
         11    1    3    3    0    0  0.27813101393E+02 -0.13215267511E+02  0.34460777315E-01  0.30793068900E+02  0.51100000000E-03 0. -1.
        -11    1    3    3    0    0  0.10416644979E+02  0.60328006235E+01 -0.12681476353E+02  0.17484879717E+02  0.51100000000E-03 0.  1.
        -12    1    3    3    0    0 -0.38747368331E+02  0.80733558975E+01  0.13222663500E+02  0.41729802996E+02  0.00000000000E+00 0.  1.
</event>
<event>
 7    1  0.4008281E-015  0.9000808E+02  0.7816164E-02  0.1186338E+00
        -11   -1    0    0    0    0  0.00000000000E+00  0.00000000000E+00  0.45593999997E+02  0.45594000000E+02  0.51100000000E-03 0. -1.
         11   -1    0    0    0    0 -0.00000000000E+00 -0.00000000000E+00 -0.45593999997E+02  0.45594000000E+02  0.51100000000E-03 0.  1.
    9900012    2    1    2    0    0  0.71894703819E+00 -0.22707623680E+00 -0.90761698836E+00  0.90008077520E+02  0.90000343343E+02 0.  0.
         12    1    1    2    0    0 -0.71894703819E+00  0.22707623680E+00  0.90761698836E+00  0.11799224799E+01  0.00000000000E+00 0. -1.
         11    1    3    3    0    0 -0.37716624237E+01 -0.43376104063E+01 -0.76672452506E+01  0.95826380225E+01  0.51100000000E-03 0. -1.
        -11    1    3    3    0    0 -0.62566398725E+01  0.38310649893E+02  0.18092940346E+02  0.42827630432E+02  0.51100000000E-03 0.  1.
         12    1    3    3    0    0  0.10747249334E+02 -0.34200115724E+02 -0.11333312084E+02  0.37597809066E+02  0.00000000000E+00 0. -1.
</event>
<event>
 7    1  0.4008281E-015  0.9000807E+02  0.7816164E-02  0.1186338E+00
        -11   -1    0    0    0    0  0.00000000000E+00  0.00000000000E+00  0.45593999997E+02  0.45594000000E+02  0.51100000000E-03 0.  1.
         11   -1    0    0    0    0 -0.00000000000E+00 -0.00000000000E+00 -0.45593999997E+02  0.45594000000E+02  0.51100000000E-03 0. -1.
    9900012    2    1    2    0    0  0.93287065203E+00  0.63553471687E+00 -0.34362976761E+00  0.90008070575E+02  0.90000336306E+02 0.  0.
         12    1    1    2    0    0 -0.93287065203E+00 -0.63553471687E+00  0.34362976761E+00  0.11799294246E+01  0.00000000000E+00 0. -1.
         11    1    3    3    0    0  0.32595774279E+02  0.19207930785E+02  0.17872806511E+02  0.41843354535E+02  0.51100000000E-03 0. -1.
        -11    1    3    3    0    0 -0.61380698566E+01 -0.59542863308E+01  0.62753187392E+01  0.10607028463E+02  0.51100000000E-03 0.  1.
        -12    1    3    3    0    0 -0.25524833770E+02 -0.12618109737E+02 -0.24491755018E+02  0.37557687578E+02  0.00000000000E+00 0.  1.
</event>
<event>
 7    1  0.4008281E-015  0.9000770E+02  0.7816164E-02  0.1186339E+00
        -11   -1    0    0    0    0  0.00000000000E+00  0.00000000000E+00  0.45593999997E+02  0.45594000000E+02  0.51100000000E-03 0. -1.
         11   -1    0    0    0    0 -0.00000000000E+00 -0.00000000000E+00 -0.45593999997E+02  0.45594000000E+02  0.51100000000E-03 0.  1.
    9900012    2    1    2    0    0 -0.89116043030E+00  0.42933521991E+00 -0.64391173335E+00  0.90007695817E+02  0.89999956602E+02 0.  0.
         12    1    1    2    0    0  0.89116043030E+00 -0.42933521991E+00  0.64391173335E+00  0.11803041828E+01  0.00000000000E+00 0. -1.
         11    1    3    3    0    0 -0.15157227802E+02  0.10456055958E+02  0.37347502192E+02  0.41640203903E+02  0.51100000000E-03 0. -1.
        -11    1    3    3    0    0  0.15411859650E+02 -0.28912649974E+01 -0.81671630214E+01  0.17680140928E+02  0.51100000000E-03 0.  1.
        -12    1    3    3    0    0 -0.11457922780E+01 -0.71354557409E+01 -0.29824250904E+02  0.30687350986E+02  0.00000000000E+00 0.  1.
</event>
<event>
 7    1  0.4008281E-015  0.9000777E+02  0.7816164E-02  0.1186339E+00
        -11   -1    0    0    0    0  0.00000000000E+00  0.00000000000E+00  0.45593999997E+02  0.45594000000E+02  0.51100000000E-03 0. -1.
         11   -1    0    0    0    0 -0.00000000000E+00 -0.00000000000E+00 -0.45593999997E+02  0.45594000000E+02  0.51100000000E-03 0.  1.
    9900012    2    1    2    0    0  0.35580741102E+00  0.11136984913E+01  0.16132595244E+00  0.90007767266E+02  0.90000028994E+02 0.  0.
         12    1    1    2    0    0 -0.35580741102E+00 -0.11136984913E+01 -0.16132595244E+00  0.11802327339E+01  0.00000000000E+00 0. -1.
         11    1    3    3    0    0  0.17712141206E+01  0.27734244146E+02  0.33626820698E+02  0.43624403358E+02  0.51100000000E-03 0. -1.
        -11    1    3    3    0    0 -0.64344373794E+01 -0.26450152175E+01 -0.38526473343E+01  0.79524198603E+01  0.51100000000E-03 0.  1.
        -12    1    3    3    0    0  0.50190306698E+01 -0.23975530437E+02 -0.29612847411E+02  0.38430944048E+02  0.00000000000E+00 0.  1.
</event>
<event>
 7    1  0.4008281E-015  0.9000754E+02  0.7816164E-02  0.1186339E+00
        -11   -1    0    0    0    0  0.00000000000E+00  0.00000000000E+00  0.45593999997E+02  0.45594000000E+02  0.51100000000E-03 0.  1.
         11   -1    0    0    0    0 -0.00000000000E+00 -0.00000000000E+00 -0.45593999997E+02  0.45594000000E+02  0.51100000000E-03 0. -1.
    9900012    2    1    2    0    0 -0.85445124923E+00 -0.24252757713E+00  0.77754409281E+00  0.90007541877E+02  0.89999800630E+02 0.  0.
         12    1    1    2    0    0  0.85445124923E+00  0.24252757713E+00 -0.77754409281E+00  0.11804581226E+01  0.00000000000E+00 0. -1.
         11    1    3    3    0    0 -0.27370411383E+01 -0.86420535229E+01  0.27494863068E+01  0.94729171061E+01  0.51100000000E-03 0. -1.
        -11    1    3    3    0    0 -0.14188225802E+02  0.33525956590E+02  0.21765855000E+02  0.42415185498E+02  0.51100000000E-03 0.  1.
         12    1    3    3    0    0  0.16070815691E+02 -0.25126430645E+02 -0.23737797214E+02  0.38119439273E+02  0.00000000000E+00 0. -1.
</event>
<event>
 7    1  0.4008281E-015  0.9000737E+02  0.7816164E-02  0.1186340E+00
        -11   -1    0    0    0    0  0.00000000000E+00  0.00000000000E+00  0.45593999997E+02  0.45594000000E+02  0.51100000000E-03 0.  1.
         11   -1    0    0    0    0 -0.00000000000E+00 -0.00000000000E+00 -0.45593999997E+02  0.45594000000E+02  0.51100000000E-03 0. -1.
    9900012    2    1    2    0    0 -0.11447642767E+01  0.88471733007E-01  0.27490866231E+00  0.90007369969E+02  0.89999626452E+02 0.  0.
         12    1    1    2    0    0  0.11447642767E+01 -0.88471733007E-01 -0.27490866231E+00  0.11806300307E+01  0.00000000000E+00 0. -1.
         11    1    3    3    0    0 -0.30855241631E+01 -0.68458378334E+01 -0.72990035257E+01  0.10471934288E+02  0.51100000000E-03 0. -1.
        -11    1    3    3    0    0  0.38378906546E+02 -0.85856716552E+01  0.67443772533E+00  0.39333307666E+02  0.51100000000E-03 0.  1.
         12    1    3    3    0    0 -0.36438146660E+02  0.15519981222E+02  0.68994744627E+01  0.40202128015E+02  0.00000000000E+00 0. -1.
</event>
<event>
 7    1  0.4008281E-015  0.9000776E+02  0.7816164E-02  0.1186339E+00
        -11   -1    0    0    0    0  0.00000000000E+00  0.00000000000E+00  0.45593999997E+02  0.45594000000E+02  0.51100000000E-03 0. -1.
         11   -1    0    0    0    0 -0.00000000000E+00 -0.00000000000E+00 -0.45593999997E+02  0.45594000000E+02  0.51100000000E-03 0.  1.
    9900012    2    1    2    0    0 -0.61110487108E+00  0.10025820629E+01  0.11975738277E+00  0.90007761979E+02  0.90000023637E+02 0.  0.
         12    1    1    2    0    0  0.61110487108E+00 -0.10025820629E+01 -0.11975738277E+00  0.11802380213E+01  0.00000000000E+00 0. -1.
         11    1    3    3    0    0  0.60019219905E+01  0.37603399057E+02  0.14869875484E+02  0.40879724625E+02  0.51100000000E-03 0. -1.
        -11    1    3    3    0    0  0.80278942495E+01 -0.31371647837E+01  0.21473658505E+01  0.88825710984E+01  0.51100000000E-03 0.  1.
        -12    1    3    3    0    0 -0.14640921111E+02 -0.33463652210E+02 -0.16897483952E+02  0.40245466256E+02  0.00000000000E+00 0.  1.
</event>
<event>
 7    1  0.4008281E-015  0.9000774E+02  0.7816164E-02  0.1186339E+00
        -11   -1    0    0    0    0  0.00000000000E+00  0.00000000000E+00  0.45593999997E+02  0.45594000000E+02  0.51100000000E-03 0.  1.
         11   -1    0    0    0    0 -0.00000000000E+00 -0.00000000000E+00 -0.45593999997E+02  0.45594000000E+02  0.51100000000E-03 0. -1.
    9900012    2    1    2    0    0 -0.43899465124E+00 -0.10951835287E+01  0.29510400117E-01  0.90007739805E+02  0.90000001170E+02 0.  0.
         12    1    1    2    0    0  0.43899465124E+00  0.10951835287E+01 -0.29510400117E-01  0.11802601955E+01  0.00000000000E+00 0. -1.
         11    1    3    3    0    0  0.91849991668E+01 -0.32409676133E+01 -0.41863558217E+01  0.10601587433E+02  0.51100000000E-03 0. -1.
        -11    1    3    3    0    0  0.34643388578E+02  0.22142056604E+01  0.53515380367E+01  0.35124151783E+02  0.51100000000E-03 0.  1.
         12    1    3    3    0    0 -0.44267382396E+02 -0.68421575717E-01 -0.11356718149E+01  0.44282000589E+02  0.00000000000E+00 0. -1.
</event>
<event>
 7    1  0.4008281E-015  0.9000791E+02  0.7816164E-02  0.1186339E+00
        -11   -1    0    0    0    0  0.00000000000E+00  0.00000000000E+00  0.45593999997E+02  0.45594000000E+02  0.51100000000E-03 0. -1.
         11   -1    0    0    0    0 -0.00000000000E+00 -0.00000000000E+00 -0.45593999997E+02  0.45594000000E+02  0.51100000000E-03 0.  1.
    9900012    2    1    2    0    0  0.41103038820E+00  0.99437923398E+00  0.48462890561E+00  0.90007914742E+02  0.90000178416E+02 0.  0.
         12    1    1    2    0    0 -0.41103038820E+00 -0.99437923398E+00 -0.48462890561E+00  0.11800852584E+01  0.00000000000E+00 0. -1.
         11    1    3    3    0    0 -0.37144055009E+01 -0.58921913241E+01  0.85209629896E+01  0.11005523039E+02  0.51100000000E-03 0. -1.
        -11    1    3    3    0    0  0.15112347839E+01  0.41292984094E+02  0.59945982959E+01  0.41753198379E+02  0.51100000000E-03 0.  1.
         12    1    3    3    0    0  0.26142011053E+01 -0.34406413536E+02 -0.14030932380E+02  0.37249193323E+02  0.00000000000E+00 0. -1.
</event>
<event>
 7    1  0.4008281E-015  0.9000767E+02  0.7816164E-02  0.1186339E+00
        -11   -1    0    0    0    0  0.00000000000E+00  0.00000000000E+00  0.45593999997E+02  0.45594000000E+02  0.51100000000E-03 0. -1.
         11   -1    0    0    0    0 -0.00000000000E+00 -0.00000000000E+00 -0.45593999997E+02  0.45594000000E+02  0.51100000000E-03 0.  1.
    9900012    2    1    2    0    0 -0.90583623491E+00 -0.72354268685E+00 -0.22162627421E+00  0.90007673134E+02  0.89999933620E+02 0.  0.
         12    1    1    2    0    0  0.90583623491E+00  0.72354268685E+00  0.22162627421E+00  0.11803268656E+01  0.00000000000E+00 0. -1.
         11    1    3    3    0    0 -0.18320710724E+02 -0.36273214571E+02  0.34406223083E+01  0.40782746583E+02  0.51100000000E-03 0. -1.
        -11    1    3    3    0    0  0.46285702536E+01 -0.12351338505E+01 -0.87248911508E+01  0.99535392738E+01  0.51100000000E-03 0.  1.
        -12    1    3    3    0    0  0.12786304235E+02  0.36784805735E+02  0.50626425683E+01  0.39271387278E+02  0.00000000000E+00 0.  1.
</event>
<event>
 7    1  0.4008281E-015  0.9000779E+02  0.7816164E-02  0.1186339E+00
        -11   -1    0    0    0    0  0.00000000000E+00  0.00000000000E+00  0.45593999997E+02  0.45594000000E+02  0.51100000000E-03 0.  1.
         11   -1    0    0    0    0 -0.00000000000E+00 -0.00000000000E+00 -0.45593999997E+02  0.45594000000E+02  0.51100000000E-03 0. -1.
    9900012    2    1    2    0    0  0.95541828052E-02 -0.47132881906E+00  0.10819633626E+01  0.90007793723E+02  0.90000055800E+02 0.  0.
         12    1    1    2    0    0 -0.95541828052E-02  0.47132881906E+00 -0.10819633626E+01  0.11802062769E+01  0.00000000000E+00 0. -1.
         11    1    3    3    0    0 -0.72406628183E+01 -0.10413316623E+01 -0.56386936807E+01  0.92361483512E+01  0.51100000000E-03 0. -1.
        -11    1    3    3    0    0 -0.14401772195E+02 -0.35323026392E+02  0.73556337173E+01  0.38848842756E+02  0.51100000000E-03 0.  1.
         12    1    3    3    0    0  0.21651989196E+02  0.35893029235E+02 -0.63497667410E+00  0.41922802616E+02  0.00000000000E+00 0. -1.
</event>
<event>
 7    1  0.4008281E-015  0.9000775E+02  0.7816164E-02  0.1186339E+00
        -11   -1    0    0    0    0  0.00000000000E+00  0.00000000000E+00  0.45593999997E+02  0.45594000000E+02  0.51100000000E-03 0.  1.
         11   -1    0    0    0    0 -0.00000000000E+00 -0.00000000000E+00 -0.45593999997E+02  0.45594000000E+02  0.51100000000E-03 0. -1.
    9900012    2    1    2    0    0  0.10928737539E+01  0.40353232667E+00 -0.18915289791E+00  0.90007749942E+02  0.90000011441E+02 0.  0.
         12    1    1    2    0    0 -0.10928737539E+01 -0.40353232667E+00  0.18915289791E+00  0.11802500580E+01  0.00000000000E+00 0. -1.
         11    1    3    3    0    0 -0.44004534728E+01  0.67400294630E+01  0.47650721442E+01  0.93540312555E+01  0.51100000000E-03 0. -1.
        -11    1    3    3    0    0  0.24936837546E+02 -0.31630424850E+02  0.15049210946E+02  0.42997771958E+02  0.51100000000E-03 0.  1.
         12    1    3    3    0    0 -0.19443510319E+02  0.25293927713E+02 -0.20003435988E+02  0.37655946729E+02  0.00000000000E+00 0. -1.
</event>
<event>
 7    1  0.4008281E-015  0.9000775E+02  0.7816164E-02  0.1186339E+00
        -11   -1    0    0    0    0  0.00000000000E+00  0.00000000000E+00  0.45593999997E+02  0.45594000000E+02  0.51100000000E-03 0.  1.
         11   -1    0    0    0    0 -0.00000000000E+00 -0.00000000000E+00 -0.45593999997E+02  0.45594000000E+02  0.51100000000E-03 0. -1.
    9900012    2    1    2    0    0 -0.99638235433E+00  0.37204814814E+00  0.51165821204E+00  0.90007749287E+02  0.90000010777E+02 0.  0.
         12    1    1    2    0    0  0.99638235433E+00 -0.37204814814E+00 -0.51165821204E+00  0.11802507134E+01  0.00000000000E+00 0. -1.
         11    1    3    3    0    0 -0.85615789783E+01 -0.49954615501E+01 -0.31592794284E-01  0.99124300283E+01  0.51100000000E-03 0. -1.
        -11    1    3    3    0    0 -0.34255189120E+02  0.19556627337E+01  0.12416379480E+02  0.36488478703E+02  0.51100000000E-03 0.  1.
         12    1    3    3    0    0  0.41820385744E+02  0.34118469646E+01 -0.11873128474E+02  0.43606840556E+02  0.00000000000E+00 0. -1.
</event>
<event>
 7    1  0.4008281E-015  0.9000799E+02  0.7816164E-02  0.1186339E+00
        -11   -1    0    0    0    0  0.00000000000E+00  0.00000000000E+00  0.45593999997E+02  0.45594000000E+02  0.51100000000E-03 0. -1.
         11   -1    0    0    0    0 -0.00000000000E+00 -0.00000000000E+00 -0.45593999997E+02  0.45594000000E+02  0.51100000000E-03 0.  1.
    9900012    2    1    2    0    0 -0.48668865218E+00 -0.79939468759E+00 -0.71870312602E+00  0.90007986486E+02  0.90000251107E+02 0.  0.
         12    1    1    2    0    0  0.48668865218E+00  0.79939468759E+00  0.71870312602E+00  0.11800135144E+01  0.00000000000E+00 0. -1.
         11    1    3    3    0    0  0.62625823794E+01  0.37558332730E+01 -0.94138523385E+01  0.11914144440E+02  0.51100000000E-03 0. -1.
        -11    1    3    3    0    0  0.23433893301E+02  0.22099507251E+02  0.17810875535E+02  0.36807103439E+02  0.51100000000E-03 0.  1.
         12    1    3    3    0    0 -0.30183164333E+02 -0.26654735212E+02 -0.91157263227E+01  0.41286738606E+02  0.00000000000E+00 0. -1.
</event>
<event>
 7    1  0.4008281E-015  0.9000775E+02  0.7816164E-02  0.1186339E+00
        -11   -1    0    0    0    0  0.00000000000E+00  0.00000000000E+00  0.45593999997E+02  0.45594000000E+02  0.51100000000E-03 0.  1.
         11   -1    0    0    0    0 -0.00000000000E+00 -0.00000000000E+00 -0.45593999997E+02  0.45594000000E+02  0.51100000000E-03 0. -1.
    9900012    2    1    2    0    0 -0.97411697921E+00  0.66637129016E+00 -0.53415769009E-02  0.90007752942E+02  0.90000014481E+02 0.  0.
         12    1    1    2    0    0  0.97411697921E+00 -0.66637129016E+00  0.53415769009E-02  0.11802470580E+01  0.00000000000E+00 0. -1.
         11    1    3    3    0    0  0.87219563502E+01 -0.40403873093E+01  0.66923395407E+01  0.11712585580E+02  0.51100000000E-03 0. -1.
        -11    1    3    3    0    0 -0.16005519783E+01  0.38370003626E+02  0.10248699692E+02  0.39747387216E+02  0.51100000000E-03 0.  1.
         12    1    3    3    0    0 -0.80955213511E+01 -0.33663245026E+02 -0.16946380809E+02  0.38547780146E+02  0.00000000000E+00 0. -1.
</event>
<event>
 7    1  0.4008281E-015  0.9000779E+02  0.7816164E-02  0.1186339E+00
        -11   -1    0    0    0    0  0.00000000000E+00  0.00000000000E+00  0.45593999997E+02  0.45594000000E+02  0.51100000000E-03 0.  1.
         11   -1    0    0    0    0 -0.00000000000E+00 -0.00000000000E+00 -0.45593999997E+02  0.45594000000E+02  0.51100000000E-03 0. -1.
    9900012    2    1    2    0    0 -0.95163733569E+00  0.69409606386E+00  0.74316483838E-01  0.90007785653E+02  0.90000047624E+02 0.  0.
         12    1    1    2    0    0  0.95163733569E+00 -0.69409606386E+00 -0.74316483838E-01  0.11802143468E+01  0.00000000000E+00 0. -1.
         11    1    3    3    0    0  0.26726587281E+02 -0.12165451995E+02  0.24256403279E+02  0.38087816821E+02  0.51100000000E-03 0. -1.
        -11    1    3    3    0    0  0.24700580231E+01  0.80829902791E+01  0.48915126348E+01  0.97653886050E+01  0.51100000000E-03 0.  1.
        -12    1    3    3    0    0 -0.30148282639E+02  0.47765577800E+01 -0.29073599430E+02  0.42154580227E+02  0.00000000000E+00 0.  1.
</event>
<event>
 7    1  0.4267811E-015  0.9000774E+02  0.7816164E-02  0.1186339E+00
        -11   -1    0    0    0    0  0.00000000000E+00  0.00000000000E+00  0.45593999997E+02  0.45594000000E+02  0.51100000000E-03 0. -1.
         11   -1    0    0    0    0 -0.00000000000E+00 -0.00000000000E+00 -0.45593999997E+02  0.45594000000E+02  0.51100000000E-03 0.  1.
    9900012    2    1    2    0    0  0.47071694614E+00  0.79449697141E+00 -0.73498816698E+00  0.90007742619E+02  0.90000004021E+02 0.  0.
         12    1    1    2    0    0 -0.47071694614E+00 -0.79449697141E+00  0.73498816698E+00  0.11802573815E+01  0.00000000000E+00 0. -1.
         11    1    3    3    0    0  0.66298463028E+00 -0.51446053430E+01  0.79774494323E+01  0.95155773583E+01  0.51100000000E-03 0. -1.
        -11    1    3    3    0    0  0.37719914182E+00 -0.16320720940E+02 -0.39358989615E+02  0.42610307145E+02  0.51100000000E-03 0.  1.
         12    1    3    3    0    0 -0.56946682596E+00  0.22259823254E+02  0.30646552016E+02  0.37881858115E+02  0.00000000000E+00 0. -1.
</event>
<event>
 7    1  0.4008281E-015  0.9000796E+02  0.7816164E-02  0.1186339E+00
        -11   -1    0    0    0    0  0.00000000000E+00  0.00000000000E+00  0.45593999997E+02  0.45594000000E+02  0.51100000000E-03 0.  1.
         11   -1    0    0    0    0 -0.00000000000E+00 -0.00000000000E+00 -0.45593999997E+02  0.45594000000E+02  0.51100000000E-03 0. -1.
    9900012    2    1    2    0    0 -0.70018756060E+00  0.46687382733E+00 -0.82719930861E+00  0.90007960811E+02  0.90000225094E+02 0.  0.
         12    1    1    2    0    0  0.70018756060E+00 -0.46687382733E+00  0.82719930861E+00  0.11800391887E+01  0.00000000000E+00 0. -1.
         11    1    3    3    0    0 -0.34619609550E+02 -0.14814557735E+02 -0.10215734976E+02  0.39017300364E+02  0.51100000000E-03 0. -1.
        -11    1    3    3    0    0 -0.46184379385E+01  0.78880306973E+01 -0.33484467156E+01  0.97346336829E+01  0.51100000000E-03 0.  1.
        -12    1    3    3    0    0  0.38537859928E+02  0.73934008648E+01  0.12736982383E+02  0.41256026765E+02  0.00000000000E+00 0.  1.
</event>
<event>
 7    1  0.4008281E-015  0.9000769E+02  0.7816164E-02  0.1186339E+00
        -11   -1    0    0    0    0  0.00000000000E+00  0.00000000000E+00  0.45593999997E+02  0.45594000000E+02  0.51100000000E-03 0.  1.
         11   -1    0    0    0    0 -0.00000000000E+00 -0.00000000000E+00 -0.45593999997E+02  0.45594000000E+02  0.51100000000E-03 0. -1.
    9900012    2    1    2    0    0 -0.61901082389E+00  0.79888101804E+00  0.60971345377E+00  0.90007688271E+02  0.89999948957E+02 0.  0.
         12    1    1    2    0    0  0.61901082389E+00 -0.79888101804E+00 -0.60971345377E+00  0.11803117286E+01  0.00000000000E+00 0. -1.
         11    1    3    3    0    0 -0.47298631015E+01 -0.15808776107E+02  0.10651810612E+02  0.19640521290E+02  0.51100000000E-03 0. -1.
        -11    1    3    3    0    0  0.14182908861E+02 -0.21978722927E+01  0.25299037876E+02  0.29086540944E+02  0.51100000000E-03 0.  1.
         12    1    3    3    0    0 -0.10072056583E+02  0.18805529418E+02 -0.35341135035E+02  0.41280626037E+02  0.00000000000E+00 0. -1.
</event>
<event>
 7    1  0.4008281E-015  0.9000771E+02  0.7816164E-02  0.1186339E+00
        -11   -1    0    0    0    0  0.00000000000E+00  0.00000000000E+00  0.45593999997E+02  0.45594000000E+02  0.51100000000E-03 0. -1.
         11   -1    0    0    0    0 -0.00000000000E+00 -0.00000000000E+00 -0.45593999997E+02  0.45594000000E+02  0.51100000000E-03 0.  1.
    9900012    2    1    2    0    0  0.41981093809E+00 -0.73003740472E+00 -0.82697778778E+00  0.90007708469E+02  0.89999969421E+02 0.  0.
         12    1    1    2    0    0 -0.41981093809E+00  0.73003740472E+00  0.82697778778E+00  0.11802915307E+01  0.00000000000E+00 0. -1.
         11    1    3    3    0    0  0.61545201894E+01 -0.95967235451E+01  0.51613651953E+00  0.11412345015E+02  0.51100000000E-03 0. -1.
        -11    1    3    3    0    0  0.17609686497E+01 -0.30683220125E+02 -0.17330003532E+02  0.35282999171E+02  0.51100000000E-03 0.  1.
         12    1    3    3    0    0 -0.74956779010E+01  0.39549906265E+02  0.15986889225E+02  0.43312364284E+02  0.00000000000E+00 0. -1.
</event>
<event>
 7    1  0.4008281E-015  0.9000763E+02  0.7816164E-02  0.1186339E+00
        -11   -1    0    0    0    0  0.00000000000E+00  0.00000000000E+00  0.45593999997E+02  0.45594000000E+02  0.51100000000E-03 0. -1.
         11   -1    0    0    0    0 -0.00000000000E+00 -0.00000000000E+00 -0.45593999997E+02  0.45594000000E+02  0.51100000000E-03 0.  1.
    9900012    2    1    2    0    0  0.33216161272E-01 -0.53269882048E+00 -0.10528024136E+01  0.90007633841E+02  0.89999893808E+02 0.  0.
         12    1    1    2    0    0 -0.33216161272E-01  0.53269882048E+00  0.10528024136E+01  0.11803661588E+01  0.00000000000E+00 0. -1.
         11    1    3    3    0    0 -0.64940739634E+01  0.29986295073E+02  0.21583874881E+02  0.37512858382E+02  0.51100000000E-03 0. -1.
        -11    1    3    3    0    0  0.44161917547E+01  0.76408648350E+01 -0.19540462628E+01  0.90390188681E+01  0.51100000000E-03 0.  1.
        -12    1    3    3    0    0  0.21110983700E+01 -0.38159858729E+02 -0.20682631032E+02  0.43455756591E+02  0.00000000000E+00 0.  1.
</event>
<event>
 7    1  0.4008282E-015  0.9000788E+02  0.7816164E-02  0.1186339E+00
        -11   -1    0    0    0    0  0.00000000000E+00  0.00000000000E+00  0.45593999997E+02  0.45594000000E+02  0.51100000000E-03 0. -1.
         11   -1    0    0    0    0 -0.00000000000E+00 -0.00000000000E+00 -0.45593999997E+02  0.45594000000E+02  0.51100000000E-03 0.  1.
    9900012    2    1    2    0    0 -0.10710491090E+01 -0.31468144453E+00 -0.38275979992E+00  0.90007883197E+02  0.90000146455E+02 0.  0.
         12    1    1    2    0    0  0.10710491090E+01  0.31468144453E+00  0.38275979992E+00  0.11801168035E+01  0.00000000000E+00 0. -1.
         11    1    3    3    0    0  0.49333402530E+01  0.84825350031E+01  0.16354848448E+01  0.99481685284E+01  0.51100000000E-03 0. -1.
        -11    1    3    3    0    0  0.28377176899E+02 -0.71602699110E+01 -0.25150291620E+02  0.38588480182E+02  0.51100000000E-03 0.  1.
         12    1    3    3    0    0 -0.34381566261E+02 -0.16369465367E+01  0.23132046976E+02  0.41471234486E+02  0.00000000000E+00 0. -1.
</event>
<event>
 7    1  0.4008281E-015  0.9000782E+02  0.7816164E-02  0.1186339E+00
        -11   -1    0    0    0    0  0.00000000000E+00  0.00000000000E+00  0.45593999997E+02  0.45594000000E+02  0.51100000000E-03 0.  1.
         11   -1    0    0    0    0 -0.00000000000E+00 -0.00000000000E+00 -0.45593999997E+02  0.45594000000E+02  0.51100000000E-03 0. -1.
    9900012    2    1    2    0    0 -0.56827288191E-02 -0.75422601391E+00 -0.90770517114E+00  0.90007822958E+02  0.90000085421E+02 0.  0.
         12    1    1    2    0    0  0.56827288191E-02  0.75422601391E+00  0.90770517114E+00  0.11801770423E+01  0.00000000000E+00 0. -1.
         11    1    3    3    0    0 -0.19921136209E+01  0.67308138920E+01  0.12665898402E+02  0.14480930733E+02  0.51100000000E-03 0. -1.
        -11    1    3    3    0    0 -0.94646093629E+01 -0.15169633395E+02  0.27162843237E+02  0.32519481250E+02  0.51100000000E-03 0.  1.
         12    1    3    3    0    0  0.11451040255E+02  0.76845934895E+01 -0.40736446810E+02  0.43007410975E+02  0.00000000000E+00 0. -1.
</event>
<event>
 7    1  0.4008281E-015  0.9000780E+02  0.7816164E-02  0.1186339E+00
        -11   -1    0    0    0    0  0.00000000000E+00  0.00000000000E+00  0.45593999997E+02  0.45594000000E+02  0.51100000000E-03 0.  1.
         11   -1    0    0    0    0 -0.00000000000E+00 -0.00000000000E+00 -0.45593999997E+02  0.45594000000E+02  0.51100000000E-03 0. -1.
    9900012    2    1    2    0    0  0.91232615175E+00  0.28464421034E-01  0.74814480110E+00  0.90007800918E+02  0.90000063090E+02 0.  0.
         12    1    1    2    0    0 -0.91232615175E+00 -0.28464421034E-01 -0.74814480110E+00  0.11801990823E+01  0.00000000000E+00 0. -1.
         11    1    3    3    0    0  0.36606957551E+00  0.13606265499E+02 -0.40468551929E+02  0.42696231254E+02  0.51100000000E-03 0. -1.
        -11    1    3    3    0    0  0.90835840661E+01 -0.49810459745E+01  0.13142628885E+02  0.16734724759E+02  0.51100000000E-03 0.  1.
        -12    1    3    3    0    0 -0.85373274899E+01 -0.85967551034E+01  0.28074067845E+02  0.30576844905E+02  0.00000000000E+00 0.  1.
</event>
<event>
 7    1  0.4008281E-015  0.9000778E+02  0.7816164E-02  0.1186339E+00
        -11   -1    0    0    0    0  0.00000000000E+00  0.00000000000E+00  0.45593999997E+02  0.45594000000E+02  0.51100000000E-03 0.  1.
         11   -1    0    0    0    0 -0.00000000000E+00 -0.00000000000E+00 -0.45593999997E+02  0.45594000000E+02  0.51100000000E-03 0. -1.
    9900012    2    1    2    0    0 -0.24716535721E+00 -0.25030766848E+00  0.11265778574E+01  0.90007778702E+02  0.90000040581E+02 0.  0.
         12    1    1    2    0    0  0.24716535721E+00  0.25030766848E+00 -0.11265778574E+01  0.11802212977E+01  0.00000000000E+00 0. -1.
         11    1    3    3    0    0 -0.14031931004E+02 -0.20174847051E+02 -0.14563661483E+02  0.28566059883E+02  0.51100000000E-03 0. -1.
        -11    1    3    3    0    0 -0.13948024823E+02  0.55870863410E+01  0.24732513957E+02  0.28938904215E+02  0.51100000000E-03 0.  1.
         12    1    3    3    0    0  0.27732790470E+02  0.14337453041E+02 -0.90422746174E+01  0.32502814604E+02  0.00000000000E+00 0. -1.
</event>
<event>
 7    1  0.4008281E-015  0.9000767E+02  0.7816164E-02  0.1186339E+00
        -11   -1    0    0    0    0  0.00000000000E+00  0.00000000000E+00  0.45593999997E+02  0.45594000000E+02  0.51100000000E-03 0.  1.
         11   -1    0    0    0    0 -0.00000000000E+00 -0.00000000000E+00 -0.45593999997E+02  0.45594000000E+02  0.51100000000E-03 0. -1.
    9900012    2    1    2    0    0  0.26440089177E+00 -0.65435222603E+00  0.94609044890E+00  0.90007673009E+02  0.89999933493E+02 0.  0.
         12    1    1    2    0    0 -0.26440089177E+00  0.65435222603E+00 -0.94609044890E+00  0.11803269906E+01  0.00000000000E+00 0. -1.
         11    1    3    3    0    0 -0.87395796982E+01  0.30644152430E+02 -0.19588057577E+02  0.37405030829E+02  0.51100000000E-03 0. -1.
        -11    1    3    3    0    0 -0.60255856216E+01  0.56681660662E+01  0.56224750782E+01  0.10002400457E+02  0.51100000000E-03 0.  1.
        -12    1    3    3    0    0  0.15029566212E+02 -0.36966670722E+02  0.14911672948E+02  0.42600241723E+02  0.00000000000E+00 0.  1.
</event>
<event>
 7    1  0.4008281E-015  0.9000778E+02  0.7816164E-02  0.1186339E+00
        -11   -1    0    0    0    0  0.00000000000E+00  0.00000000000E+00  0.45593999997E+02  0.45594000000E+02  0.51100000000E-03 0.  1.
         11   -1    0    0    0    0 -0.00000000000E+00 -0.00000000000E+00 -0.45593999997E+02  0.45594000000E+02  0.51100000000E-03 0. -1.
    9900012    2    1    2    0    0 -0.23822462887E-01 -0.93221332113E+00  0.72341845055E+00  0.90007778224E+02  0.90000040097E+02 0.  0.
         12    1    1    2    0    0  0.23822462887E-01  0.93221332113E+00 -0.72341845055E+00  0.11802217759E+01  0.00000000000E+00 0. -1.
         11    1    3    3    0    0  0.34775273055E+02 -0.91054318054E+01 -0.13455319135E+02  0.38383253089E+02  0.51100000000E-03 0. -1.
        -11    1    3    3    0    0  0.52822308236E+01 -0.42148772887E+01  0.56630583847E+01  0.88168806027E+01  0.51100000000E-03 0.  1.
        -12    1    3    3    0    0 -0.40081326341E+02  0.12388095773E+02  0.85156792007E+01  0.42807644532E+02  0.00000000000E+00 0.  1.
</event>
<event>
 7    1  0.4008281E-015  0.9000865E+02  0.7816164E-02  0.1186337E+00
        -11   -1    0    0    0    0  0.00000000000E+00  0.00000000000E+00  0.45593999997E+02  0.45594000000E+02  0.51100000000E-03 0. -1.
         11   -1    0    0    0    0 -0.00000000000E+00 -0.00000000000E+00 -0.45593999997E+02  0.45594000000E+02  0.51100000000E-03 0.  1.
    9900012    2    1    2    0    0 -0.62593865929E+00 -0.75205381244E+00  0.65839025530E+00  0.90008651930E+02  0.90000925331E+02 0.  0.
         12    1    1    2    0    0  0.62593865929E+00  0.75205381244E+00 -0.65839025530E+00  0.11793480700E+01  0.00000000000E+00 0. -1.
         11    1    3    3    0    0  0.24782391127E+02  0.67769628886E+01 -0.19154084126E+02  0.32046420626E+02  0.51100000000E-03 0. -1.
        -11    1    3    3    0    0  0.73121147357E+01  0.11012454876E+02  0.15085320366E+02  0.20057618879E+02  0.51100000000E-03 0.  1.
        -12    1    3    3    0    0 -0.32720444522E+02 -0.18541471577E+02  0.47271540150E+01  0.37904612424E+02  0.00000000000E+00 0.  1.
</event>
<event>
 7    1  0.4008281E-015  0.9000777E+02  0.7816164E-02  0.1186339E+00
        -11   -1    0    0    0    0  0.00000000000E+00  0.00000000000E+00  0.45593999997E+02  0.45594000000E+02  0.51100000000E-03 0. -1.
         11   -1    0    0    0    0 -0.00000000000E+00 -0.00000000000E+00 -0.45593999997E+02  0.45594000000E+02  0.51100000000E-03 0.  1.
    9900012    2    1    2    0    0  0.38471068886E+00  0.11125015451E+01 -0.85266680211E-01  0.90007774425E+02  0.90000036247E+02 0.  0.
         12    1    1    2    0    0 -0.38471068886E+00 -0.11125015451E+01  0.85266680211E-01  0.11802255753E+01  0.00000000000E+00 0. -1.
         11    1    3    3    0    0 -0.36030669499E+02 -0.76247409581E+01 -0.10497496312E+01  0.36843558375E+02  0.51100000000E-03 0. -1.
        -11    1    3    3    0    0 -0.67232331692E+01  0.46030876903E+01  0.51296272130E+01  0.96282582089E+01  0.51100000000E-03 0.  1.
        -12    1    3    3    0    0  0.43138613357E+02  0.41341548129E+01 -0.41651442620E+01  0.43535957840E+02  0.00000000000E+00 0.  1.
</event>
<event>
 7    1  0.4008281E-015  0.9000768E+02  0.7816164E-02  0.1186339E+00
        -11   -1    0    0    0    0  0.00000000000E+00  0.00000000000E+00  0.45593999997E+02  0.45594000000E+02  0.51100000000E-03 0.  1.
         11   -1    0    0    0    0 -0.00000000000E+00 -0.00000000000E+00 -0.45593999997E+02  0.45594000000E+02  0.51100000000E-03 0. -1.
    9900012    2    1    2    0    0  0.92819241039E+00 -0.57704326032E+00  0.44567401652E+00  0.90007684193E+02  0.89999944824E+02 0.  0.
         12    1    1    2    0    0 -0.92819241039E+00  0.57704326032E+00 -0.44567401652E+00  0.11803158069E+01  0.00000000000E+00 0. -1.
         11    1    3    3    0    0 -0.96568039164E+01  0.21050138394E+02  0.30963787575E+02  0.38666760008E+02  0.51100000000E-03 0. -1.
        -11    1    3    3    0    0  0.82706272607E+00  0.86429612955E+01 -0.27138727758E+01  0.90966982149E+01  0.51100000000E-03 0.  1.
        -12    1    3    3    0    0  0.97579336007E+01 -0.30270142950E+02 -0.27804240782E+02  0.42244225970E+02  0.00000000000E+00 0.  1.
</event>
<event>
 7    1  0.4008281E-015  0.9000768E+02  0.7816164E-02  0.1186339E+00
        -11   -1    0    0    0    0  0.00000000000E+00  0.00000000000E+00  0.45593999997E+02  0.45594000000E+02  0.51100000000E-03 0. -1.
         11   -1    0    0    0    0 -0.00000000000E+00 -0.00000000000E+00 -0.45593999997E+02  0.45594000000E+02  0.51100000000E-03 0.  1.
    9900012    2    1    2    0    0 -0.46895112211E-01  0.14193918830E+00 -0.11708190634E+01  0.90007676670E+02  0.89999937202E+02 0.  0.
         12    1    1    2    0    0  0.46895112211E-01 -0.14193918830E+00  0.11708190634E+01  0.11803233302E+01  0.00000000000E+00 0. -1.
         11    1    3    3    0    0 -0.62670985223E+01  0.69800535134E+01  0.34616088498E+02  0.35864623992E+02  0.51100000000E-03 0. -1.
        -11    1    3    3    0    0 -0.40294869910E+01  0.10461855143E+02  0.19534910612E+01  0.11379951935E+02  0.51100000000E-03 0.  1.
        -12    1    3    3    0    0  0.10249690401E+02 -0.17299969468E+02 -0.37740398623E+02  0.42763100743E+02  0.00000000000E+00 0.  1.
</event>
<event>
 7    1  0.4008281E-015  0.9000754E+02  0.7816164E-02  0.1186339E+00
        -11   -1    0    0    0    0  0.00000000000E+00  0.00000000000E+00  0.45593999997E+02  0.45594000000E+02  0.51100000000E-03 0. -1.
         11   -1    0    0    0    0 -0.00000000000E+00 -0.00000000000E+00 -0.45593999997E+02  0.45594000000E+02  0.51100000000E-03 0.  1.
    9900012    2    1    2    0    0  0.10479847987E+01 -0.25039762503E+00 -0.48220777903E+00  0.90007535917E+02  0.89999794591E+02 0.  0.
         12    1    1    2    0    0 -0.10479847987E+01  0.25039762503E+00  0.48220777903E+00  0.11804640830E+01  0.00000000000E+00 0. -1.
         11    1    3    3    0    0  0.63784382801E+01 -0.96571987786E+01  0.13955081235E+01  0.11657332728E+02  0.51100000000E-03 0. -1.
        -11    1    3    3    0    0 -0.23703033903E+02 -0.84792145743E+01 -0.30747043808E+02  0.39738037183E+02  0.51100000000E-03 0.  1.
         12    1    3    3    0    0  0.18372580422E+02  0.17886015728E+02  0.28869327905E+02  0.38612166006E+02  0.00000000000E+00 0. -1.
</event>
<event>
 7    1  0.4008281E-015  0.9000771E+02  0.7816164E-02  0.1186339E+00
        -11   -1    0    0    0    0  0.00000000000E+00  0.00000000000E+00  0.45593999997E+02  0.45594000000E+02  0.51100000000E-03 0. -1.
         11   -1    0    0    0    0 -0.00000000000E+00 -0.00000000000E+00 -0.45593999997E+02  0.45594000000E+02  0.51100000000E-03 0.  1.
    9900012    2    1    2    0    0 -0.89623967294E+00  0.62417298830E+00 -0.44748728011E+00  0.90007710910E+02  0.89999971894E+02 0.  0.
         12    1    1    2    0    0  0.89623967294E+00 -0.62417298830E+00  0.44748728011E+00  0.11802890902E+01  0.00000000000E+00 0. -1.
         11    1    3    3    0    0  0.61766056415E+00 -0.32884816437E+02  0.21818873796E+02  0.39469683438E+02  0.51100000000E-03 0. -1.
        -11    1    3    3    0    0  0.85463813615E+01 -0.17308532385E+01 -0.44047692492E+01  0.97692619838E+01  0.51100000000E-03 0.  1.
        -12    1    3    3    0    0 -0.10060281599E+02  0.35239842664E+02 -0.17861591827E+02  0.40768765488E+02  0.00000000000E+00 0.  1.
</event>
<event>
 7    1  0.4008281E-015  0.9000776E+02  0.7816164E-02  0.1186339E+00
        -11   -1    0    0    0    0  0.00000000000E+00  0.00000000000E+00  0.45593999997E+02  0.45594000000E+02  0.51100000000E-03 0.  1.
         11   -1    0    0    0    0 -0.00000000000E+00 -0.00000000000E+00 -0.45593999997E+02  0.45594000000E+02  0.51100000000E-03 0. -1.
    9900012    2    1    2    0    0  0.30475513812E+00 -0.78876051783E+00  0.82337182553E+00  0.90007762731E+02  0.90000024399E+02 0.  0.
         12    1    1    2    0    0 -0.30475513812E+00  0.78876051783E+00 -0.82337182553E+00  0.11802372693E+01  0.00000000000E+00 0. -1.
         11    1    3    3    0    0 -0.90895840708E+01 -0.69058531530E+00  0.37381346510E+01  0.98524665738E+01  0.51100000000E-03 0. -1.
        -11    1    3    3    0    0 -0.90876025294E+01  0.36988394110E+01  0.35782491434E+02  0.37103269751E+02  0.51100000000E-03 0.  1.
         12    1    3    3    0    0  0.18481941738E+02 -0.37970146135E+01 -0.38697254260E+02  0.43052026406E+02  0.00000000000E+00 0. -1.
</event>
<event>
 7    1  0.4008281E-015  0.9000770E+02  0.7816164E-02  0.1186339E+00
        -11   -1    0    0    0    0  0.00000000000E+00  0.00000000000E+00  0.45593999997E+02  0.45594000000E+02  0.51100000000E-03 0.  1.
         11   -1    0    0    0    0 -0.00000000000E+00 -0.00000000000E+00 -0.45593999997E+02  0.45594000000E+02  0.51100000000E-03 0. -1.
    9900012    2    1    2    0    0  0.88478326712E+00  0.20893976208E+00 -0.75273725091E+00  0.90007698927E+02  0.89999959753E+02 0.  0.
         12    1    1    2    0    0 -0.88478326712E+00 -0.20893976208E+00  0.75273725091E+00  0.11803010730E+01  0.00000000000E+00 0. -1.
         11    1    3    3    0    0  0.57807765114E+01 -0.64265684164E+01 -0.54121869742E+01  0.10198525717E+02  0.51100000000E-03 0. -1.
        -11    1    3    3    0    0  0.41601476672E+01 -0.35780927529E+02 -0.12047559506E+01  0.36042100947E+02  0.51100000000E-03 0.  1.
         12    1    3    3    0    0 -0.90561409115E+01  0.42416435708E+02  0.58642056739E+01  0.43767072264E+02  0.00000000000E+00 0. -1.
</event>
<event>
 7    1  0.4008281E-015  0.9000766E+02  0.7816164E-02  0.1186339E+00
        -11   -1    0    0    0    0  0.00000000000E+00  0.00000000000E+00  0.45593999997E+02  0.45594000000E+02  0.51100000000E-03 0.  1.
         11   -1    0    0    0    0 -0.00000000000E+00 -0.00000000000E+00 -0.45593999997E+02  0.45594000000E+02  0.51100000000E-03 0. -1.
    9900012    2    1    2    0    0  0.21325570461E+00 -0.11124867376E+01  0.33179389634E+00  0.90007664486E+02  0.89999924857E+02 0.  0.
         12    1    1    2    0    0 -0.21325570461E+00  0.11124867376E+01 -0.33179389634E+00  0.11803355144E+01  0.00000000000E+00 0. -1.
         11    1    3    3    0    0  0.84390600500E+01 -0.99581332513E+01  0.40652942241E+01  0.13671458217E+02  0.51100000000E-03 0. -1.
        -11    1    3    3    0    0  0.15273336537E+02  0.24645938282E+02  0.23292625652E+02  0.37191981566E+02  0.51100000000E-03 0.  1.
         12    1    3    3    0    0 -0.23499140883E+02 -0.15800291768E+02 -0.27026125980E+02  0.39144224703E+02  0.00000000000E+00 0. -1.
</event>
<event>
 7    1  0.4008281E-015  0.9000775E+02  0.7816164E-02  0.1186339E+00
        -11   -1    0    0    0    0  0.00000000000E+00  0.00000000000E+00  0.45593999997E+02  0.45594000000E+02  0.51100000000E-03 0.  1.
         11   -1    0    0    0    0 -0.00000000000E+00 -0.00000000000E+00 -0.45593999997E+02  0.45594000000E+02  0.51100000000E-03 0. -1.
    9900012    2    1    2    0    0 -0.47396867857E+00  0.23430237288E+00  0.10552016079E+01  0.90007748186E+02  0.90000009662E+02 0.  0.
         12    1    1    2    0    0  0.47396867857E+00 -0.23430237288E+00 -0.10552016079E+01  0.11802518136E+01  0.00000000000E+00 0. -1.
         11    1    3    3    0    0 -0.15953176901E+02 -0.18560837229E+02 -0.31433224776E+02  0.39837873336E+02  0.51100000000E-03 0. -1.
        -11    1    3    3    0    0  0.19875337815E+01 -0.79643678226E+01  0.59261512309E+01  0.10124263628E+02  0.51100000000E-03 0.  1.
        -12    1    3    3    0    0  0.13491674441E+02  0.26759507424E+02  0.26562275153E+02  0.40045611222E+02  0.00000000000E+00 0.  1.
</event>
<event>
 7    1  0.4008281E-015  0.9000771E+02  0.7816164E-02  0.1186339E+00
        -11   -1    0    0    0    0  0.00000000000E+00  0.00000000000E+00  0.45593999997E+02  0.45594000000E+02  0.51100000000E-03 0.  1.
         11   -1    0    0    0    0 -0.00000000000E+00 -0.00000000000E+00 -0.45593999997E+02  0.45594000000E+02  0.51100000000E-03 0. -1.
    9900012    2    1    2    0    0 -0.46020839340E+00  0.50588430540E+00  0.96196538341E+00  0.90007708470E+02  0.89999969422E+02 0.  0.
         12    1    1    2    0    0  0.46020839340E+00 -0.50588430540E+00 -0.96196538341E+00  0.11802915295E+01  0.00000000000E+00 0. -1.
         11    1    3    3    0    0 -0.28230197059E+01 -0.34583023852E+02 -0.12602707740E+02  0.36915893889E+02  0.51100000000E-03 0. -1.
        -11    1    3    3    0    0  0.41096088386E+01 -0.47956422604E+01 -0.59302610090E+01  0.86634326564E+01  0.51100000000E-03 0.  1.
        -12    1    3    3    0    0 -0.17467975261E+01  0.39884550418E+02  0.19494934132E+02  0.44428381925E+02  0.00000000000E+00 0.  1.
</event>
<event>
 7    1  0.4008281E-015  0.9000784E+02  0.7816164E-02  0.1186339E+00
        -11   -1    0    0    0    0  0.00000000000E+00  0.00000000000E+00  0.45593999997E+02  0.45594000000E+02  0.51100000000E-03 0.  1.
         11   -1    0    0    0    0 -0.00000000000E+00 -0.00000000000E+00 -0.45593999997E+02  0.45594000000E+02  0.51100000000E-03 0. -1.
    9900012    2    1    2    0    0 -0.91884046352E+00  0.23944219978E+00  0.70083444874E+00  0.90007843532E+02  0.90000106267E+02 0.  0.
         12    1    1    2    0    0  0.91884046352E+00 -0.23944219978E+00 -0.70083444874E+00  0.11801564680E+01  0.00000000000E+00 0. -1.
         11    1    3    3    0    0 -0.11631794625E+02 -0.65974997024E+01 -0.12806358187E+02  0.18515627421E+02  0.51100000000E-03 0. -1.
        -11    1    3    3    0    0  0.33732918261E+02 -0.11085001434E+02  0.21155963523E+02  0.41332333880E+02  0.51100000000E-03 0.  1.
         12    1    3    3    0    0 -0.23019964099E+02  0.17921943336E+02 -0.76487708866E+01  0.30159882230E+02  0.00000000000E+00 0. -1.
</event>
<event>
 7    1  0.4008281E-015  0.9000801E+02  0.7816164E-02  0.1186338E+00
        -11   -1    0    0    0    0  0.00000000000E+00  0.00000000000E+00  0.45593999997E+02  0.45594000000E+02  0.51100000000E-03 0.  1.
         11   -1    0    0    0    0 -0.00000000000E+00 -0.00000000000E+00 -0.45593999997E+02  0.45594000000E+02  0.51100000000E-03 0. -1.
    9900012    2    1    2    0    0 -0.89770059349E+00  0.30375364994E+00  0.70301852286E+00  0.90008013695E+02  0.90000278676E+02 0.  0.
         12    1    1    2    0    0  0.89770059349E+00 -0.30375364994E+00 -0.70301852286E+00  0.11799863045E+01  0.00000000000E+00 0. -1.
         11    1    3    3    0    0 -0.13495177318E+02 -0.34106425034E+02 -0.10935995896E+02  0.38274848738E+02  0.51100000000E-03 0. -1.
        -11    1    3    3    0    0 -0.10666385030E+02  0.35260111430E+01 -0.38596330736E+00  0.11240706922E+02  0.51100000000E-03 0.  1.
        -12    1    3    3    0    0  0.23263861754E+02  0.30884167541E+02  0.12024977727E+02  0.40492458035E+02  0.00000000000E+00 0.  1.
</event>
<event>
 7    1  0.4008281E-015  0.9000764E+02  0.7816164E-02  0.1186339E+00
        -11   -1    0    0    0    0  0.00000000000E+00  0.00000000000E+00  0.45593999997E+02  0.45594000000E+02  0.51100000000E-03 0.  1.
         11   -1    0    0    0    0 -0.00000000000E+00 -0.00000000000E+00 -0.45593999997E+02  0.45594000000E+02  0.51100000000E-03 0. -1.
    9900012    2    1    2    0    0  0.80638163479E+00 -0.60669064660E+00  0.61230455117E+00  0.90007643382E+02  0.89999903475E+02 0.  0.
         12    1    1    2    0    0 -0.80638163479E+00  0.60669064660E+00 -0.61230455117E+00  0.11803566177E+01  0.00000000000E+00 0. -1.
         11    1    3    3    0    0 -0.92394325083E+01 -0.25544948138E+01 -0.28190798621E+01  0.99919852061E+01  0.51100000000E-03 0. -1.
        -11    1    3    3    0    0 -0.40692224031E-01 -0.26344632650E+02  0.29992362716E+02  0.39919708753E+02  0.51100000000E-03 0.  1.
         12    1    3    3    0    0  0.10086506367E+02  0.28292436818E+02 -0.26560978303E+02  0.40095949424E+02  0.00000000000E+00 0. -1.
</event>
<event>
 7    1  0.4008281E-015  0.9000786E+02  0.7816164E-02  0.1186339E+00
        -11   -1    0    0    0    0  0.00000000000E+00  0.00000000000E+00  0.45593999997E+02  0.45594000000E+02  0.51100000000E-03 0.  1.
         11   -1    0    0    0    0 -0.00000000000E+00 -0.00000000000E+00 -0.45593999997E+02  0.45594000000E+02  0.51100000000E-03 0. -1.
    9900012    2    1    2    0    0 -0.95829138061E+00 -0.98043957774E-01 -0.68176103131E+00  0.90007858868E+02  0.90000121805E+02 0.  0.
         12    1    1    2    0    0  0.95829138061E+00  0.98043957774E-01  0.68176103131E+00  0.11801411321E+01  0.00000000000E+00 0. -1.
         11    1    3    3    0    0 -0.40823056283E+02 -0.69259238366E+01  0.32128228293E+01  0.41530862934E+02  0.51100000000E-03 0. -1.
        -11    1    3    3    0    0  0.15163506012E+01  0.80767781105E+01  0.42522851029E+01  0.92528694279E+01  0.51100000000E-03 0.  1.
        -12    1    3    3    0    0  0.38348414301E+02 -0.12488982317E+01 -0.81468689635E+01  0.39224126506E+02  0.00000000000E+00 0.  1.
</event>
<event>
 7    1  0.4008281E-015  0.9000771E+02  0.7816164E-02  0.1186339E+00
        -11   -1    0    0    0    0  0.00000000000E+00  0.00000000000E+00  0.45593999997E+02  0.45594000000E+02  0.51100000000E-03 0.  1.
         11   -1    0    0    0    0 -0.00000000000E+00 -0.00000000000E+00 -0.45593999997E+02  0.45594000000E+02  0.51100000000E-03 0. -1.
    9900012    2    1    2    0    0  0.76128559644E+00 -0.59770184597E+00  0.67548022848E+00  0.90007713257E+02  0.89999974272E+02 0.  0.
         12    1    1    2    0    0 -0.76128559644E+00  0.59770184597E+00 -0.67548022848E+00  0.11802867427E+01  0.00000000000E+00 0. -1.
         11    1    3    3    0    0  0.86770733690E+01 -0.74726762125E+01  0.42850346839E+00  0.11459324043E+02  0.51100000000E-03 0. -1.
        -11    1    3    3    0    0  0.21516421614E+02 -0.54390255039E+01  0.28369366948E+02  0.36018889194E+02  0.51100000000E-03 0.  1.
         12    1    3    3    0    0 -0.29432209386E+02  0.12313999871E+02 -0.28122390188E+02  0.42529500021E+02  0.00000000000E+00 0. -1.
</event>
<event>
 7    1  0.4008281E-015  0.9000777E+02  0.7816164E-02  0.1186339E+00
        -11   -1    0    0    0    0  0.00000000000E+00  0.00000000000E+00  0.45593999997E+02  0.45594000000E+02  0.51100000000E-03 0. -1.
         11   -1    0    0    0    0 -0.00000000000E+00 -0.00000000000E+00 -0.45593999997E+02  0.45594000000E+02  0.51100000000E-03 0.  1.
    9900012    2    1    2    0    0  0.87076122298E+00  0.72107831721E+00 -0.33877419662E+00  0.90007768242E+02  0.90000029982E+02 0.  0.
         12    1    1    2    0    0 -0.87076122298E+00 -0.72107831721E+00  0.33877419662E+00  0.11802317583E+01  0.00000000000E+00 0. -1.
         11    1    3    3    0    0 -0.35242855888E+01 -0.48434171108E+01 -0.35439505294E+01  0.69598034338E+01  0.51100000000E-03 0. -1.
        -11    1    3    3    0    0  0.36761379807E+02 -0.55183896369E+01 -0.19510251273E+02  0.41982157812E+02  0.51100000000E-03 0.  1.
         12    1    3    3    0    0 -0.32366332995E+02  0.11082885065E+02  0.22715427606E+02  0.41065806996E+02  0.00000000000E+00 0. -1.
</event>
<event>
 7    1  0.4008281E-015  0.9000772E+02  0.7816164E-02  0.1186339E+00
        -11   -1    0    0    0    0  0.00000000000E+00  0.00000000000E+00  0.45593999997E+02  0.45594000000E+02  0.51100000000E-03 0.  1.
         11   -1    0    0    0    0 -0.00000000000E+00 -0.00000000000E+00 -0.45593999997E+02  0.45594000000E+02  0.51100000000E-03 0. -1.
    9900012    2    1    2    0    0  0.43554273488E+00  0.46584567323E+00  0.99315028788E+00  0.90007721575E+02  0.89999982700E+02 0.  0.
         12    1    1    2    0    0 -0.43554273488E+00 -0.46584567323E+00 -0.99315028788E+00  0.11802784246E+01  0.00000000000E+00 0. -1.
         11    1    3    3    0    0 -0.94755329127E+01 -0.11582035635E+02 -0.35124875102E+02  0.38179655900E+02  0.51100000000E-03 0. -1.
        -11    1    3    3    0    0  0.72445214161E+01 -0.47732890103E+01 -0.29867852337E+01  0.91754163294E+01  0.51100000000E-03 0.  1.
        -12    1    3    3    0    0  0.26665542316E+01  0.16821170318E+02  0.39104810624E+02  0.42652649346E+02  0.00000000000E+00 0.  1.
</event>
<event>
 7    1  0.4008281E-015  0.9000777E+02  0.7816164E-02  0.1186339E+00
        -11   -1    0    0    0    0  0.00000000000E+00  0.00000000000E+00  0.45593999997E+02  0.45594000000E+02  0.51100000000E-03 0.  1.
         11   -1    0    0    0    0 -0.00000000000E+00 -0.00000000000E+00 -0.45593999997E+02  0.45594000000E+02  0.51100000000E-03 0. -1.
    9900012    2    1    2    0    0  0.58055122698E+00 -0.82751278180E+00  0.60920532836E+00  0.90007767708E+02  0.90000029442E+02 0.  0.
         12    1    1    2    0    0 -0.58055122698E+00  0.82751278180E+00 -0.60920532836E+00  0.11802322921E+01  0.00000000000E+00 0. -1.
         11    1    3    3    0    0 -0.44657416971E+01 -0.99665354952E+01  0.18691742546E+01  0.11080094374E+02  0.51100000000E-03 0. -1.
        -11    1    3    3    0    0  0.32921408301E+02 -0.14918529901E+02  0.14410582370E+02  0.38910751001E+02  0.51100000000E-03 0.  1.
         12    1    3    3    0    0 -0.27875115377E+02  0.24057552614E+02 -0.15670551296E+02  0.40016922333E+02  0.00000000000E+00 0. -1.
</event>
<event>
 7    1  0.4008281E-015  0.9000788E+02  0.7816164E-02  0.1186339E+00
        -11   -1    0    0    0    0  0.00000000000E+00  0.00000000000E+00  0.45593999997E+02  0.45594000000E+02  0.51100000000E-03 0. -1.
         11   -1    0    0    0    0 -0.00000000000E+00 -0.00000000000E+00 -0.45593999997E+02  0.45594000000E+02  0.51100000000E-03 0.  1.
    9900012    2    1    2    0    0 -0.93406939771E-01  0.14097156440E+00 -0.11679444843E+01  0.90007876211E+02  0.90000139377E+02 0.  0.
         12    1    1    2    0    0  0.93406939771E-01 -0.14097156440E+00  0.11679444843E+01  0.11801237888E+01  0.00000000000E+00 0. -1.
         11    1    3    3    0    0 -0.30279202900E+02  0.22793456567E+02  0.49786668748E+01  0.38225108432E+02  0.51100000000E-03 0. -1.
        -11    1    3    3    0    0 -0.58535058614E+01 -0.29182900538E+01  0.60629975368E+01  0.89185137270E+01  0.51100000000E-03 0.  1.
        -12    1    3    3    0    0  0.36039301822E+02 -0.19734194948E+02 -0.12209608896E+02  0.42864254052E+02  0.00000000000E+00 0.  1.
</event>
<event>
 7    1  0.4008281E-015  0.9000772E+02  0.7816164E-02  0.1186339E+00
        -11   -1    0    0    0    0  0.00000000000E+00  0.00000000000E+00  0.45593999997E+02  0.45594000000E+02  0.51100000000E-03 0.  1.
         11   -1    0    0    0    0 -0.00000000000E+00 -0.00000000000E+00 -0.45593999997E+02  0.45594000000E+02  0.51100000000E-03 0. -1.
    9900012    2    1    2    0    0  0.91897569206E+00 -0.59966251549E+00  0.43467795102E+00  0.90007721907E+02  0.89999983036E+02 0.  0.
         12    1    1    2    0    0 -0.91897569206E+00  0.59966251549E+00 -0.43467795102E+00  0.11802780927E+01  0.00000000000E+00 0. -1.
         11    1    3    3    0    0 -0.88146130090E+01 -0.35385618959E+02  0.14116245513E+01  0.36494275109E+02  0.51100000000E-03 0. -1.
        -11    1    3    3    0    0 -0.35544840398E+01 -0.63969480136E+01 -0.66266758619E+01  0.98725950954E+01  0.51100000000E-03 0.  1.
        -12    1    3    3    0    0  0.13288072741E+02  0.41182904457E+02  0.56497292616E+01  0.43640851703E+02  0.00000000000E+00 0.  1.
</event>
<event>
 7    1  0.4071971E-015  0.9000771E+02  0.7816164E-02  0.1186339E+00
        -11   -1    0    0    0    0  0.00000000000E+00  0.00000000000E+00  0.45593999997E+02  0.45594000000E+02  0.51100000000E-03 0.  1.
         11   -1    0    0    0    0 -0.00000000000E+00 -0.00000000000E+00 -0.45593999997E+02  0.45594000000E+02  0.51100000000E-03 0. -1.
    9900012    2    1    2    0    0 -0.63842091666E+00  0.46837703651E+00  0.87529133174E+00  0.90007706295E+02  0.89999967218E+02 0.  0.
         12    1    1    2    0    0  0.63842091666E+00 -0.46837703651E+00 -0.87529133174E+00  0.11802937052E+01  0.00000000000E+00 0. -1.
         11    1    3    3    0    0  0.54300927298E+01  0.11743140911E+02 -0.36918400931E+02  0.39119759624E+02  0.51100000000E-03 0. -1.
        -11    1    3    3    0    0 -0.16257940107E+01 -0.83109327530E+01 -0.35632687229E+01  0.91875836673E+01  0.51100000000E-03 0.  1.
        -12    1    3    3    0    0 -0.44427196357E+01 -0.29638311213E+01  0.41356960985E+02  0.41700363003E+02  0.00000000000E+00 0.  1.
</event>
<event>
 7    1  0.4008281E-015  0.9000832E+02  0.7816164E-02  0.1186338E+00
        -11   -1    0    0    0    0  0.00000000000E+00  0.00000000000E+00  0.45593999997E+02  0.45594000000E+02  0.51100000000E-03 0. -1.
         11   -1    0    0    0    0 -0.00000000000E+00 -0.00000000000E+00 -0.45593999997E+02  0.45594000000E+02  0.51100000000E-03 0.  1.
    9900012    2    1    2    0    0  0.25634935252E+00  0.10002056956E+01 -0.57054212279E+00  0.90008320070E+02  0.90000589093E+02 0.  0.
         12    1    1    2    0    0 -0.25634935252E+00 -0.10002056956E+01  0.57054212279E+00  0.11796799303E+01  0.00000000000E+00 0. -1.
         11    1    3    3    0    0 -0.10260827964E+02 -0.24918526173E+02  0.25588277342E+02  0.37161505281E+02  0.51100000000E-03 0. -1.
        -11    1    3    3    0    0  0.52157134700E+00 -0.89598734617E+01 -0.18222384240E+01  0.91581615106E+01  0.51100000000E-03 0.  1.
        -12    1    3    3    0    0  0.99956059698E+01  0.34878605331E+02 -0.24336581041E+02  0.43688653278E+02  0.00000000000E+00 0.  1.
</event>
<event>
 7    1  0.4008281E-015  0.9000778E+02  0.7816164E-02  0.1186339E+00
        -11   -1    0    0    0    0  0.00000000000E+00  0.00000000000E+00  0.45593999997E+02  0.45594000000E+02  0.51100000000E-03 0. -1.
         11   -1    0    0    0    0 -0.00000000000E+00 -0.00000000000E+00 -0.45593999997E+02  0.45594000000E+02  0.51100000000E-03 0.  1.
    9900012    2    1    2    0    0  0.39085985943E+00 -0.75726388054E+00 -0.81651020327E+00  0.90007784373E+02  0.90000046327E+02 0.  0.
         12    1    1    2    0    0 -0.39085985943E+00  0.75726388054E+00  0.81651020327E+00  0.11802156271E+01  0.00000000000E+00 0. -1.
         11    1    3    3    0    0 -0.33346207258E+02  0.50646604673E+01 -0.11681721131E+02  0.35694298326E+02  0.51100000000E-03 0. -1.
        -11    1    3    3    0    0 -0.59889627493E+01  0.63726463494E+01 -0.47125213891E+01  0.99340905176E+01  0.51100000000E-03 0.  1.
        -12    1    3    3    0    0  0.39726029866E+02 -0.12194570697E+02  0.15577732317E+02  0.44379395530E+02  0.00000000000E+00 0.  1.
</event>
<event>
 7    1  0.4008281E-015  0.9000771E+02  0.7816164E-02  0.1186339E+00
        -11   -1    0    0    0    0  0.00000000000E+00  0.00000000000E+00  0.45593999997E+02  0.45594000000E+02  0.51100000000E-03 0.  1.
         11   -1    0    0    0    0 -0.00000000000E+00 -0.00000000000E+00 -0.45593999997E+02  0.45594000000E+02  0.51100000000E-03 0. -1.
    9900012    2    1    2    0    0  0.10373716465E+01 -0.11071114750E-01 -0.56285990973E+00  0.90007714534E+02  0.89999975566E+02 0.  0.
         12    1    1    2    0    0 -0.10373716465E+01  0.11071114750E-01  0.56285990973E+00  0.11802854657E+01  0.00000000000E+00 0. -1.
         11    1    3    3    0    0  0.38582821930E+02  0.22390493311E+01 -0.72625597849E+00  0.38654559084E+02  0.51100000000E-03 0. -1.
        -11    1    3    3    0    0  0.42976819663E+01 -0.30030753873E+01  0.72093910463E+01  0.89142499172E+01  0.51100000000E-03 0.  1.
        -12    1    3    3    0    0 -0.41843132250E+02  0.75295494149E+00 -0.70459949776E+01  0.42438905533E+02  0.00000000000E+00 0.  1.
</event>
<event>
 7    1  0.4008281E-015  0.9000772E+02  0.7816164E-02  0.1186339E+00
        -11   -1    0    0    0    0  0.00000000000E+00  0.00000000000E+00  0.45593999997E+02  0.45594000000E+02  0.51100000000E-03 0.  1.
         11   -1    0    0    0    0 -0.00000000000E+00 -0.00000000000E+00 -0.45593999997E+02  0.45594000000E+02  0.51100000000E-03 0. -1.
    9900012    2    1    2    0    0 -0.86205927409E+00 -0.65127807497E+00  0.47513375814E+00  0.90007719774E+02  0.89999980875E+02 0.  0.
         12    1    1    2    0    0  0.86205927409E+00  0.65127807497E+00 -0.47513375814E+00  0.11802802257E+01  0.00000000000E+00 0. -1.
         11    1    3    3    0    0 -0.10406476155E+02 -0.75981899889E+01  0.11735983901E+02  0.17428727878E+02  0.51100000000E-03 0. -1.
        -11    1    3    3    0    0  0.20700566116E+02  0.11876460874E+02  0.24855913864E+02  0.34458383808E+02  0.51100000000E-03 0.  1.
         12    1    3    3    0    0 -0.11156149235E+02 -0.49295489603E+01 -0.36116764006E+02  0.38120608088E+02  0.00000000000E+00 0. -1.
</event>
<event>
 7    1  0.4008281E-015  0.9000777E+02  0.7816164E-02  0.1186339E+00
        -11   -1    0    0    0    0  0.00000000000E+00  0.00000000000E+00  0.45593999997E+02  0.45594000000E+02  0.51100000000E-03 0.  1.
         11   -1    0    0    0    0 -0.00000000000E+00 -0.00000000000E+00 -0.45593999997E+02  0.45594000000E+02  0.51100000000E-03 0. -1.
    9900012    2    1    2    0    0  0.44528919037E+00 -0.19133146622E+00  0.10761248022E+01  0.90007773419E+02  0.90000035228E+02 0.  0.
         12    1    1    2    0    0 -0.44528919037E+00  0.19133146622E+00 -0.10761248022E+01  0.11802265812E+01  0.00000000000E+00 0. -1.
         11    1    3    3    0    0 -0.52007794550E+01 -0.16601567728E+02 -0.76813115668E+01  0.19017431625E+02  0.51100000000E-03 0. -1.
        -11    1    3    3    0    0 -0.16420917656E+02 -0.14107138944E+02 -0.15113695845E+02  0.26402304979E+02  0.51100000000E-03 0.  1.
         12    1    3    3    0    0  0.22066986301E+02  0.30517375206E+02  0.23871132214E+02  0.44588036815E+02  0.00000000000E+00 0. -1.
</event>
<event>
 7    1  0.4008281E-015  0.9000784E+02  0.7816164E-02  0.1186339E+00
        -11   -1    0    0    0    0  0.00000000000E+00  0.00000000000E+00  0.45593999997E+02  0.45594000000E+02  0.51100000000E-03 0. -1.
         11   -1    0    0    0    0 -0.00000000000E+00 -0.00000000000E+00 -0.45593999997E+02  0.45594000000E+02  0.51100000000E-03 0.  1.
    9900012    2    1    2    0    0 -0.74316927807E+00  0.81420017590E+00  0.42136061298E+00  0.90007844388E+02  0.90000107134E+02 0.  0.
         12    1    1    2    0    0  0.74316927807E+00 -0.81420017590E+00 -0.42136061298E+00  0.11801556120E+01  0.00000000000E+00 0. -1.
         11    1    3    3    0    0  0.93059360112E+00  0.99140527050E+01 -0.22839091422E+01  0.10216197273E+02  0.51100000000E-03 0. -1.
        -11    1    3    3    0    0 -0.22422861247E+02  0.13973434907E+02 -0.26326342113E+02  0.37297692676E+02  0.51100000000E-03 0.  1.
         12    1    3    3    0    0  0.20749098368E+02 -0.23073287436E+02  0.29031611869E+02  0.42493954439E+02  0.00000000000E+00 0. -1.
</event>
<event>
 7    1  0.4008281E-015  0.9000775E+02  0.7816164E-02  0.1186339E+00
        -11   -1    0    0    0    0  0.00000000000E+00  0.00000000000E+00  0.45593999997E+02  0.45594000000E+02  0.51100000000E-03 0. -1.
         11   -1    0    0    0    0 -0.00000000000E+00 -0.00000000000E+00 -0.45593999997E+02  0.45594000000E+02  0.51100000000E-03 0.  1.
    9900012    2    1    2    0    0  0.65579909235E+00  0.16835703773E+00 -0.96673306131E+00  0.90007750300E+02  0.90000011804E+02 0.  0.
         12    1    1    2    0    0 -0.65579909235E+00 -0.16835703773E+00  0.96673306131E+00  0.11802496996E+01  0.00000000000E+00 0. -1.
         11    1    3    3    0    0  0.36507385172E+02 -0.14753217224E+01 -0.10488019222E+01  0.36552232928E+02  0.51100000000E-03 0. -1.
        -11    1    3    3    0    0  0.75134479592E+01 -0.51316740253E+01 -0.26578948847E+01  0.94789442459E+01  0.51100000000E-03 0.  1.
        -12    1    3    3    0    0 -0.43365034039E+02  0.67753527854E+01  0.27399637456E+01  0.43976573126E+02  0.00000000000E+00 0.  1.
</event>
<event>
 7    1  0.4008281E-015  0.9000777E+02  0.7816164E-02  0.1186339E+00
        -11   -1    0    0    0    0  0.00000000000E+00  0.00000000000E+00  0.45593999997E+02  0.45594000000E+02  0.51100000000E-03 0.  1.
         11   -1    0    0    0    0 -0.00000000000E+00 -0.00000000000E+00 -0.45593999997E+02  0.45594000000E+02  0.51100000000E-03 0. -1.
    9900012    2    1    2    0    0  0.41761429547E+00 -0.10841316855E+01  0.20784664577E+00  0.90007769752E+02  0.90000031512E+02 0.  0.
         12    1    1    2    0    0 -0.41761429547E+00  0.10841316855E+01 -0.20784664577E+00  0.11802302484E+01  0.00000000000E+00 0. -1.
         11    1    3    3    0    0  0.22866476591E+02 -0.29441528156E+02 -0.42198483265E+01  0.37516482405E+02  0.51100000000E-03 0. -1.
        -11    1    3    3    0    0 -0.15716131976E+01 -0.91495415314E+01  0.20019257588E+01  0.94969355732E+01  0.51100000000E-03 0.  1.
        -12    1    3    3    0    0 -0.20877249098E+02  0.37506938002E+02  0.24257692135E+01  0.42994351774E+02  0.00000000000E+00 0.  1.
</event>
<event>
 7    1  0.4008281E-015  0.9000769E+02  0.7816164E-02  0.1186339E+00
        -11   -1    0    0    0    0  0.00000000000E+00  0.00000000000E+00  0.45593999997E+02  0.45594000000E+02  0.51100000000E-03 0. -1.
         11   -1    0    0    0    0 -0.00000000000E+00 -0.00000000000E+00 -0.45593999997E+02  0.45594000000E+02  0.51100000000E-03 0.  1.
    9900012    2    1    2    0    0 -0.15721748229E+00 -0.74833513150E+00 -0.89911713361E+00  0.90007688844E+02  0.89999949536E+02 0.  0.
         12    1    1    2    0    0  0.15721748229E+00  0.74833513150E+00  0.89911713361E+00  0.11803111563E+01  0.00000000000E+00 0. -1.
         11    1    3    3    0    0 -0.37486465552E+01  0.35120734716E+01  0.20703849183E+02  0.21331581806E+02  0.51100000000E-03 0. -1.
        -11    1    3    3    0    0 -0.19653441122E+02 -0.24120033583E+02  0.21863984473E+00  0.31114009250E+02  0.51100000000E-03 0.  1.
         12    1    3    3    0    0  0.23244870195E+02  0.19859624980E+02 -0.21821606162E+02  0.37562097788E+02  0.00000000000E+00 0. -1.
</event>
<event>
 7    1  0.4008281E-015  0.9000768E+02  0.7816164E-02  0.1186339E+00
        -11   -1    0    0    0    0  0.00000000000E+00  0.00000000000E+00  0.45593999997E+02  0.45594000000E+02  0.51100000000E-03 0.  1.
         11   -1    0    0    0    0 -0.00000000000E+00 -0.00000000000E+00 -0.45593999997E+02  0.45594000000E+02  0.51100000000E-03 0. -1.
    9900012    2    1    2    0    0 -0.11706954984E+00 -0.25310185520E+00  0.11469000356E+01  0.90007684144E+02  0.89999944775E+02 0.  0.
         12    1    1    2    0    0  0.11706954984E+00  0.25310185520E+00 -0.11469000356E+01  0.11803158561E+01  0.00000000000E+00 0. -1.
         11    1    3    3    0    0  0.40741439592E+01  0.39074488573E+01  0.63731669163E+01  0.85137572420E+01  0.51100000000E-03 0. -1.
        -11    1    3    3    0    0 -0.26747928130E+02  0.27924609492E+02  0.91244613447E+01  0.39730231179E+02  0.51100000000E-03 0.  1.
         12    1    3    3    0    0  0.22556714621E+02 -0.32085160204E+02 -0.14350728225E+02  0.41763695722E+02  0.00000000000E+00 0. -1.
</event>
<event>
 7    1  0.4008281E-015  0.9000784E+02  0.7816164E-02  0.1186339E+00
        -11   -1    0    0    0    0  0.00000000000E+00  0.00000000000E+00  0.45593999997E+02  0.45594000000E+02  0.51100000000E-03 0.  1.
         11   -1    0    0    0    0 -0.00000000000E+00 -0.00000000000E+00 -0.45593999997E+02  0.45594000000E+02  0.51100000000E-03 0. -1.
    9900012    2    1    2    0    0  0.11198747892E+01  0.36240425550E+00  0.85613463630E-01  0.90007836430E+02  0.90000099070E+02 0.  0.
         12    1    1    2    0    0 -0.11198747892E+01 -0.36240425550E+00 -0.85613463630E-01  0.11801635705E+01  0.00000000000E+00 0. -1.
         11    1    3    3    0    0  0.28390292392E+02  0.18091176856E+02 -0.18285256658E+02  0.38309920301E+02  0.51100000000E-03 0. -1.
        -11    1    3    3    0    0  0.88297823358E+01 -0.29095591392E+01  0.32917060354E+01  0.98623485726E+01  0.51100000000E-03 0.  1.
        -12    1    3    3    0    0 -0.36100199938E+02 -0.14819213462E+02  0.15079164087E+02  0.41835567556E+02  0.00000000000E+00 0.  1.
</event>
<event>
 7    1  0.4008281E-015  0.9000747E+02  0.7816164E-02  0.1186340E+00
        -11   -1    0    0    0    0  0.00000000000E+00  0.00000000000E+00  0.45593999997E+02  0.45594000000E+02  0.51100000000E-03 0.  1.
         11   -1    0    0    0    0 -0.00000000000E+00 -0.00000000000E+00 -0.45593999997E+02  0.45594000000E+02  0.51100000000E-03 0. -1.
    9900012    2    1    2    0    0 -0.10335098673E+01 -0.54544523395E+00  0.16733250478E+00  0.90007469053E+02  0.89999726844E+02 0.  0.
         12    1    1    2    0    0  0.10335098673E+01  0.54544523395E+00 -0.16733250478E+00  0.11805309467E+01  0.00000000000E+00 0. -1.
         11    1    3    3    0    0  0.43118013132E+01  0.25792618178E+00  0.72712885247E+01  0.84575288087E+01  0.51100000000E-03 0. -1.
        -11    1    3    3    0    0 -0.30669482097E+02 -0.33616574516E+01  0.25612226833E+02  0.40098678738E+02  0.51100000000E-03 0.  1.
         12    1    3    3    0    0  0.25324170916E+02  0.25582860358E+01 -0.32716182853E+02  0.41451261507E+02  0.00000000000E+00 0. -1.
</event>
<event>
 7    1  0.4008281E-015  0.9000774E+02  0.7816164E-02  0.1186339E+00
        -11   -1    0    0    0    0  0.00000000000E+00  0.00000000000E+00  0.45593999997E+02  0.45594000000E+02  0.51100000000E-03 0.  1.
         11   -1    0    0    0    0 -0.00000000000E+00 -0.00000000000E+00 -0.45593999997E+02  0.45594000000E+02  0.51100000000E-03 0. -1.
    9900012    2    1    2    0    0  0.64940470516E+00  0.97771201196E+00  0.12396778247E+00  0.90007739325E+02  0.90000000684E+02 0.  0.
         12    1    1    2    0    0 -0.64940470516E+00 -0.97771201196E+00 -0.12396778247E+00  0.11802606748E+01  0.00000000000E+00 0. -1.
         11    1    3    3    0    0 -0.53064266292E+00 -0.24840613768E+01  0.58765775081E+01  0.64020548286E+01  0.51100000000E-03 0. -1.
        -11    1    3    3    0    0  0.18409711976E+02 -0.34531156095E+02  0.74791111148E+01  0.39840373237E+02  0.51100000000E-03 0.  1.
         12    1    3    3    0    0 -0.17229664608E+02  0.37992929484E+02 -0.13231720840E+02  0.43765311260E+02  0.00000000000E+00 0. -1.
</event>
<event>
 7    1  0.4008281E-015  0.9000764E+02  0.7816164E-02  0.1186339E+00
        -11   -1    0    0    0    0  0.00000000000E+00  0.00000000000E+00  0.45593999997E+02  0.45594000000E+02  0.51100000000E-03 0.  1.
         11   -1    0    0    0    0 -0.00000000000E+00 -0.00000000000E+00 -0.45593999997E+02  0.45594000000E+02  0.51100000000E-03 0. -1.
    9900012    2    1    2    0    0  0.69229180648E+00 -0.95035293260E+00  0.10398464411E+00  0.90007639272E+02  0.89999899310E+02 0.  0.
         12    1    1    2    0    0 -0.69229180648E+00  0.95035293260E+00 -0.10398464411E+00  0.11803607279E+01  0.00000000000E+00 0. -1.
         11    1    3    3    0    0 -0.41525306544E+01 -0.13589050766E+02  0.98684357925E+01  0.17300053087E+02  0.51100000000E-03 0. -1.
        -11    1    3    3    0    0  0.17636488463E+02 -0.59524946670E+01  0.25056280670E+02  0.31213700827E+02  0.51100000000E-03 0.  1.
         12    1    3    3    0    0 -0.12791666002E+02  0.18591192501E+02 -0.34820731818E+02  0.41493885358E+02  0.00000000000E+00 0. -1.
</event>
<event>
 7    1  0.4008281E-015  0.9000778E+02  0.7816164E-02  0.1186339E+00
        -11   -1    0    0    0    0  0.00000000000E+00  0.00000000000E+00  0.45593999997E+02  0.45594000000E+02  0.51100000000E-03 0.  1.
         11   -1    0    0    0    0 -0.00000000000E+00 -0.00000000000E+00 -0.45593999997E+02  0.45594000000E+02  0.51100000000E-03 0. -1.
    9900012    2    1    2    0    0  0.98081725502E+00  0.49039396062E+00 -0.43637473558E+00  0.90007783226E+02  0.90000045164E+02 0.  0.
         12    1    1    2    0    0 -0.98081725502E+00 -0.49039396062E+00  0.43637473558E+00  0.11802167742E+01  0.00000000000E+00 0. -1.
         11    1    3    3    0    0 -0.54330668803E+01 -0.70531016122E+01 -0.68471163341E+01  0.11231538649E+02  0.51100000000E-03 0. -1.
        -11    1    3    3    0    0  0.31656491803E+02 -0.22745299982E+02  0.52331440011E+01  0.39330242065E+02  0.51100000000E-03 0.  1.
         12    1    3    3    0    0 -0.25242607667E+02  0.30288795555E+02  0.11775975974E+01  0.39446002511E+02  0.00000000000E+00 0. -1.
</event>
<event>
 7    1  0.4008281E-015  0.9000773E+02  0.7816164E-02  0.1186339E+00
        -11   -1    0    0    0    0  0.00000000000E+00  0.00000000000E+00  0.45593999997E+02  0.45594000000E+02  0.51100000000E-03 0.  1.
         11   -1    0    0    0    0 -0.00000000000E+00 -0.00000000000E+00 -0.45593999997E+02  0.45594000000E+02  0.51100000000E-03 0. -1.
    9900012    2    1    2    0    0 -0.65538639661E-01 -0.11513797967E+01  0.25112287306E+00  0.90007731621E+02  0.89999992878E+02 0.  0.
         12    1    1    2    0    0  0.65538639661E-01  0.11513797967E+01 -0.25112287306E+00  0.11802683792E+01  0.00000000000E+00 0. -1.
         11    1    3    3    0    0  0.27636722676E+02  0.23724612703E+02  0.19068143250E+02  0.41112525773E+02  0.51100000000E-03 0. -1.
        -11    1    3    3    0    0 -0.96611022064E+01  0.30037420938E+01  0.10928632366E+01  0.10176134469E+02  0.51100000000E-03 0.  1.
        -12    1    3    3    0    0 -0.18041159109E+02 -0.27879734593E+02 -0.19909883614E+02  0.38719071379E+02  0.00000000000E+00 0.  1.
</event>
<event>
 7    1  0.4008281E-015  0.9000767E+02  0.7816164E-02  0.1186339E+00
        -11   -1    0    0    0    0  0.00000000000E+00  0.00000000000E+00  0.45593999997E+02  0.45594000000E+02  0.51100000000E-03 0.  1.
         11   -1    0    0    0    0 -0.00000000000E+00 -0.00000000000E+00 -0.45593999997E+02  0.45594000000E+02  0.51100000000E-03 0. -1.
    9900012    2    1    2    0    0  0.94860654391E-01  0.66556335194E+00  0.97015736797E+00  0.90007670200E+02  0.89999930646E+02 0.  0.
         12    1    1    2    0    0 -0.94860654391E-01 -0.66556335194E+00 -0.97015736797E+00  0.11803298004E+01  0.00000000000E+00 0. -1.
         11    1    3    3    0    0 -0.18326775854E+01 -0.87198439008E+01  0.39396124347E+01  0.97424294292E+01  0.51100000000E-03 0. -1.
        -11    1    3    3    0    0 -0.28688959572E+02 -0.13383100020E+02  0.18317162781E+02  0.36574338272E+02  0.51100000000E-03 0.  1.
         12    1    3    3    0    0  0.30616497812E+02  0.22768507273E+02 -0.21286617848E+02  0.43690902498E+02  0.00000000000E+00 0. -1.
</event>
<event>
 7    1  0.4008281E-015  0.9000764E+02  0.7816164E-02  0.1186339E+00
        -11   -1    0    0    0    0  0.00000000000E+00  0.00000000000E+00  0.45593999997E+02  0.45594000000E+02  0.51100000000E-03 0.  1.
         11   -1    0    0    0    0 -0.00000000000E+00 -0.00000000000E+00 -0.45593999997E+02  0.45594000000E+02  0.51100000000E-03 0. -1.
    9900012    2    1    2    0    0  0.76797054275E+00  0.68139714005E+00  0.58237898322E+00  0.90007641539E+02  0.89999901607E+02 0.  0.
         12    1    1    2    0    0 -0.76797054275E+00 -0.68139714005E+00 -0.58237898322E+00  0.11803584613E+01  0.00000000000E+00 0. -1.
         11    1    3    3    0    0 -0.53868461452E+01  0.72445010867E+01 -0.35637116331E+01  0.97057172971E+01  0.51100000000E-03 0. -1.
        -11    1    3    3    0    0 -0.12550989024E+02  0.33067811783E+02 -0.44332466576E+01  0.35646334704E+02  0.51100000000E-03 0.  1.
         12    1    3    3    0    0  0.18705805712E+02 -0.39630915730E+02  0.85793372739E+01  0.44655589538E+02  0.00000000000E+00 0. -1.
</event>
<event>
 7    1  0.4008281E-015  0.9000773E+02  0.7816164E-02  0.1186339E+00
        -11   -1    0    0    0    0  0.00000000000E+00  0.00000000000E+00  0.45593999997E+02  0.45594000000E+02  0.51100000000E-03 0.  1.
         11   -1    0    0    0    0 -0.00000000000E+00 -0.00000000000E+00 -0.45593999997E+02  0.45594000000E+02  0.51100000000E-03 0. -1.
    9900012    2    1    2    0    0 -0.12961395576E+00 -0.49762561122E+00  0.10623593032E+01  0.90007729558E+02  0.89999990788E+02 0.  0.
         12    1    1    2    0    0  0.12961395576E+00  0.49762561122E+00 -0.10623593032E+01  0.11802704417E+01  0.00000000000E+00 0. -1.
         11    1    3    3    0    0 -0.18053318282E+01  0.15478628353E+02  0.64845564059E+01  0.16878881205E+02  0.51100000000E-03 0. -1.
        -11    1    3    3    0    0  0.10534750080E+02  0.25785246542E+01  0.30150227290E+02  0.32041628462E+02  0.51100000000E-03 0.  1.
         12    1    3    3    0    0 -0.88590322073E+01 -0.18554778618E+02 -0.35572424392E+02  0.41087219891E+02  0.00000000000E+00 0. -1.
</event>
<event>
 7    1  0.4008281E-015  0.9000780E+02  0.7816164E-02  0.1186339E+00
        -11   -1    0    0    0    0  0.00000000000E+00  0.00000000000E+00  0.45593999997E+02  0.45594000000E+02  0.51100000000E-03 0. -1.
         11   -1    0    0    0    0 -0.00000000000E+00 -0.00000000000E+00 -0.45593999997E+02  0.45594000000E+02  0.51100000000E-03 0.  1.
    9900012    2    1    2    0    0  0.71191379761E+00 -0.36118278864E+00 -0.86924875558E+00  0.90007801855E+02  0.90000064040E+02 0.  0.
         12    1    1    2    0    0 -0.71191379761E+00  0.36118278864E+00  0.86924875558E+00  0.11801981449E+01  0.00000000000E+00 0. -1.
         11    1    3    3    0    0 -0.13215232572E+02  0.20751758247E+01  0.44784180653E+01  0.14106911613E+02  0.51100000000E-03 0. -1.
        -11    1    3    3    0    0 -0.14692109781E+01 -0.22977735453E+02  0.26428182271E+02  0.35051158694E+02  0.51100000000E-03 0.  1.
         12    1    3    3    0    0  0.15396357347E+02  0.20541376839E+02 -0.31775849092E+02  0.40849731548E+02  0.00000000000E+00 0. -1.
</event>
<event>
 7    1  0.4008281E-015  0.9000783E+02  0.7816164E-02  0.1186339E+00
        -11   -1    0    0    0    0  0.00000000000E+00  0.00000000000E+00  0.45593999997E+02  0.45594000000E+02  0.51100000000E-03 0. -1.
         11   -1    0    0    0    0 -0.00000000000E+00 -0.00000000000E+00 -0.45593999997E+02  0.45594000000E+02  0.51100000000E-03 0.  1.
    9900012    2    1    2    0    0  0.11123353936E+01  0.14476779036E+00 -0.36682927376E+00  0.90007825667E+02  0.90000088165E+02 0.  0.
         12    1    1    2    0    0 -0.11123353936E+01 -0.14476779036E+00  0.36682927376E+00  0.11801743333E+01  0.00000000000E+00 0. -1.
         11    1    3    3    0    0 -0.56678659326E+00 -0.31244102450E+02  0.22043888843E+02  0.38241969359E+02  0.51100000000E-03 0. -1.
        -11    1    3    3    0    0  0.18437088058E+01  0.28740232155E+01  0.88304876379E+01  0.94676704521E+01  0.51100000000E-03 0.  1.
        -12    1    3    3    0    0 -0.16458681896E+00  0.28514847024E+02 -0.31241205754E+02  0.42298185855E+02  0.00000000000E+00 0.  1.
</event>
<event>
 7    1  0.4008281E-015  0.9000768E+02  0.7816164E-02  0.1186339E+00
        -11   -1    0    0    0    0  0.00000000000E+00  0.00000000000E+00  0.45593999997E+02  0.45594000000E+02  0.51100000000E-03 0.  1.
         11   -1    0    0    0    0 -0.00000000000E+00 -0.00000000000E+00 -0.45593999997E+02  0.45594000000E+02  0.51100000000E-03 0. -1.
    9900012    2    1    2    0    0 -0.65438832967E+00 -0.75633206149E+00  0.62681192465E+00  0.90007679932E+02  0.89999940507E+02 0.  0.
         12    1    1    2    0    0  0.65438832967E+00  0.75633206149E+00 -0.62681192465E+00  0.11803200677E+01  0.00000000000E+00 0. -1.
         11    1    3    3    0    0 -0.31651735280E+01  0.76569623821E+01  0.22096905870E+02  0.23599166207E+02  0.51100000000E-03 0. -1.
        -11    1    3    3    0    0 -0.74838693445E+00  0.26636403042E+02 -0.34685642005E+01  0.26871713527E+02  0.51100000000E-03 0.  1.
         12    1    3    3    0    0  0.32591721327E+01 -0.35049697485E+02 -0.18001529744E+02  0.39536800199E+02  0.00000000000E+00 0. -1.
</event>
<event>
 7    1  0.4008281E-015  0.9000755E+02  0.7816164E-02  0.1186339E+00
        -11   -1    0    0    0    0  0.00000000000E+00  0.00000000000E+00  0.45593999997E+02  0.45594000000E+02  0.51100000000E-03 0.  1.
         11   -1    0    0    0    0 -0.00000000000E+00 -0.00000000000E+00 -0.45593999997E+02  0.45594000000E+02  0.51100000000E-03 0. -1.
    9900012    2    1    2    0    0 -0.59203512359E+00  0.68359838089E+00  0.75871752457E+00  0.90007548978E+02  0.89999807824E+02 0.  0.
         12    1    1    2    0    0  0.59203512359E+00 -0.68359838089E+00 -0.75871752457E+00  0.11804510223E+01  0.00000000000E+00 0. -1.
         11    1    3    3    0    0 -0.92950203139E+01  0.40791201977E+01  0.21013331366E+01  0.10365916527E+02  0.51100000000E-03 0. -1.
        -11    1    3    3    0    0 -0.52978785358E+01  0.20607859757E+02  0.30620764503E+02  0.37287834742E+02  0.51100000000E-03 0.  1.
         12    1    3    3    0    0  0.14000863726E+02 -0.24003381573E+02 -0.31963380115E+02  0.42353797709E+02  0.00000000000E+00 0. -1.
</event>
<event>
 7    1  0.4008281E-015  0.9000778E+02  0.7816164E-02  0.1186339E+00
        -11   -1    0    0    0    0  0.00000000000E+00  0.00000000000E+00  0.45593999997E+02  0.45594000000E+02  0.51100000000E-03 0.  1.
         11   -1    0    0    0    0 -0.00000000000E+00 -0.00000000000E+00 -0.45593999997E+02  0.45594000000E+02  0.51100000000E-03 0. -1.
    9900012    2    1    2    0    0 -0.93050980674E-01  0.26062784197E+00  0.11473186761E+01  0.90007777351E+02  0.90000039212E+02 0.  0.
         12    1    1    2    0    0  0.93050980674E-01 -0.26062784197E+00 -0.11473186761E+01  0.11802226492E+01  0.00000000000E+00 0. -1.
         11    1    3    3    0    0  0.40863550074E+01  0.82587494551E+01 -0.10664804034E+02  0.14094086886E+02  0.51100000000E-03 0. -1.
        -11    1    3    3    0    0 -0.13784070417E+01  0.15487760359E+02  0.37740401702E+02  0.40817994167E+02  0.51100000000E-03 0.  1.
         12    1    3    3    0    0 -0.28009989464E+01 -0.23485881972E+02 -0.25928278992E+02  0.35095696297E+02  0.00000000000E+00 0. -1.
</event>
<event>
 7    1  0.4008281E-015  0.9000768E+02  0.7816164E-02  0.1186339E+00
        -11   -1    0    0    0    0  0.00000000000E+00  0.00000000000E+00  0.45593999997E+02  0.45594000000E+02  0.51100000000E-03 0.  1.
         11   -1    0    0    0    0 -0.00000000000E+00 -0.00000000000E+00 -0.45593999997E+02  0.45594000000E+02  0.51100000000E-03 0. -1.
    9900012    2    1    2    0    0  0.72717639446E+00  0.67364312624E+00  0.64076591668E+00  0.90007677362E+02  0.89999937903E+02 0.  0.
         12    1    1    2    0    0 -0.72717639446E+00 -0.67364312624E+00 -0.64076591668E+00  0.11803226382E+01  0.00000000000E+00 0. -1.
         11    1    3    3    0    0  0.24473601581E+01 -0.98766978594E+01  0.59198216850E+00  0.10192603961E+02  0.51100000000E-03 0. -1.
        -11    1    3    3    0    0  0.87506012098E+01 -0.33382712814E+02 -0.23279176019E+01  0.34588982884E+02  0.51100000000E-03 0.  1.
         12    1    3    3    0    0 -0.10470784973E+02  0.43933053800E+02  0.23767013500E+01  0.45226090517E+02  0.00000000000E+00 0. -1.
</event>
<event>
 7    1  0.4008281E-015  0.9000756E+02  0.7816164E-02  0.1186339E+00
        -11   -1    0    0    0    0  0.00000000000E+00  0.00000000000E+00  0.45593999997E+02  0.45594000000E+02  0.51100000000E-03 0. -1.
         11   -1    0    0    0    0 -0.00000000000E+00 -0.00000000000E+00 -0.45593999997E+02  0.45594000000E+02  0.51100000000E-03 0.  1.
    9900012    2    1    2    0    0  0.46707053221E+00 -0.89933361710E+00 -0.60537339815E+00  0.90007562459E+02  0.89999821483E+02 0.  0.
         12    1    1    2    0    0 -0.46707053221E+00  0.89933361710E+00  0.60537339815E+00  0.11804375410E+01  0.00000000000E+00 0. -1.
         11    1    3    3    0    0 -0.10949397921E+02 -0.54252369329E+01 -0.37095871305E+01  0.12770416891E+02  0.51100000000E-03 0. -1.
        -11    1    3    3    0    0 -0.17857560096E+02 -0.23315290285E+02  0.17691065496E+02  0.34285113567E+02  0.51100000000E-03 0.  1.
         12    1    3    3    0    0  0.29274028550E+02  0.27841193601E+02 -0.14586851763E+02  0.42952032001E+02  0.00000000000E+00 0. -1.
</event>
<event>
 7    1  0.4008281E-015  0.9000776E+02  0.7816164E-02  0.1186339E+00
        -11   -1    0    0    0    0  0.00000000000E+00  0.00000000000E+00  0.45593999997E+02  0.45594000000E+02  0.51100000000E-03 0. -1.
         11   -1    0    0    0    0 -0.00000000000E+00 -0.00000000000E+00 -0.45593999997E+02  0.45594000000E+02  0.51100000000E-03 0.  1.
    9900012    2    1    2    0    0  0.41352637811E+00  0.10522604267E+01 -0.33870567880E+00  0.90007755276E+02  0.90000016846E+02 0.  0.
         12    1    1    2    0    0 -0.41352637811E+00 -0.10522604267E+01  0.33870567880E+00  0.11802447237E+01  0.00000000000E+00 0. -1.
         11    1    3    3    0    0 -0.12509678799E+02 -0.35111456952E+02  0.11460044734E+02  0.38995372783E+02  0.51100000000E-03 0. -1.
        -11    1    3    3    0    0 -0.82467655418E+01  0.31987628466E+01  0.26843944124E+01  0.92437654272E+01  0.51100000000E-03 0.  1.
        -12    1    3    3    0    0  0.21169970719E+02  0.32964954532E+02 -0.14483144825E+02  0.41768617066E+02  0.00000000000E+00 0.  1.
</event>
<event>
 7    1  0.4008281E-015  0.9000773E+02  0.7816164E-02  0.1186339E+00
        -11   -1    0    0    0    0  0.00000000000E+00  0.00000000000E+00  0.45593999997E+02  0.45594000000E+02  0.51100000000E-03 0. -1.
         11   -1    0    0    0    0 -0.00000000000E+00 -0.00000000000E+00 -0.45593999997E+02  0.45594000000E+02  0.51100000000E-03 0.  1.
    9900012    2    1    2    0    0 -0.55440784756E+00  0.10413151980E+01  0.36524281552E-01  0.90007729088E+02  0.89999990312E+02 0.  0.
         12    1    1    2    0    0  0.55440784756E+00 -0.10413151980E+01 -0.36524281552E-01  0.11802709122E+01  0.00000000000E+00 0. -1.
         11    1    3    3    0    0 -0.10240124927E+02  0.35525978997E+02  0.80863376746E+01  0.37846323460E+02  0.51100000000E-03 0. -1.
        -11    1    3    3    0    0 -0.59569207724E+01  0.47556933380E+01 -0.62880790975E+01  0.98813695008E+01  0.51100000000E-03 0.  1.
        -12    1    3    3    0    0  0.15642637852E+02 -0.39240357137E+02 -0.17617342955E+01  0.42280036127E+02  0.00000000000E+00 0.  1.
</event>
<event>
 7    1  0.4008281E-015  0.9000783E+02  0.7816164E-02  0.1186339E+00
        -11   -1    0    0    0    0  0.00000000000E+00  0.00000000000E+00  0.45593999997E+02  0.45594000000E+02  0.51100000000E-03 0.  1.
         11   -1    0    0    0    0 -0.00000000000E+00 -0.00000000000E+00 -0.45593999997E+02  0.45594000000E+02  0.51100000000E-03 0. -1.
    9900012    2    1    2    0    0 -0.54743087704E-01  0.66122627792E+00  0.97600728982E+00  0.90007827459E+02  0.90000089982E+02 0.  0.
         12    1    1    2    0    0  0.54743087704E-01 -0.66122627792E+00 -0.97600728982E+00  0.11801725408E+01  0.00000000000E+00 0. -1.
         11    1    3    3    0    0  0.33065498697E+02  0.11258562305E+01 -0.16997696601E+02  0.37195650906E+02  0.51100000000E-03 0. -1.
        -11    1    3    3    0    0  0.81602998884E+01 -0.30595233802E+00  0.12005105801E+01  0.82538068196E+01  0.51100000000E-03 0.  1.
        -12    1    3    3    0    0 -0.41280541673E+02 -0.15867761457E+00  0.16773193311E+02  0.44558369733E+02  0.00000000000E+00 0.  1.
</event>
<event>
 7    1  0.4008281E-015  0.9000784E+02  0.7816164E-02  0.1186339E+00
        -11   -1    0    0    0    0  0.00000000000E+00  0.00000000000E+00  0.45593999997E+02  0.45594000000E+02  0.51100000000E-03 0.  1.
         11   -1    0    0    0    0 -0.00000000000E+00 -0.00000000000E+00 -0.45593999997E+02  0.45594000000E+02  0.51100000000E-03 0. -1.
    9900012    2    1    2    0    0 -0.63775660974E+00 -0.79293943218E+00  0.59773056562E+00  0.90007843966E+02  0.90000106706E+02 0.  0.
         12    1    1    2    0    0  0.63775660974E+00  0.79293943218E+00 -0.59773056562E+00  0.11801560344E+01  0.00000000000E+00 0. -1.
         11    1    3    3    0    0 -0.54668971116E+01 -0.22919163118E+02 -0.35125472082E+02  0.42296262143E+02  0.51100000000E-03 0. -1.
        -11    1    3    3    0    0 -0.49484195223E+01  0.68805089570E+01  0.98088903234E+00  0.85317291818E+01  0.51100000000E-03 0.  1.
        -12    1    3    3    0    0  0.97775600241E+01  0.15245714729E+02  0.34742313615E+02  0.39179852641E+02  0.00000000000E+00 0.  1.
</event>
<event>
 7    1  0.4008281E-015  0.9000777E+02  0.7816164E-02  0.1186339E+00
        -11   -1    0    0    0    0  0.00000000000E+00  0.00000000000E+00  0.45593999997E+02  0.45594000000E+02  0.51100000000E-03 0.  1.
         11   -1    0    0    0    0 -0.00000000000E+00 -0.00000000000E+00 -0.45593999997E+02  0.45594000000E+02  0.51100000000E-03 0. -1.
    9900012    2    1    2    0    0 -0.21860858968E+00 -0.11472721800E+01  0.17006951300E+00  0.90007768324E+02  0.90000030066E+02 0.  0.
         12    1    1    2    0    0  0.21860858968E+00  0.11472721800E+01 -0.17006951300E+00  0.11802316763E+01  0.00000000000E+00 0. -1.
         11    1    3    3    0    0 -0.75372621742E+01 -0.18433704802E+02  0.33490217299E+01  0.20194745372E+02  0.51100000000E-03 0. -1.
        -11    1    3    3    0    0 -0.23229458258E+01 -0.14564075119E+02 -0.25699817930E+02  0.29630879219E+02  0.51100000000E-03 0.  1.
        -12    1    3    3    0    0  0.96415994103E+01  0.31850507741E+02  0.22520865713E+02  0.40182143733E+02  0.00000000000E+00 0.  1.
</event>
<event>
 7    1  0.4008281E-015  0.9000735E+02  0.7816164E-02  0.1186340E+00
        -11   -1    0    0    0    0  0.00000000000E+00  0.00000000000E+00  0.45593999997E+02  0.45594000000E+02  0.51100000000E-03 0.  1.
         11   -1    0    0    0    0 -0.00000000000E+00 -0.00000000000E+00 -0.45593999997E+02  0.45594000000E+02  0.51100000000E-03 0. -1.
    9900012    2    1    2    0    0  0.11416585301E+01 -0.12706554782E+00 -0.27277947609E+00  0.90007348275E+02  0.89999604472E+02 0.  0.
         12    1    1    2    0    0 -0.11416585301E+01  0.12706554782E+00  0.27277947609E+00  0.11806517248E+01  0.00000000000E+00 0. -1.
         11    1    3    3    0    0  0.96918557642E+01 -0.25722058918E+02 -0.27019803891E+02  0.38543821628E+02  0.51100000000E-03 0. -1.
        -11    1    3    3    0    0  0.71336099993E+01  0.39658416196E+01 -0.53066644553E+01  0.97353469007E+01  0.51100000000E-03 0.  1.
        -12    1    3    3    0    0 -0.15683807233E+02  0.21629151751E+02  0.32053688870E+02  0.41728179746E+02  0.00000000000E+00 0.  1.
</event>
<event>
 7    1  0.4008281E-015  0.9000746E+02  0.7816164E-02  0.1186340E+00
        -11   -1    0    0    0    0  0.00000000000E+00  0.00000000000E+00  0.45593999997E+02  0.45594000000E+02  0.51100000000E-03 0.  1.
         11   -1    0    0    0    0 -0.00000000000E+00 -0.00000000000E+00 -0.45593999997E+02  0.45594000000E+02  0.51100000000E-03 0. -1.
    9900012    2    1    2    0    0  0.75237599840E+00  0.29683729745E+00  0.85993313768E+00  0.90007463247E+02  0.89999720961E+02 0.  0.
         12    1    1    2    0    0 -0.75237599840E+00 -0.29683729745E+00 -0.85993313768E+00  0.11805367531E+01  0.00000000000E+00 0. -1.
         11    1    3    3    0    0  0.24702547592E+02 -0.28169469224E+02 -0.18522708205E+02  0.41795042450E+02  0.51100000000E-03 0. -1.
        -11    1    3    3    0    0 -0.16579040942E+01 -0.15966948445E+01  0.91179665034E+01  0.94040094550E+01  0.51100000000E-03 0.  1.
        -12    1    3    3    0    0 -0.22292267499E+02  0.30063001366E+02  0.10264674839E+02  0.38808411342E+02  0.00000000000E+00 0.  1.
</event>
<event>
 7    1  0.4008281E-015  0.9000867E+02  0.7816164E-02  0.1186337E+00
        -11   -1    0    0    0    0  0.00000000000E+00  0.00000000000E+00  0.45593999997E+02  0.45594000000E+02  0.51100000000E-03 0. -1.
         11   -1    0    0    0    0 -0.00000000000E+00 -0.00000000000E+00 -0.45593999997E+02  0.45594000000E+02  0.51100000000E-03 0.  1.
    9900012    2    1    2    0    0  0.80154168013E+00 -0.46397464134E+00 -0.73012482349E+00  0.90008668074E+02  0.90000941688E+02 0.  0.
         12    1    1    2    0    0 -0.80154168013E+00  0.46397464134E+00  0.73012482349E+00  0.11793319256E+01  0.00000000000E+00 0. -1.
         11    1    3    3    0    0  0.91229209188E+01  0.37077095606E+01  0.27801155203E+02  0.29493711655E+02  0.51100000000E-03 0. -1.
        -11    1    3    3    0    0  0.45030798700E+01 -0.84627776386E+01  0.13389215565E+02  0.16467162093E+02  0.51100000000E-03 0.  1.
        -12    1    3    3    0    0 -0.12824459109E+02  0.42910934367E+01 -0.41920495592E+02  0.44047794326E+02  0.00000000000E+00 0.  1.
</event>
<event>
 7    1  0.4008281E-015  0.9000752E+02  0.7816164E-02  0.1186339E+00
        -11   -1    0    0    0    0  0.00000000000E+00  0.00000000000E+00  0.45593999997E+02  0.45594000000E+02  0.51100000000E-03 0. -1.
         11   -1    0    0    0    0 -0.00000000000E+00 -0.00000000000E+00 -0.45593999997E+02  0.45594000000E+02  0.51100000000E-03 0.  1.
    9900012    2    1    2    0    0  0.10650112568E+00  0.11680004619E+01 -0.13405838644E+00  0.90007517378E+02  0.89999775808E+02 0.  0.
         12    1    1    2    0    0 -0.10650112568E+00 -0.11680004619E+01  0.13405838644E+00  0.11804826215E+01  0.00000000000E+00 0. -1.
         11    1    3    3    0    0  0.12624315912E+01  0.99069145526E+01 -0.21171067321E+01  0.10208958353E+02  0.51100000000E-03 0. -1.
        -11    1    3    3    0    0  0.82071645220E+01 -0.36035978317E+02  0.23503889120E+02  0.43799338885E+02  0.51100000000E-03 0.  1.
         12    1    3    3    0    0 -0.93630949875E+01  0.27297064226E+02 -0.21520840774E+02  0.35999220141E+02  0.00000000000E+00 0. -1.
</event>
<event>
 7    1  0.4008281E-015  0.9000775E+02  0.7816164E-02  0.1186339E+00
        -11   -1    0    0    0    0  0.00000000000E+00  0.00000000000E+00  0.45593999997E+02  0.45594000000E+02  0.51100000000E-03 0. -1.
         11   -1    0    0    0    0 -0.00000000000E+00 -0.00000000000E+00 -0.45593999997E+02  0.45594000000E+02  0.51100000000E-03 0.  1.
    9900012    2    1    2    0    0 -0.26755843563E+00  0.10700015681E+01 -0.42011550808E+00  0.90007750911E+02  0.90000012423E+02 0.  0.
         12    1    1    2    0    0  0.26755843563E+00 -0.10700015681E+01  0.42011550808E+00  0.11802490891E+01  0.00000000000E+00 0. -1.
         11    1    3    3    0    0 -0.37462926172E+02 -0.77088201990E+01  0.75036135193E+01  0.38976928591E+02  0.51100000000E-03 0. -1.
        -11    1    3    3    0    0 -0.31617422562E+00  0.84963764015E+01  0.66425173641E+01  0.10789412185E+02  0.51100000000E-03 0.  1.
        -12    1    3    3    0    0  0.37511541962E+02  0.28244536556E+00 -0.14566246391E+02  0.40241410136E+02  0.00000000000E+00 0.  1.
</event>
<event>
 7    1  0.4008281E-015  0.9000771E+02  0.7816164E-02  0.1186339E+00
        -11   -1    0    0    0    0  0.00000000000E+00  0.00000000000E+00  0.45593999997E+02  0.45594000000E+02  0.51100000000E-03 0.  1.
         11   -1    0    0    0    0 -0.00000000000E+00 -0.00000000000E+00 -0.45593999997E+02  0.45594000000E+02  0.51100000000E-03 0. -1.
    9900012    2    1    2    0    0  0.10048100456E+01 -0.35725485225E-01  0.61819755582E+00  0.90007708614E+02  0.89999969568E+02 0.  0.
         12    1    1    2    0    0 -0.10048100456E+01  0.35725485225E-01 -0.61819755582E+00  0.11802913861E+01  0.00000000000E+00 0. -1.
         11    1    3    3    0    0  0.29795092361E+01 -0.73085633612E+01  0.47157241959E+01  0.91940539831E+01  0.51100000000E-03 0. -1.
        -11    1    3    3    0    0  0.30792292817E+02 -0.18427962806E+02  0.92945749992E+01  0.37069451504E+02  0.51100000000E-03 0.  1.
         12    1    3    3    0    0 -0.32766992008E+02  0.25700800682E+02 -0.13392101639E+02  0.43744203127E+02  0.00000000000E+00 0. -1.
</event>
<event>
 7    1  0.4008281E-015  0.9000787E+02  0.7816164E-02  0.1186339E+00
        -11   -1    0    0    0    0  0.00000000000E+00  0.00000000000E+00  0.45593999997E+02  0.45594000000E+02  0.51100000000E-03 0.  1.
         11   -1    0    0    0    0 -0.00000000000E+00 -0.00000000000E+00 -0.45593999997E+02  0.45594000000E+02  0.51100000000E-03 0. -1.
    9900012    2    1    2    0    0  0.69899298325E+00  0.91631031881E+00 -0.25394899790E+00  0.90007870395E+02  0.90000133484E+02 0.  0.
         12    1    1    2    0    0 -0.69899298325E+00 -0.91631031881E+00  0.25394899790E+00  0.11801296050E+01  0.00000000000E+00 0. -1.
         11    1    3    3    0    0  0.94236121221E+01 -0.35321379792E+02 -0.98252539462E+01  0.37854193311E+02  0.51100000000E-03 0. -1.
        -11    1    3    3    0    0 -0.39762107425E+01 -0.65324314712E+01  0.43690381116E+01  0.88074631465E+01  0.51100000000E-03 0.  1.
        -12    1    3    3    0    0 -0.47484083964E+01  0.42770121582E+02  0.52022668366E+01  0.43346213937E+02  0.00000000000E+00 0.  1.
</event>
<event>
 7    1  0.4008281E-015  0.9000780E+02  0.7816164E-02  0.1186339E+00
        -11   -1    0    0    0    0  0.00000000000E+00  0.00000000000E+00  0.45593999997E+02  0.45594000000E+02  0.51100000000E-03 0. -1.
         11   -1    0    0    0    0 -0.00000000000E+00 -0.00000000000E+00 -0.45593999997E+02  0.45594000000E+02  0.51100000000E-03 0.  1.
    9900012    2    1    2    0    0 -0.74148336543E+00  0.91652005263E+00 -0.55454777669E-01  0.90007795856E+02  0.90000057962E+02 0.  0.
         12    1    1    2    0    0  0.74148336543E+00 -0.91652005263E+00  0.55454777669E-01  0.11802041435E+01  0.00000000000E+00 0. -1.
         11    1    3    3    0    0 -0.31334483638E+02 -0.16746313236E+02 -0.27340658185E+01  0.35633747881E+02  0.51100000000E-03 0. -1.
        -11    1    3    3    0    0 -0.37606224058E+01 -0.94929221746E+01  0.27841145945E+01  0.10583437373E+02  0.51100000000E-03 0.  1.
        -12    1    3    3    0    0  0.34353622679E+02  0.27155755463E+02 -0.10550355364E+00  0.43790610602E+02  0.00000000000E+00 0.  1.
</event>
<event>
 7    1  0.4008281E-015  0.9000776E+02  0.7816164E-02  0.1186339E+00
        -11   -1    0    0    0    0  0.00000000000E+00  0.00000000000E+00  0.45593999997E+02  0.45594000000E+02  0.51100000000E-03 0. -1.
         11   -1    0    0    0    0 -0.00000000000E+00 -0.00000000000E+00 -0.45593999997E+02  0.45594000000E+02  0.51100000000E-03 0.  1.
    9900012    2    1    2    0    0  0.56573355736E+00  0.61048020880E+00 -0.83679567600E+00  0.90007759539E+02  0.90000021165E+02 0.  0.
         12    1    1    2    0    0 -0.56573355736E+00 -0.61048020880E+00  0.83679567600E+00  0.11802404614E+01  0.00000000000E+00 0. -1.
         11    1    3    3    0    0 -0.40988820176E+02  0.70645415644E+01  0.27769500380E+01  0.41685759903E+02  0.51100000000E-03 0. -1.
        -11    1    3    3    0    0  0.23672002715E+01 -0.51056959171E+01 -0.69812212334E+01  0.89671187176E+01  0.51100000000E-03 0.  1.
        -12    1    3    3    0    0  0.39187353462E+02 -0.13483654384E+01  0.33674755194E+01  0.39354880918E+02  0.00000000000E+00 0.  1.
</event>
<event>
 7    1  0.4008281E-015  0.9000774E+02  0.7816164E-02  0.1186339E+00
        -11   -1    0    0    0    0  0.00000000000E+00  0.00000000000E+00  0.45593999997E+02  0.45594000000E+02  0.51100000000E-03 0.  1.
         11   -1    0    0    0    0 -0.00000000000E+00 -0.00000000000E+00 -0.45593999997E+02  0.45594000000E+02  0.51100000000E-03 0. -1.
    9900012    2    1    2    0    0  0.64558153822E+00  0.83101200325E+00  0.53447084970E+00  0.90007739198E+02  0.90000000555E+02 0.  0.
         12    1    1    2    0    0 -0.64558153822E+00 -0.83101200325E+00 -0.53447084970E+00  0.11802608022E+01  0.00000000000E+00 0. -1.
         11    1    3    3    0    0 -0.85213289506E+01 -0.29749861240E+02 -0.27859808353E+02  0.41639358937E+02  0.51100000000E-03 0. -1.
        -11    1    3    3    0    0 -0.47596155812E+01  0.44080686164E+01 -0.10642557964E+01  0.65740132392E+01  0.51100000000E-03 0.  1.
        -12    1    3    3    0    0  0.13926526070E+02  0.26172804627E+02  0.29458535000E+02  0.41794367022E+02  0.00000000000E+00 0.  1.
</event>
<event>
 7    1  0.4008281E-015  0.9000779E+02  0.7816164E-02  0.1186339E+00
        -11   -1    0    0    0    0  0.00000000000E+00  0.00000000000E+00  0.45593999997E+02  0.45594000000E+02  0.51100000000E-03 0.  1.
         11   -1    0    0    0    0 -0.00000000000E+00 -0.00000000000E+00 -0.45593999997E+02  0.45594000000E+02  0.51100000000E-03 0. -1.
    9900012    2    1    2    0    0  0.76584060855E+00 -0.81936074394E+00 -0.36745440073E+00  0.90007793830E+02  0.90000055909E+02 0.  0.
         12    1    1    2    0    0 -0.76584060855E+00  0.81936074394E+00  0.36745440073E+00  0.11802061697E+01  0.00000000000E+00 0. -1.
         11    1    3    3    0    0  0.11675711147E+02 -0.18100363498E+01  0.18029067686E+01  0.11951942748E+02  0.51100000000E-03 0. -1.
        -11    1    3    3    0    0  0.18185577735E+02 -0.84512388564E+01 -0.30408504003E+02  0.36425482725E+02  0.51100000000E-03 0.  1.
         12    1    3    3    0    0 -0.29095448273E+02  0.94419144623E+01  0.28238142833E+02  0.41630368358E+02  0.00000000000E+00 0. -1.
</event>
<event>
 7    1  0.4008281E-015  0.9000773E+02  0.7816164E-02  0.1186339E+00
        -11   -1    0    0    0    0  0.00000000000E+00  0.00000000000E+00  0.45593999997E+02  0.45594000000E+02  0.51100000000E-03 0. -1.
         11   -1    0    0    0    0 -0.00000000000E+00 -0.00000000000E+00 -0.45593999997E+02  0.45594000000E+02  0.51100000000E-03 0.  1.
    9900012    2    1    2    0    0 -0.22482639065E+00  0.11734656860E+00 -0.11527036711E+01  0.90007727626E+02  0.89999988831E+02 0.  0.
         12    1    1    2    0    0  0.22482639065E+00 -0.11734656860E+00  0.11527036711E+01  0.11802723739E+01  0.00000000000E+00 0. -1.
         11    1    3    3    0    0  0.81803666451E+01  0.30784269111E+02  0.10995240461E+02  0.33696957374E+02  0.51100000000E-03 0. -1.
        -11    1    3    3    0    0  0.58491276938E+01  0.67072126097E+01 -0.13635829724E+02  0.16282961901E+02  0.51100000000E-03 0.  1.
        -12    1    3    3    0    0 -0.14254320730E+02 -0.37374135153E+02  0.14878855912E+01  0.40027808351E+02  0.00000000000E+00 0.  1.
</event>
<event>
 7    1  0.4008281E-015  0.9000788E+02  0.7816164E-02  0.1186339E+00
        -11   -1    0    0    0    0  0.00000000000E+00  0.00000000000E+00  0.45593999997E+02  0.45594000000E+02  0.51100000000E-03 0. -1.
         11   -1    0    0    0    0 -0.00000000000E+00 -0.00000000000E+00 -0.45593999997E+02  0.45594000000E+02  0.51100000000E-03 0.  1.
    9900012    2    1    2    0    0 -0.36741913687E+00 -0.11110817011E+01  0.15224562213E+00  0.90007882168E+02  0.90000145412E+02 0.  0.
         12    1    1    2    0    0  0.36741913687E+00  0.11110817011E+01 -0.15224562213E+00  0.11801178323E+01  0.00000000000E+00 0. -1.
         11    1    3    3    0    0  0.75615545154E+01 -0.17086781575E+00  0.88707136909E+01  0.11657438147E+02  0.51100000000E-03 0. -1.
        -11    1    3    3    0    0  0.32099652134E+02  0.13755348428E+02 -0.50912264938E+00  0.34926443902E+02  0.51100000000E-03 0.  1.
         12    1    3    3    0    0 -0.40028625787E+02 -0.14695562313E+02 -0.82093454194E+01  0.43424000119E+02  0.00000000000E+00 0. -1.
</event>
<event>
 7    1  0.4008281E-015  0.9000775E+02  0.7816164E-02  0.1186339E+00
        -11   -1    0    0    0    0  0.00000000000E+00  0.00000000000E+00  0.45593999997E+02  0.45594000000E+02  0.51100000000E-03 0. -1.
         11   -1    0    0    0    0 -0.00000000000E+00 -0.00000000000E+00 -0.45593999997E+02  0.45594000000E+02  0.51100000000E-03 0.  1.
    9900012    2    1    2    0    0  0.51781952648E+00 -0.94151793278E+00 -0.48826778574E+00  0.90007746421E+02  0.90000007874E+02 0.  0.
         12    1    1    2    0    0 -0.51781952648E+00  0.94151793278E+00  0.48826778574E+00  0.11802535788E+01  0.00000000000E+00 0. -1.
         11    1    3    3    0    0 -0.36161265329E+02 -0.46813113715E+01 -0.14003886162E+02  0.39059705762E+02  0.51100000000E-03 0. -1.
        -11    1    3    3    0    0 -0.47852297695E+01 -0.20962715924E+00 -0.35228804541E+01  0.59458434598E+01  0.51100000000E-03 0.  1.
        -12    1    3    3    0    0  0.41464314625E+02  0.39494205980E+01  0.17038498830E+02  0.45002197199E+02  0.00000000000E+00 0.  1.
</event>
<event>
 7    1  0.4008281E-015  0.9000776E+02  0.7816164E-02  0.1186339E+00
        -11   -1    0    0    0    0  0.00000000000E+00  0.00000000000E+00  0.45593999997E+02  0.45594000000E+02  0.51100000000E-03 0. -1.
         11   -1    0    0    0    0 -0.00000000000E+00 -0.00000000000E+00 -0.45593999997E+02  0.45594000000E+02  0.51100000000E-03 0.  1.
    9900012    2    1    2    0    0 -0.10761329818E+01  0.42024945772E+00 -0.24144455124E+00  0.90007759655E+02  0.90000021282E+02 0.  0.
         12    1    1    2    0    0  0.10761329818E+01 -0.42024945772E+00  0.24144455124E+00  0.11802403453E+01  0.00000000000E+00 0. -1.
         11    1    3    3    0    0 -0.21901494588E+02  0.13265279795E+02 -0.27132374471E+02  0.37306954552E+02  0.51100000000E-03 0. -1.
        -11    1    3    3    0    0 -0.76268617410E+01  0.53310420920E+01 -0.36089825815E+00  0.93123185951E+01  0.51100000000E-03 0.  1.
        -12    1    3    3    0    0  0.28452223347E+02 -0.18176072429E+02  0.27251828178E+02  0.43388486508E+02  0.00000000000E+00 0.  1.
</event>
<event>
 7    1  0.4008281E-015  0.9000774E+02  0.7816164E-02  0.1186339E+00
        -11   -1    0    0    0    0  0.00000000000E+00  0.00000000000E+00  0.45593999997E+02  0.45594000000E+02  0.51100000000E-03 0. -1.
         11   -1    0    0    0    0 -0.00000000000E+00 -0.00000000000E+00 -0.45593999997E+02  0.45594000000E+02  0.51100000000E-03 0.  1.
    9900012    2    1    2    0    0 -0.44833969925E+00  0.90868721891E-01 -0.10880016238E+01  0.90007740222E+02  0.90000001593E+02 0.  0.
         12    1    1    2    0    0  0.44833969925E+00 -0.90868721891E-01  0.10880016238E+01  0.11802597782E+01  0.00000000000E+00 0. -1.
         11    1    3    3    0    0 -0.33457048672E+02  0.10157150798E+02  0.71882378945E+01  0.35696114388E+02  0.51100000000E-03 0. -1.
        -11    1    3    3    0    0 -0.50422221861E+01  0.91043833320E+01  0.17168760507E+01  0.10548054990E+02  0.51100000000E-03 0.  1.
        -12    1    3    3    0    0  0.38050931158E+02 -0.19170665408E+02 -0.99931155690E+01  0.43763570844E+02  0.00000000000E+00 0.  1.
</event>
<event>
 7    1  0.4008281E-015  0.9000772E+02  0.7816164E-02  0.1186339E+00
        -11   -1    0    0    0    0  0.00000000000E+00  0.00000000000E+00  0.45593999997E+02  0.45594000000E+02  0.51100000000E-03 0. -1.
         11   -1    0    0    0    0 -0.00000000000E+00 -0.00000000000E+00 -0.45593999997E+02  0.45594000000E+02  0.51100000000E-03 0.  1.
    9900012    2    1    2    0    0  0.35432485341E+00  0.78813561846E+00 -0.80396616028E+00  0.90007718067E+02  0.89999979145E+02 0.  0.
         12    1    1    2    0    0 -0.35432485341E+00 -0.78813561846E+00  0.80396616028E+00  0.11802819331E+01  0.00000000000E+00 0. -1.
         11    1    3    3    0    0  0.38899493464E+01  0.71771426014E+01  0.33440262747E+01  0.88218815355E+01  0.51100000000E-03 0. -1.
        -11    1    3    3    0    0  0.33615489098E+02  0.14018783094E+02 -0.11439907698E+02  0.38175893901E+02  0.51100000000E-03 0.  1.
         12    1    3    3    0    0 -0.37151113591E+02 -0.20407790077E+02  0.72919152628E+01  0.43009942630E+02  0.00000000000E+00 0. -1.
</event>
<event>
 7    1  0.4008281E-015  0.9000790E+02  0.7816164E-02  0.1186339E+00
        -11   -1    0    0    0    0  0.00000000000E+00  0.00000000000E+00  0.45593999997E+02  0.45594000000E+02  0.51100000000E-03 0. -1.
         11   -1    0    0    0    0 -0.00000000000E+00 -0.00000000000E+00 -0.45593999997E+02  0.45594000000E+02  0.51100000000E-03 0.  1.
    9900012    2    1    2    0    0  0.10031783281E+01  0.44376979154E+00 -0.43513725661E+00  0.90007897116E+02  0.90000160557E+02 0.  0.
         12    1    1    2    0    0 -0.10031783281E+01 -0.44376979154E+00  0.43513725661E+00  0.11801028845E+01  0.00000000000E+00 0. -1.
         11    1    3    3    0    0  0.17893518463E+02  0.37972682590E+02  0.67329656457E+01  0.42513944215E+02  0.51100000000E-03 0. -1.
        -11    1    3    3    0    0 -0.12835035184E+01  0.19239287383E+01 -0.44065343646E+01  0.49765880319E+01  0.51100000000E-03 0.  1.
        -12    1    3    3    0    0 -0.15606836617E+02 -0.39452841537E+02 -0.27615685377E+01  0.42517364868E+02  0.00000000000E+00 0.  1.
</event>
<event>
 7    1  0.4008281E-015  0.9000875E+02  0.7816164E-02  0.1186337E+00
        -11   -1    0    0    0    0  0.00000000000E+00  0.00000000000E+00  0.45593999997E+02  0.45594000000E+02  0.51100000000E-03 0. -1.
         11   -1    0    0    0    0 -0.00000000000E+00 -0.00000000000E+00 -0.45593999997E+02  0.45594000000E+02  0.51100000000E-03 0.  1.
    9900012    2    1    2    0    0  0.11165618076E+01 -0.17918474950E+00  0.33438020102E+00  0.90008751272E+02  0.90001025982E+02 0.  0.
         12    1    1    2    0    0 -0.11165618076E+01  0.17918474950E+00 -0.33438020102E+00  0.11792487284E+01  0.00000000000E+00 0. -1.
         11    1    3    3    0    0  0.87113889560E+01  0.28069495415E+02  0.14892671867E+02  0.32948088655E+02  0.51100000000E-03 0. -1.
        -11    1    3    3    0    0  0.59574432676E+01 -0.63860161330E+01  0.15320559731E+02  0.17634961953E+02  0.51100000000E-03 0.  1.
        -12    1    3    3    0    0 -0.13552270416E+02 -0.21862664032E+02 -0.29878851397E+02  0.39425700664E+02  0.00000000000E+00 0.  1.
</event>
<event>
 7    1  0.4008281E-015  0.9000786E+02  0.7816164E-02  0.1186339E+00
        -11   -1    0    0    0    0  0.00000000000E+00  0.00000000000E+00  0.45593999997E+02  0.45594000000E+02  0.51100000000E-03 0.  1.
         11   -1    0    0    0    0 -0.00000000000E+00 -0.00000000000E+00 -0.45593999997E+02  0.45594000000E+02  0.51100000000E-03 0. -1.
    9900012    2    1    2    0    0  0.16016955147E+00 -0.89194368278E+00  0.75598123589E+00  0.90007862107E+02  0.90000125086E+02 0.  0.
         12    1    1    2    0    0 -0.16016955147E+00  0.89194368278E+00 -0.75598123589E+00  0.11801378934E+01  0.00000000000E+00 0. -1.
         11    1    3    3    0    0 -0.18721740776E+02  0.30730388718E+02  0.14003411803E+01  0.36011405473E+02  0.51100000000E-03 0. -1.
        -11    1    3    3    0    0 -0.62703555863E+01  0.26507820972E+01 -0.83690593696E+01  0.10788195396E+02  0.51100000000E-03 0.  1.
        -12    1    3    3    0    0  0.25152265914E+02 -0.34273114498E+02  0.77246994252E+01  0.43208261238E+02  0.00000000000E+00 0.  1.
</event>
<event>
 7    1  0.4008281E-015  0.9000769E+02  0.7816164E-02  0.1186339E+00
        -11   -1    0    0    0    0  0.00000000000E+00  0.00000000000E+00  0.45593999997E+02  0.45594000000E+02  0.51100000000E-03 0.  1.
         11   -1    0    0    0    0 -0.00000000000E+00 -0.00000000000E+00 -0.45593999997E+02  0.45594000000E+02  0.51100000000E-03 0. -1.
    9900012    2    1    2    0    0 -0.42602320431E+00 -0.34316978556E+00  0.10458800455E+01  0.90007692268E+02  0.89999953006E+02 0.  0.
         12    1    1    2    0    0  0.42602320431E+00  0.34316978556E+00 -0.10458800455E+01  0.11803077319E+01  0.00000000000E+00 0. -1.
         11    1    3    3    0    0  0.33473618483E+02 -0.76080529107E+01  0.70870110599E+01  0.35051267160E+02  0.51100000000E-03 0. -1.
        -11    1    3    3    0    0  0.51930539432E+01  0.14096704894E+01  0.10740392498E+02  0.12012951820E+02  0.51100000000E-03 0.  1.
        -12    1    3    3    0    0 -0.39092695631E+02  0.58552126358E+01 -0.16781523513E+02  0.42943473289E+02  0.00000000000E+00 0.  1.
</event>
<event>
 7    1  0.4008281E-015  0.9000751E+02  0.7816164E-02  0.1186339E+00
        -11   -1    0    0    0    0  0.00000000000E+00  0.00000000000E+00  0.45593999997E+02  0.45594000000E+02  0.51100000000E-03 0. -1.
         11   -1    0    0    0    0 -0.00000000000E+00 -0.00000000000E+00 -0.45593999997E+02  0.45594000000E+02  0.51100000000E-03 0.  1.
    9900012    2    1    2    0    0 -0.10138614275E+00 -0.76648386172E+00 -0.89205897589E+00  0.90007514559E+02  0.89999772951E+02 0.  0.
         12    1    1    2    0    0  0.10138614275E+00  0.76648386172E+00  0.89205897589E+00  0.11804854411E+01  0.00000000000E+00 0. -1.
         11    1    3    3    0    0 -0.24168872518E+02  0.23134575045E+02  0.26022823716E+02  0.42385496526E+02  0.51100000000E-03 0. -1.
        -11    1    3    3    0    0  0.36433460869E+01 -0.11982518366E+02 -0.10372024105E+01  0.12567040471E+02  0.51100000000E-03 0.  1.
        -12    1    3    3    0    0  0.20424140289E+02 -0.11918540541E+02 -0.25877680281E+02  0.35054977562E+02  0.00000000000E+00 0.  1.
</event>
<event>
 7    1  0.4008281E-015  0.9000772E+02  0.7816164E-02  0.1186339E+00
        -11   -1    0    0    0    0  0.00000000000E+00  0.00000000000E+00  0.45593999997E+02  0.45594000000E+02  0.51100000000E-03 0. -1.
         11   -1    0    0    0    0 -0.00000000000E+00 -0.00000000000E+00 -0.45593999997E+02  0.45594000000E+02  0.51100000000E-03 0.  1.
    9900012    2    1    2    0    0  0.79037345663E+00  0.50084671843E-01 -0.87513979937E+00  0.90007716837E+02  0.89999977900E+02 0.  0.
         12    1    1    2    0    0 -0.79037345663E+00 -0.50084671843E-01  0.87513979937E+00  0.11802831625E+01  0.00000000000E+00 0. -1.
         11    1    3    3    0    0  0.15316924159E+02  0.18073826564E+02 -0.26904765699E+02  0.35848818529E+02  0.51100000000E-03 0. -1.
        -11    1    3    3    0    0 -0.39999677536E+00  0.11024413371E+02 -0.22136627024E+01  0.11251577241E+02  0.51100000000E-03 0.  1.
        -12    1    3    3    0    0 -0.14126553927E+02 -0.29048155263E+02  0.28243288602E+02  0.42907321067E+02  0.00000000000E+00 0.  1.
</event>
<event>
 7    1  0.4008281E-015  0.9000770E+02  0.7816164E-02  0.1186339E+00
        -11   -1    0    0    0    0  0.00000000000E+00  0.00000000000E+00  0.45593999997E+02  0.45594000000E+02  0.51100000000E-03 0. -1.
         11   -1    0    0    0    0 -0.00000000000E+00 -0.00000000000E+00 -0.45593999997E+02  0.45594000000E+02  0.51100000000E-03 0.  1.
    9900012    2    1    2    0    0 -0.43512291213E+00  0.89654017615E+00 -0.63244930796E+00  0.90007699884E+02  0.89999960723E+02 0.  0.
         12    1    1    2    0    0  0.43512291213E+00 -0.89654017615E+00  0.63244930796E+00  0.11803001158E+01  0.00000000000E+00 0. -1.
         11    1    3    3    0    0  0.83421355612E+01  0.17475609707E+01 -0.39384543546E+01  0.93891755779E+01  0.51100000000E-03 0. -1.
        -11    1    3    3    0    0  0.93217440469E+00  0.36279426235E+02 -0.13500281528E+02  0.38721096558E+02  0.51100000000E-03 0.  1.
         12    1    3    3    0    0 -0.97094328781E+01 -0.37130447030E+02  0.16806286574E+02  0.41897427748E+02  0.00000000000E+00 0. -1.
</event>
<event>
 7    1  0.4008281E-015  0.9000775E+02  0.7816164E-02  0.1186339E+00
        -11   -1    0    0    0    0  0.00000000000E+00  0.00000000000E+00  0.45593999997E+02  0.45594000000E+02  0.51100000000E-03 0. -1.
         11   -1    0    0    0    0 -0.00000000000E+00 -0.00000000000E+00 -0.45593999997E+02  0.45594000000E+02  0.51100000000E-03 0.  1.
    9900012    2    1    2    0    0  0.10613152917E+01 -0.15693193124E-01 -0.51609715277E+00  0.90007748884E+02  0.90000010370E+02 0.  0.
         12    1    1    2    0    0 -0.10613152917E+01  0.15693193124E-01  0.51609715277E+00  0.11802511156E+01  0.00000000000E+00 0. -1.
         11    1    3    3    0    0 -0.67825322840E+01  0.41569946879E+01 -0.16067468120E+01  0.81157245269E+01  0.51100000000E-03 0. -1.
        -11    1    3    3    0    0 -0.33591653778E+02  0.10660034115E+02 -0.97497068586E+01  0.36566272916E+02  0.51100000000E-03 0.  1.
         12    1    3    3    0    0  0.41435501354E+02 -0.14832721996E+02  0.10840356518E+02  0.45325751441E+02  0.00000000000E+00 0. -1.
</event>
<event>
 7    1  0.4008281E-015  0.9000757E+02  0.7816164E-02  0.1186339E+00
        -11   -1    0    0    0    0  0.00000000000E+00  0.00000000000E+00  0.45593999997E+02  0.45594000000E+02  0.51100000000E-03 0.  1.
         11   -1    0    0    0    0 -0.00000000000E+00 -0.00000000000E+00 -0.45593999997E+02  0.45594000000E+02  0.51100000000E-03 0. -1.
    9900012    2    1    2    0    0 -0.75711965447E+00 -0.77486161774E+00  0.46879436331E+00  0.90007572597E+02  0.89999831755E+02 0.  0.
         12    1    1    2    0    0  0.75711965447E+00  0.77486161774E+00 -0.46879436331E+00  0.11804274026E+01  0.00000000000E+00 0. -1.
         11    1    3    3    0    0 -0.36733669373E+01  0.40345046422E+01 -0.36824004739E+02  0.37226041660E+02  0.51100000000E-03 0. -1.
        -11    1    3    3    0    0 -0.83387115632E+01 -0.37903155725E+01 -0.39818154626E+01  0.99877653814E+01  0.51100000000E-03 0.  1.
        -12    1    3    3    0    0  0.11254958846E+02 -0.10190506874E+01  0.41274614565E+02  0.42793765556E+02  0.00000000000E+00 0.  1.
</event>
<event>
 7    1  0.4659205E-015  0.9000763E+02  0.7816164E-02  0.1186339E+00
        -11   -1    0    0    0    0  0.00000000000E+00  0.00000000000E+00  0.45593999997E+02  0.45594000000E+02  0.51100000000E-03 0.  1.
         11   -1    0    0    0    0 -0.00000000000E+00 -0.00000000000E+00 -0.45593999997E+02  0.45594000000E+02  0.51100000000E-03 0. -1.
    9900012    2    1    2    0    0  0.81299157660E+00  0.61131397060E+00  0.59884463913E+00  0.90007629306E+02  0.89999889212E+02 0.  0.
         12    1    1    2    0    0 -0.81299157660E+00 -0.61131397060E+00 -0.59884463913E+00  0.11803706944E+01  0.00000000000E+00 0. -1.
         11    1    3    3    0    0  0.12416159348E+01 -0.91251758628E+01  0.20847495976E+01  0.94422786340E+01  0.51100000000E-03 0. -1.
        -11    1    3    3    0    0 -0.32027008770E+02 -0.19354881287E+02 -0.33755739183E+01  0.37573065086E+02  0.51100000000E-03 0.  1.
         12    1    3    3    0    0  0.31598384412E+02  0.29091371120E+02  0.18896689598E+01  0.42992285586E+02  0.00000000000E+00 0. -1.
</event>
<event>
 7    1  0.4008281E-015  0.9000774E+02  0.7816164E-02  0.1186339E+00
        -11   -1    0    0    0    0  0.00000000000E+00  0.00000000000E+00  0.45593999997E+02  0.45594000000E+02  0.51100000000E-03 0. -1.
         11   -1    0    0    0    0 -0.00000000000E+00 -0.00000000000E+00 -0.45593999997E+02  0.45594000000E+02  0.51100000000E-03 0.  1.
    9900012    2    1    2    0    0 -0.13721644579E+00  0.11509570548E+01 -0.22242468100E+00  0.90007744420E+02  0.90000005847E+02 0.  0.
         12    1    1    2    0    0  0.13721644579E+00 -0.11509570548E+01  0.22242468100E+00  0.11802555798E+01  0.00000000000E+00 0. -1.
         11    1    3    3    0    0  0.69592971007E+01  0.68256866384E+01 -0.55671675689E+00  0.97637978282E+01  0.51100000000E-03 0. -1.
        -11    1    3    3    0    0  0.21065310900E+01  0.36409014259E+02  0.54050654861E+01  0.36868259054E+02  0.51100000000E-03 0.  1.
         12    1    3    3    0    0 -0.92030446366E+01 -0.42083743842E+02 -0.50707734102E+01  0.43375687538E+02  0.00000000000E+00 0. -1.
</event>
<event>
 7    1  0.4008281E-015  0.9000774E+02  0.7816164E-02  0.1186339E+00
        -11   -1    0    0    0    0  0.00000000000E+00  0.00000000000E+00  0.45593999997E+02  0.45594000000E+02  0.51100000000E-03 0.  1.
         11   -1    0    0    0    0 -0.00000000000E+00 -0.00000000000E+00 -0.45593999997E+02  0.45594000000E+02  0.51100000000E-03 0. -1.
    9900012    2    1    2    0    0 -0.69719859023E+00 -0.59313335134E+00 -0.74506355296E+00  0.90007740391E+02  0.90000001764E+02 0.  0.
         12    1    1    2    0    0  0.69719859023E+00  0.59313335134E+00  0.74506355296E+00  0.11802596090E+01  0.00000000000E+00 0. -1.
         11    1    3    3    0    0 -0.19734320384E+02  0.11338010399E+02 -0.29448053771E+02  0.37218029932E+02  0.51100000000E-03 0. -1.
        -11    1    3    3    0    0  0.10752550878E+01 -0.28893815787E+01 -0.92981256919E+01  0.97959094041E+01  0.51100000000E-03 0.  1.
        -12    1    3    3    0    0  0.17961866707E+02 -0.90417621718E+01  0.38001115910E+02  0.42993801055E+02  0.00000000000E+00 0.  1.
</event>
<event>
 7    1  0.4008281E-015  0.9000765E+02  0.7816164E-02  0.1186339E+00
        -11   -1    0    0    0    0  0.00000000000E+00  0.00000000000E+00  0.45593999997E+02  0.45594000000E+02  0.51100000000E-03 0.  1.
         11   -1    0    0    0    0 -0.00000000000E+00 -0.00000000000E+00 -0.45593999997E+02  0.45594000000E+02  0.51100000000E-03 0. -1.
    9900012    2    1    2    0    0 -0.26112169517E+00  0.54828388826E+00  0.10121401770E+01  0.90007649417E+02  0.89999909589E+02 0.  0.
         12    1    1    2    0    0  0.26112169517E+00 -0.54828388826E+00 -0.10121401770E+01  0.11803505834E+01  0.00000000000E+00 0. -1.
         11    1    3    3    0    0  0.13662651274E+02 -0.12841286167E+02 -0.17121302988E+02  0.25391055246E+02  0.51100000000E-03 0. -1.
        -11    1    3    3    0    0  0.20261096345E+02  0.60994955145E+01 -0.61743306880E+01  0.22041738369E+02  0.51100000000E-03 0.  1.
         12    1    3    3    0    0 -0.34184869314E+02  0.72900745406E+01  0.24307773853E+02  0.42574855801E+02  0.00000000000E+00 0. -1.
</event>
<event>
 7    1  0.4008281E-015  0.9000785E+02  0.7816164E-02  0.1186339E+00
        -11   -1    0    0    0    0  0.00000000000E+00  0.00000000000E+00  0.45593999997E+02  0.45594000000E+02  0.51100000000E-03 0.  1.
         11   -1    0    0    0    0 -0.00000000000E+00 -0.00000000000E+00 -0.45593999997E+02  0.45594000000E+02  0.51100000000E-03 0. -1.
    9900012    2    1    2    0    0 -0.65606356968E+00  0.82340393011E+00  0.53322742941E+00  0.90007853852E+02  0.90000116723E+02 0.  0.
         12    1    1    2    0    0  0.65606356968E+00 -0.82340393011E+00 -0.53322742941E+00  0.11801461482E+01  0.00000000000E+00 0. -1.
         11    1    3    3    0    0  0.58959036462E+01  0.29900095907E+02 -0.19971017482E+02  0.36436505795E+02  0.51100000000E-03 0. -1.
        -11    1    3    3    0    0  0.17184728241E+01  0.51859036265E+01  0.17343106655E+02  0.18183236620E+02  0.51100000000E-03 0.  1.
        -12    1    3    3    0    0 -0.82704400399E+01 -0.34262595603E+02  0.31611382563E+01  0.35388111436E+02  0.00000000000E+00 0.  1.
</event>
<event>
 7    1  0.4008281E-015  0.9000770E+02  0.7816164E-02  0.1186339E+00
        -11   -1    0    0    0    0  0.00000000000E+00  0.00000000000E+00  0.45593999997E+02  0.45594000000E+02  0.51100000000E-03 0.  1.
         11   -1    0    0    0    0 -0.00000000000E+00 -0.00000000000E+00 -0.45593999997E+02  0.45594000000E+02  0.51100000000E-03 0. -1.
    9900012    2    1    2    0    0 -0.32959690327E+00 -0.96043091913E+00  0.60169931308E+00  0.90007701846E+02  0.89999962710E+02 0.  0.
         12    1    1    2    0    0  0.32959690327E+00  0.96043091913E+00 -0.60169931308E+00  0.11802981540E+01  0.00000000000E+00 0. -1.
         11    1    3    3    0    0 -0.68039045300E+01 -0.90916597288E-02 -0.51234709439E+01  0.85172269129E+01  0.51100000000E-03 0. -1.
        -11    1    3    3    0    0 -0.19291455794E+02 -0.21364044525E+00  0.36537440553E+02  0.41318161519E+02  0.51100000000E-03 0.  1.
         12    1    3    3    0    0  0.25765763421E+02 -0.73769881416E+00 -0.30812270296E+02  0.40172313414E+02  0.00000000000E+00 0. -1.
</event>
<event>
 7    1  0.4008281E-015  0.9000777E+02  0.7816164E-02  0.1186339E+00
        -11   -1    0    0    0    0  0.00000000000E+00  0.00000000000E+00  0.45593999997E+02  0.45594000000E+02  0.51100000000E-03 0. -1.
         11   -1    0    0    0    0 -0.00000000000E+00 -0.00000000000E+00 -0.45593999997E+02  0.45594000000E+02  0.51100000000E-03 0.  1.
    9900012    2    1    2    0    0 -0.63023620694E+00 -0.80566328790E+00  0.58876467220E+00  0.90007773391E+02  0.90000035199E+02 0.  0.
         12    1    1    2    0    0  0.63023620694E+00  0.80566328790E+00 -0.58876467220E+00  0.11802266093E+01  0.00000000000E+00 0. -1.
         11    1    3    3    0    0 -0.46149053102E+01  0.76369529232E+01  0.60885015589E+00  0.89437743569E+01  0.51100000000E-03 0. -1.
        -11    1    3    3    0    0  0.31037654987E+02  0.93548628194E+01  0.24343828587E+02  0.40539751800E+02  0.51100000000E-03 0.  1.
         12    1    3    3    0    0 -0.27052985884E+02 -0.17797479031E+02 -0.24363914070E+02  0.40524247234E+02  0.00000000000E+00 0. -1.
</event>
<event>
 7    1  0.4008281E-015  0.9000770E+02  0.7816164E-02  0.1186339E+00
        -11   -1    0    0    0    0  0.00000000000E+00  0.00000000000E+00  0.45593999997E+02  0.45594000000E+02  0.51100000000E-03 0. -1.
         11   -1    0    0    0    0 -0.00000000000E+00 -0.00000000000E+00 -0.45593999997E+02  0.45594000000E+02  0.51100000000E-03 0.  1.
    9900012    2    1    2    0    0 -0.11293659473E+01 -0.29435284871E+00 -0.17609014713E+00  0.90007695470E+02  0.89999956251E+02 0.  0.
         12    1    1    2    0    0  0.11293659473E+01  0.29435284871E+00  0.17609014713E+00  0.11803045295E+01  0.00000000000E+00 0. -1.
         11    1    3    3    0    0 -0.18442181412E+00 -0.86696680236E+01 -0.13436012184E+01  0.87751022524E+01  0.51100000000E-03 0. -1.
        -11    1    3    3    0    0 -0.88401110903E+01 -0.53979357671E+01 -0.37779800676E+02  0.39173953260E+02  0.51100000000E-03 0.  1.
         12    1    3    3    0    0  0.78951669571E+01  0.13773250942E+02  0.38947311747E+02  0.42058639958E+02  0.00000000000E+00 0. -1.
</event>
<event>
 7    1  0.4008281E-015  0.9000772E+02  0.7816164E-02  0.1186339E+00
        -11   -1    0    0    0    0  0.00000000000E+00  0.00000000000E+00  0.45593999997E+02  0.45594000000E+02  0.51100000000E-03 0. -1.
         11   -1    0    0    0    0 -0.00000000000E+00 -0.00000000000E+00 -0.45593999997E+02  0.45594000000E+02  0.51100000000E-03 0.  1.
    9900012    2    1    2    0    0  0.42795055330E+00 -0.99261121401E+00  0.47397050823E+00  0.90007717516E+02  0.89999978588E+02 0.  0.
         12    1    1    2    0    0 -0.42795055330E+00  0.99261121401E+00 -0.47397050823E+00  0.11802824835E+01  0.00000000000E+00 0. -1.
         11    1    3    3    0    0  0.39186260466E+02  0.14999948042E+01  0.20585209536E+01  0.39268950871E+02  0.51100000000E-03 0. -1.
        -11    1    3    3    0    0  0.14143108618E+01  0.71541532689E+01  0.50834075413E+01  0.88895003628E+01  0.51100000000E-03 0.  1.
        -12    1    3    3    0    0 -0.40172620775E+02 -0.96467592871E+01 -0.66679579867E+01  0.41849266282E+02  0.00000000000E+00 0.  1.
</event>
<event>
 7    1  0.4008281E-015  0.9000774E+02  0.7816164E-02  0.1186339E+00
        -11   -1    0    0    0    0  0.00000000000E+00  0.00000000000E+00  0.45593999997E+02  0.45594000000E+02  0.51100000000E-03 0.  1.
         11   -1    0    0    0    0 -0.00000000000E+00 -0.00000000000E+00 -0.45593999997E+02  0.45594000000E+02  0.51100000000E-03 0. -1.
    9900012    2    1    2    0    0 -0.68671936981E+00  0.36203604405E+00  0.88901942902E+00  0.90007741920E+02  0.90000003313E+02 0.  0.
         12    1    1    2    0    0  0.68671936981E+00 -0.36203604405E+00 -0.88901942902E+00  0.11802580799E+01  0.00000000000E+00 0. -1.
         11    1    3    3    0    0  0.24199916606E+02 -0.90903523615E+01 -0.29976229736E+02  0.39583390699E+02  0.51100000000E-03 0. -1.
        -11    1    3    3    0    0 -0.24317073647E+01  0.95275327974E+01 -0.25563438031E+01  0.10159821643E+02  0.51100000000E-03 0.  1.
        -12    1    3    3    0    0 -0.22454928611E+02 -0.75144391819E-01  0.33421592968E+02  0.40264529578E+02  0.00000000000E+00 0.  1.
</event>
<event>
 7    1  0.4008281E-015  0.9000831E+02  0.7816164E-02  0.1186338E+00
        -11   -1    0    0    0    0  0.00000000000E+00  0.00000000000E+00  0.45593999997E+02  0.45594000000E+02  0.51100000000E-03 0. -1.
         11   -1    0    0    0    0 -0.00000000000E+00 -0.00000000000E+00 -0.45593999997E+02  0.45594000000E+02  0.51100000000E-03 0.  1.
    9900012    2    1    2    0    0 -0.10028550825E+00  0.12247058935E+00 -0.11690200755E+01  0.90008311836E+02  0.90000580750E+02 0.  0.
         12    1    1    2    0    0  0.10028550825E+00 -0.12247058935E+00  0.11690200755E+01  0.11796881645E+01  0.00000000000E+00 0. -1.
         11    1    3    3    0    0  0.21711460521E+02  0.29658406176E+02 -0.43483732324E+01  0.37012388803E+02  0.51100000000E-03 0. -1.
        -11    1    3    3    0    0  0.94546128874E+01 -0.51393786021E+00  0.41191053755E+01  0.10325738053E+02  0.51100000000E-03 0.  1.
        -12    1    3    3    0    0 -0.31266358917E+02 -0.29021997727E+02 -0.93975221864E+00  0.42670184980E+02  0.00000000000E+00 0.  1.
</event>
<event>
 7    1  0.4008281E-015  0.9000788E+02  0.7816164E-02  0.1186339E+00
        -11   -1    0    0    0    0  0.00000000000E+00  0.00000000000E+00  0.45593999997E+02  0.45594000000E+02  0.51100000000E-03 0.  1.
         11   -1    0    0    0    0 -0.00000000000E+00 -0.00000000000E+00 -0.45593999997E+02  0.45594000000E+02  0.51100000000E-03 0. -1.
    9900012    2    1    2    0    0 -0.10486558021E+01  0.54123596255E+00  0.88382560259E-02  0.90007875653E+02  0.90000138812E+02 0.  0.
         12    1    1    2    0    0  0.10486558021E+01 -0.54123596255E+00 -0.88382560259E-02  0.11801243465E+01  0.00000000000E+00 0. -1.
         11    1    3    3    0    0 -0.33119988798E+02 -0.17006664938E+02 -0.20455482260E+01  0.37287324631E+02  0.51100000000E-03 0. -1.
        -11    1    3    3    0    0 -0.23868430973E+01 -0.81329793319E+01  0.46486107406E+01  0.96670551287E+01  0.51100000000E-03 0.  1.
        -12    1    3    3    0    0  0.34458176093E+02  0.25680880233E+02 -0.25942242586E+01  0.43053495894E+02  0.00000000000E+00 0.  1.
</event>
<event>
 7    1  0.4008281E-015  0.9000780E+02  0.7816164E-02  0.1186339E+00
        -11   -1    0    0    0    0  0.00000000000E+00  0.00000000000E+00  0.45593999997E+02  0.45594000000E+02  0.51100000000E-03 0. -1.
         11   -1    0    0    0    0 -0.00000000000E+00 -0.00000000000E+00 -0.45593999997E+02  0.45594000000E+02  0.51100000000E-03 0.  1.
    9900012    2    1    2    0    0  0.78871983113E-01  0.37121231321E+00 -0.11175239934E+01  0.90007796947E+02  0.90000059066E+02 0.  0.
         12    1    1    2    0    0 -0.78871983113E-01 -0.37121231321E+00  0.11175239934E+01  0.11802030533E+01  0.00000000000E+00 0. -1.
         11    1    3    3    0    0 -0.12489040116E+02 -0.28125797626E+02  0.18478680478E+02  0.35895657782E+02  0.51100000000E-03 0. -1.
        -11    1    3    3    0    0 -0.19277563596E+01 -0.94214587973E+01 -0.17807104049E+01  0.97801360041E+01  0.51100000000E-03 0.  1.
        -12    1    3    3    0    0  0.14495668459E+02  0.37918468737E+02 -0.17815494066E+02  0.44332003161E+02  0.00000000000E+00 0.  1.
</event>
<event>
 7    1  0.4008281E-015  0.9000790E+02  0.7816164E-02  0.1186339E+00
        -11   -1    0    0    0    0  0.00000000000E+00  0.00000000000E+00  0.45593999997E+02  0.45594000000E+02  0.51100000000E-03 0.  1.
         11   -1    0    0    0    0 -0.00000000000E+00 -0.00000000000E+00 -0.45593999997E+02  0.45594000000E+02  0.51100000000E-03 0. -1.
    9900012    2    1    2    0    0 -0.11301544026E+00  0.10718918443E+01  0.48052166263E+00  0.90007904375E+02  0.90000167913E+02 0.  0.
         12    1    1    2    0    0  0.11301544026E+00 -0.10718918443E+01 -0.48052166263E+00  0.11800956248E+01  0.00000000000E+00 0. -1.
         11    1    3    3    0    0  0.28677592273E+01 -0.80382842980E+01  0.52909185563E+01  0.10041507699E+02  0.51100000000E-03 0. -1.
        -11    1    3    3    0    0 -0.18012663265E+02  0.20543145029E+02  0.29867754070E+02  0.40479125225E+02  0.51100000000E-03 0.  1.
         12    1    3    3    0    0  0.15031888597E+02 -0.11432968887E+02 -0.34678150964E+02  0.39487271451E+02  0.00000000000E+00 0. -1.
</event>
<event>
 7    1  0.4008281E-015  0.9000774E+02  0.7816164E-02  0.1186339E+00
        -11   -1    0    0    0    0  0.00000000000E+00  0.00000000000E+00  0.45593999997E+02  0.45594000000E+02  0.51100000000E-03 0.  1.
         11   -1    0    0    0    0 -0.00000000000E+00 -0.00000000000E+00 -0.45593999997E+02  0.45594000000E+02  0.51100000000E-03 0. -1.
    9900012    2    1    2    0    0  0.36928775663E+00  0.24906273072E-01  0.11207244564E+01  0.90007738556E+02  0.89999999905E+02 0.  0.
         12    1    1    2    0    0 -0.36928775663E+00 -0.24906273072E-01 -0.11207244564E+01  0.11802614443E+01  0.00000000000E+00 0. -1.
         11    1    3    3    0    0 -0.25811656922E+01  0.59768691772E+01 -0.89514745689E+01  0.11068616838E+02  0.51100000000E-03 0. -1.
        -11    1    3    3    0    0 -0.14142165474E+02 -0.27863486820E+02 -0.20695635526E+02  0.37479115146E+02  0.51100000000E-03 0.  1.
         12    1    3    3    0    0  0.17092618923E+02  0.21911523916E+02  0.30767834551E+02  0.41460006572E+02  0.00000000000E+00 0. -1.
</event>
<event>
 7    1  0.4008281E-015  0.9000773E+02  0.7816164E-02  0.1186339E+00
        -11   -1    0    0    0    0  0.00000000000E+00  0.00000000000E+00  0.45593999997E+02  0.45594000000E+02  0.51100000000E-03 0.  1.
         11   -1    0    0    0    0 -0.00000000000E+00 -0.00000000000E+00 -0.45593999997E+02  0.45594000000E+02  0.51100000000E-03 0. -1.
    9900012    2    1    2    0    0  0.80507427567E+00 -0.79572584809E+00  0.33423656554E+00  0.90007729566E+02  0.89999990797E+02 0.  0.
         12    1    1    2    0    0 -0.80507427567E+00  0.79572584809E+00 -0.33423656554E+00  0.11802704336E+01  0.00000000000E+00 0. -1.
         11    1    3    3    0    0  0.57897376246E+01  0.14581293017E+02 -0.10982274250E+02  0.19150600925E+02  0.51100000000E-03 0. -1.
        -11    1    3    3    0    0 -0.15570747148E+01  0.24182158195E+02  0.18523278237E+02  0.30501034303E+02  0.51100000000E-03 0.  1.
         12    1    3    3    0    0 -0.34275886341E+01 -0.39559177061E+02 -0.72067674208E+01  0.40356094338E+02  0.00000000000E+00 0. -1.
</event>
<event>
 7    1  0.4008281E-015  0.9000784E+02  0.7816164E-02  0.1186339E+00
        -11   -1    0    0    0    0  0.00000000000E+00  0.00000000000E+00  0.45593999997E+02  0.45594000000E+02  0.51100000000E-03 0. -1.
         11   -1    0    0    0    0 -0.00000000000E+00 -0.00000000000E+00 -0.45593999997E+02  0.45594000000E+02  0.51100000000E-03 0.  1.
    9900012    2    1    2    0    0  0.50036150845E-01 -0.18735567697E+00 -0.11641214736E+01  0.90007837057E+02  0.90000099706E+02 0.  0.
         12    1    1    2    0    0 -0.50036150845E-01  0.18735567697E+00  0.11641214736E+01  0.11801629427E+01  0.00000000000E+00 0. -1.
         11    1    3    3    0    0 -0.81656100252E+01 -0.45220026479E+01  0.33513734713E+02  0.34789310279E+02  0.51100000000E-03 0. -1.
        -11    1    3    3    0    0 -0.73320741439E+01 -0.10446763149E+02  0.18106971871E+01  0.12890802772E+02  0.51100000000E-03 0.  1.
        -12    1    3    3    0    0  0.15547720320E+02  0.14781410120E+02 -0.36488553373E+02  0.42327724006E+02  0.00000000000E+00 0.  1.
</event>
<event>
 7    1  0.4008281E-015  0.9000781E+02  0.7816164E-02  0.1186339E+00
        -11   -1    0    0    0    0  0.00000000000E+00  0.00000000000E+00  0.45593999997E+02  0.45594000000E+02  0.51100000000E-03 0.  1.
         11   -1    0    0    0    0 -0.00000000000E+00 -0.00000000000E+00 -0.45593999997E+02  0.45594000000E+02  0.51100000000E-03 0. -1.
    9900012    2    1    2    0    0 -0.14223926668E+00  0.10288531896E+01  0.56042178090E+00  0.90007812105E+02  0.90000074425E+02 0.  0.
         12    1    1    2    0    0  0.14223926668E+00 -0.10288531896E+01 -0.56042178090E+00  0.11801878949E+01  0.00000000000E+00 0. -1.
         11    1    3    3    0    0 -0.11333849815E+02 -0.33259419866E+02 -0.89006747544E+01  0.36247305732E+02  0.51100000000E-03 0. -1.
        -11    1    3    3    0    0 -0.35334388040E+01 -0.33987766371E+01 -0.82464573719E+01  0.95937965300E+01  0.51100000000E-03 0.  1.
        -12    1    3    3    0    0  0.14725049353E+02  0.37687049693E+02  0.17707553907E+02  0.44166709843E+02  0.00000000000E+00 0.  1.
</event>
<event>
 7    1  0.4008281E-015  0.9000774E+02  0.7816164E-02  0.1186339E+00
        -11   -1    0    0    0    0  0.00000000000E+00  0.00000000000E+00  0.45593999997E+02  0.45594000000E+02  0.51100000000E-03 0.  1.
         11   -1    0    0    0    0 -0.00000000000E+00 -0.00000000000E+00 -0.45593999997E+02  0.45594000000E+02  0.51100000000E-03 0. -1.
    9900012    2    1    2    0    0 -0.67152658101E+00 -0.95542527331E+00  0.17095093035E+00  0.90007741714E+02  0.90000003104E+02 0.  0.
         12    1    1    2    0    0  0.67152658101E+00  0.95542527331E+00 -0.17095093035E+00  0.11802582863E+01  0.00000000000E+00 0. -1.
         11    1    3    3    0    0  0.75487302722E+01 -0.36093984961E+01 -0.66003664708E+01  0.10657200572E+02  0.51100000000E-03 0. -1.
        -11    1    3    3    0    0  0.10405470829E+02 -0.34778836199E+02  0.92644303807E+01  0.37465596767E+02  0.51100000000E-03 0.  1.
         12    1    3    3    0    0 -0.18625727683E+02  0.37432809422E+02 -0.24931129796E+01  0.41884944375E+02  0.00000000000E+00 0. -1.
</event>
<event>
 7    1  0.4008281E-015  0.9000779E+02  0.7816164E-02  0.1186339E+00
        -11   -1    0    0    0    0  0.00000000000E+00  0.00000000000E+00  0.45593999997E+02  0.45594000000E+02  0.51100000000E-03 0. -1.
         11   -1    0    0    0    0 -0.00000000000E+00 -0.00000000000E+00 -0.45593999997E+02  0.45594000000E+02  0.51100000000E-03 0.  1.
    9900012    2    1    2    0    0 -0.10444874077E+01  0.49234240545E+00  0.24399538178E+00  0.90007792927E+02  0.90000054993E+02 0.  0.
         12    1    1    2    0    0  0.10444874077E+01 -0.49234240545E+00 -0.24399538178E+00  0.11802070731E+01  0.00000000000E+00 0. -1.
         11    1    3    3    0    0  0.39423066470E+00  0.57015380626E+01 -0.66074968463E+01  0.87362445554E+01  0.51100000000E-03 0. -1.
        -11    1    3    3    0    0  0.10041493760E+02  0.17040046508E+01 -0.35457301045E+02  0.36891129373E+02  0.51100000000E-03 0.  1.
         12    1    3    3    0    0 -0.11480211833E+02 -0.69132003079E+01  0.42308793273E+02  0.44380418998E+02  0.00000000000E+00 0. -1.
</event>
<event>
 7    1  0.4008281E-015  0.9000768E+02  0.7816164E-02  0.1186339E+00
        -11   -1    0    0    0    0  0.00000000000E+00  0.00000000000E+00  0.45593999997E+02  0.45594000000E+02  0.51100000000E-03 0. -1.
         11   -1    0    0    0    0 -0.00000000000E+00 -0.00000000000E+00 -0.45593999997E+02  0.45594000000E+02  0.51100000000E-03 0.  1.
    9900012    2    1    2    0    0  0.58779219770E+00  0.95451174554E+00 -0.36952865256E+00  0.90007684887E+02  0.89999945528E+02 0.  0.
         12    1    1    2    0    0 -0.58779219770E+00 -0.95451174554E+00  0.36952865256E+00  0.11803151126E+01  0.00000000000E+00 0. -1.
         11    1    3    3    0    0 -0.31729268625E+01 -0.23932966929E+00 -0.89681584418E+01  0.95159134960E+01  0.51100000000E-03 0. -1.
        -11    1    3    3    0    0 -0.13008187205E+01 -0.36355989376E+02 -0.10768428304E+02  0.37939545876E+02  0.51100000000E-03 0.  1.
         12    1    3    3    0    0  0.50615377807E+01  0.37549830791E+02  0.19367058093E+02  0.42552225516E+02  0.00000000000E+00 0. -1.
</event>
<event>
 7    1  0.4008281E-015  0.9000777E+02  0.7816164E-02  0.1186339E+00
        -11   -1    0    0    0    0  0.00000000000E+00  0.00000000000E+00  0.45593999997E+02  0.45594000000E+02  0.51100000000E-03 0.  1.
         11   -1    0    0    0    0 -0.00000000000E+00 -0.00000000000E+00 -0.45593999997E+02  0.45594000000E+02  0.51100000000E-03 0. -1.
    9900012    2    1    2    0    0 -0.42217389928E-01 -0.77792242238E+00  0.88656781261E+00  0.90007767781E+02  0.90000029516E+02 0.  0.
         12    1    1    2    0    0  0.42217389928E-01  0.77792242238E+00 -0.88656781261E+00  0.11802322185E+01  0.00000000000E+00 0. -1.
         11    1    3    3    0    0  0.93971991779E+01 -0.10989855146E+01  0.73683889528E+00  0.94898921685E+01  0.51100000000E-03 0. -1.
        -11    1    3    3    0    0  0.27449815676E+02 -0.11076603320E+01 -0.23937403390E+02  0.36437872789E+02  0.51100000000E-03 0.  1.
         12    1    3    3    0    0 -0.36889232244E+02  0.14287234242E+01  0.24087132307E+02  0.44080002824E+02  0.00000000000E+00 0. -1.
</event>
<event>
 7    1  0.4008281E-015  0.9000773E+02  0.7816164E-02  0.1186339E+00
        -11   -1    0    0    0    0  0.00000000000E+00  0.00000000000E+00  0.45593999997E+02  0.45594000000E+02  0.51100000000E-03 0. -1.
         11   -1    0    0    0    0 -0.00000000000E+00 -0.00000000000E+00 -0.45593999997E+02  0.45594000000E+02  0.51100000000E-03 0.  1.
    9900012    2    1    2    0    0  0.84149967523E+00 -0.65191719148E+00  0.50983230241E+00  0.90007726004E+02  0.89999987188E+02 0.  0.
         12    1    1    2    0    0 -0.84149967523E+00  0.65191719148E+00 -0.50983230241E+00  0.11802739955E+01  0.00000000000E+00 0. -1.
         11    1    3    3    0    0 -0.93110766962E+01 -0.26655765510E+01  0.21546332652E+02  0.23622995123E+02  0.51100000000E-03 0. -1.
        -11    1    3    3    0    0  0.32403608554E+02 -0.12119460101E+02 -0.20093493428E+02  0.40007794726E+02  0.51100000000E-03 0.  1.
         12    1    3    3    0    0 -0.22251032182E+02  0.14133119461E+02 -0.94300692144E+00  0.26376936155E+02  0.00000000000E+00 0. -1.
</event>
<event>
 7    1  0.4008281E-015  0.9000777E+02  0.7816164E-02  0.1186339E+00
        -11   -1    0    0    0    0  0.00000000000E+00  0.00000000000E+00  0.45593999997E+02  0.45594000000E+02  0.51100000000E-03 0. -1.
         11   -1    0    0    0    0 -0.00000000000E+00 -0.00000000000E+00 -0.45593999997E+02  0.45594000000E+02  0.51100000000E-03 0.  1.
    9900012    2    1    2    0    0  0.44482816903E+00  0.10916576211E+01  0.57957358516E-01  0.90007768024E+02  0.90000029762E+02 0.  0.
         12    1    1    2    0    0 -0.44482816903E+00 -0.10916576211E+01 -0.57957358516E-01  0.11802319759E+01  0.00000000000E+00 0. -1.
         11    1    3    3    0    0 -0.20166567598E+02 -0.10577644620E+02 -0.42697621086E+01  0.23169114854E+02  0.51100000000E-03 0. -1.
        -11    1    3    3    0    0  0.79748922096E+01  0.34657501436E+02 -0.10008105461E+02  0.36944600238E+02  0.51100000000E-03 0.  1.
         12    1    3    3    0    0  0.12636503557E+02 -0.22988199195E+02  0.14335824928E+02  0.29894052933E+02  0.00000000000E+00 0. -1.
</event>
<event>
 7    1  0.4008281E-015  0.9000774E+02  0.7816164E-02  0.1186339E+00
        -11   -1    0    0    0    0  0.00000000000E+00  0.00000000000E+00  0.45593999997E+02  0.45594000000E+02  0.51100000000E-03 0.  1.
         11   -1    0    0    0    0 -0.00000000000E+00 -0.00000000000E+00 -0.45593999997E+02  0.45594000000E+02  0.51100000000E-03 0. -1.
    9900012    2    1    2    0    0 -0.34246651230E+00 -0.74972500062E+00 -0.84477278784E+00  0.90007740727E+02  0.90000002105E+02 0.  0.
         12    1    1    2    0    0  0.34246651230E+00  0.74972500062E+00  0.84477278784E+00  0.11802592731E+01  0.00000000000E+00 0. -1.
         11    1    3    3    0    0  0.36589413562E+01 -0.10018246392E+02 -0.31432176458E+01  0.11119034582E+02  0.51100000000E-03 0. -1.
        -11    1    3    3    0    0  0.20214406010E+02 -0.12868524947E+02 -0.26145948748E+02  0.35465924221E+02  0.51100000000E-03 0.  1.
         12    1    3    3    0    0 -0.24215813879E+02  0.22137046338E+02  0.28444393606E+02  0.43422781924E+02  0.00000000000E+00 0. -1.
</event>
<event>
 7    1  0.4008281E-015  0.9000777E+02  0.7816164E-02  0.1186339E+00
        -11   -1    0    0    0    0  0.00000000000E+00  0.00000000000E+00  0.45593999997E+02  0.45594000000E+02  0.51100000000E-03 0. -1.
         11   -1    0    0    0    0 -0.00000000000E+00 -0.00000000000E+00 -0.45593999997E+02  0.45594000000E+02  0.51100000000E-03 0.  1.
    9900012    2    1    2    0    0  0.91924910889E+00 -0.25586263427E+00 -0.69458975374E+00  0.90007771404E+02  0.90000033187E+02 0.  0.
         12    1    1    2    0    0 -0.91924910889E+00  0.25586263427E+00  0.69458975374E+00  0.11802285956E+01  0.00000000000E+00 0. -1.
         11    1    3    3    0    0 -0.63964852127E+01  0.36118035570E+02 -0.37046301706E+01  0.36866676029E+02  0.51100000000E-03 0. -1.
        -11    1    3    3    0    0 -0.45601412240E+01 -0.17141458021E+01 -0.12454337584E+02  0.13373246006E+02  0.51100000000E-03 0.  1.
        -12    1    3    3    0    0  0.11875875546E+02 -0.34659752402E+02  0.15464378001E+02  0.39767849370E+02  0.00000000000E+00 0.  1.
</event>
<event>
 7    1  0.4008281E-015  0.9000766E+02  0.7816164E-02  0.1186339E+00
        -11   -1    0    0    0    0  0.00000000000E+00  0.00000000000E+00  0.45593999997E+02  0.45594000000E+02  0.51100000000E-03 0.  1.
         11   -1    0    0    0    0 -0.00000000000E+00 -0.00000000000E+00 -0.45593999997E+02  0.45594000000E+02  0.51100000000E-03 0. -1.
    9900012    2    1    2    0    0  0.95690343876E+00 -0.66661539163E+00  0.18210141262E+00  0.90007660559E+02  0.89999920878E+02 0.  0.
         12    1    1    2    0    0 -0.95690343876E+00  0.66661539163E+00 -0.18210141262E+00  0.11803394410E+01  0.00000000000E+00 0. -1.
         11    1    3    3    0    0 -0.17604183894E+01  0.46568304663E+01  0.73926447392E+01  0.89127066259E+01  0.51100000000E-03 0. -1.
        -11    1    3    3    0    0  0.22966212765E+02  0.30229233661E+02  0.52494988707E+01  0.38325066668E+02  0.51100000000E-03 0.  1.
         12    1    3    3    0    0 -0.20248890936E+02 -0.35552679519E+02 -0.12460042197E+02  0.42769887265E+02  0.00000000000E+00 0. -1.
</event>
<event>
 7    1  0.4008281E-015  0.9000771E+02  0.7816164E-02  0.1186339E+00
        -11   -1    0    0    0    0  0.00000000000E+00  0.00000000000E+00  0.45593999997E+02  0.45594000000E+02  0.51100000000E-03 0.  1.
         11   -1    0    0    0    0 -0.00000000000E+00 -0.00000000000E+00 -0.45593999997E+02  0.45594000000E+02  0.51100000000E-03 0. -1.
    9900012    2    1    2    0    0 -0.14382177269E+00 -0.71280374125E+00  0.92968347595E+00  0.90007709679E+02  0.89999970647E+02 0.  0.
         12    1    1    2    0    0  0.14382177269E+00  0.71280374125E+00 -0.92968347595E+00  0.11802903208E+01  0.00000000000E+00 0. -1.
         11    1    3    3    0    0 -0.25725219796E+02 -0.13516962863E+02 -0.26230137371E+02  0.39147354002E+02  0.51100000000E-03 0. -1.
        -11    1    3    3    0    0  0.76374550016E+01 -0.61935507723E+01 -0.36246195139E+01  0.10479916839E+02  0.51100000000E-03 0.  1.
        -12    1    3    3    0    0  0.17943943022E+02  0.18997709894E+02  0.30784440361E+02  0.40380438838E+02  0.00000000000E+00 0.  1.
</event>
<event>
 7    1  0.4008281E-015  0.9000773E+02  0.7816164E-02  0.1186339E+00
        -11   -1    0    0    0    0  0.00000000000E+00  0.00000000000E+00  0.45593999997E+02  0.45594000000E+02  0.51100000000E-03 0. -1.
         11   -1    0    0    0    0 -0.00000000000E+00 -0.00000000000E+00 -0.45593999997E+02  0.45594000000E+02  0.51100000000E-03 0.  1.
    9900012    2    1    2    0    0 -0.66782880842E-01  0.71344202276E+00 -0.93785233106E+00  0.90007734577E+02  0.89999995874E+02 0.  0.
         12    1    1    2    0    0  0.66782880842E-01 -0.71344202276E+00  0.93785233106E+00  0.11802654226E+01  0.00000000000E+00 0. -1.
         11    1    3    3    0    0 -0.14713622793E+02  0.34056276749E+02 -0.23052432374E+02  0.43677629518E+02  0.51100000000E-03 0. -1.
        -11    1    3    3    0    0 -0.27248330632E+01 -0.37268160782E+01  0.79395493132E+01  0.91842428572E+01  0.51100000000E-03 0.  1.
        -12    1    3    3    0    0  0.17371672975E+02 -0.29616018648E+02  0.14175030730E+02  0.37145862202E+02  0.00000000000E+00 0.  1.
</event>
<event>
 7    1  0.4008281E-015  0.9000784E+02  0.7816164E-02  0.1186339E+00
        -11   -1    0    0    0    0  0.00000000000E+00  0.00000000000E+00  0.45593999997E+02  0.45594000000E+02  0.51100000000E-03 0.  1.
         11   -1    0    0    0    0 -0.00000000000E+00 -0.00000000000E+00 -0.45593999997E+02  0.45594000000E+02  0.51100000000E-03 0. -1.
    9900012    2    1    2    0    0 -0.24852721930E+00  0.68387173615E+00  0.92915325406E+00  0.90007842341E+02  0.90000105060E+02 0.  0.
         12    1    1    2    0    0  0.24852721930E+00 -0.68387173615E+00 -0.92915325406E+00  0.11801576589E+01  0.00000000000E+00 0. -1.
         11    1    3    3    0    0 -0.28942100709E+02 -0.10469190665E+02 -0.31475154337E+02  0.44021977323E+02  0.51100000000E-03 0. -1.
        -11    1    3    3    0    0  0.21566859846E+01  0.47144695442E+01  0.37109490123E+01  0.63756301926E+01  0.51100000000E-03 0.  1.
        -12    1    3    3    0    0  0.26536887505E+02  0.64385928572E+01  0.28693358579E+02  0.39610234826E+02  0.00000000000E+00 0.  1.
</event>
<event>
 7    1  0.4008281E-015  0.9000780E+02  0.7816164E-02  0.1186339E+00
        -11   -1    0    0    0    0  0.00000000000E+00  0.00000000000E+00  0.45593999997E+02  0.45594000000E+02  0.51100000000E-03 0.  1.
         11   -1    0    0    0    0 -0.00000000000E+00 -0.00000000000E+00 -0.45593999997E+02  0.45594000000E+02  0.51100000000E-03 0. -1.
    9900012    2    1    2    0    0 -0.43840263339E+00  0.98461574560E+00  0.48084237541E+00  0.90007798989E+02  0.90000061136E+02 0.  0.
         12    1    1    2    0    0  0.43840263339E+00 -0.98461574560E+00 -0.48084237541E+00  0.11802010106E+01  0.00000000000E+00 0. -1.
         11    1    3    3    0    0 -0.75096182318E+01  0.18122434058E+01 -0.25176491131E+01  0.81250938128E+01  0.51100000000E-03 0. -1.
        -11    1    3    3    0    0 -0.21769174096E+02 -0.18970489686E+02 -0.24679614046E+02  0.37984994004E+02  0.51100000000E-03 0.  1.
        -12    1    3    3    0    0  0.28840389694E+02  0.18142862026E+02  0.27678105534E+02  0.43897711173E+02  0.00000000000E+00 0.  1.
</event>
<event>
 7    1  0.4008281E-015  0.9000771E+02  0.7816164E-02  0.1186339E+00
        -11   -1    0    0    0    0  0.00000000000E+00  0.00000000000E+00  0.45593999997E+02  0.45594000000E+02  0.51100000000E-03 0.  1.
         11   -1    0    0    0    0 -0.00000000000E+00 -0.00000000000E+00 -0.45593999997E+02  0.45594000000E+02  0.51100000000E-03 0. -1.
    9900012    2    1    2    0    0  0.69573633633E+00  0.43730457343E+00  0.84722906907E+00  0.90007711292E+02  0.89999972281E+02 0.  0.
         12    1    1    2    0    0 -0.69573633633E+00 -0.43730457343E+00 -0.84722906907E+00  0.11802887084E+01  0.00000000000E+00 0. -1.
         11    1    3    3    0    0  0.65712317751E+01  0.87768755818E+01 -0.23909043292E+01  0.11221900721E+02  0.51100000000E-03 0. -1.
        -11    1    3    3    0    0  0.39897572466E+01  0.34466309064E+02 -0.48998152404E+00  0.34699923711E+02  0.51100000000E-03 0.  1.
         12    1    3    3    0    0 -0.98652526854E+01 -0.42805880073E+02  0.37281149223E+01  0.44085886860E+02  0.00000000000E+00 0. -1.
</event>
<event>
 7    1  0.4008281E-015  0.9000752E+02  0.7816164E-02  0.1186339E+00
        -11   -1    0    0    0    0  0.00000000000E+00  0.00000000000E+00  0.45593999997E+02  0.45594000000E+02  0.51100000000E-03 0.  1.
         11   -1    0    0    0    0 -0.00000000000E+00 -0.00000000000E+00 -0.45593999997E+02  0.45594000000E+02  0.51100000000E-03 0. -1.
    9900012    2    1    2    0    0 -0.51075564377E-01  0.71104487849E+00  0.94092404094E+00  0.90007520613E+02  0.89999779085E+02 0.  0.
         12    1    1    2    0    0  0.51075564377E-01 -0.71104487849E+00 -0.94092404094E+00  0.11804793871E+01  0.00000000000E+00 0. -1.
         11    1    3    3    0    0 -0.38752619397E+02  0.28563451047E+01 -0.10769685429E+02  0.40322578564E+02  0.51100000000E-03 0. -1.
        -11    1    3    3    0    0  0.32051824242E+01  0.93515301758E+01  0.69198922758E+01  0.12066864563E+02  0.51100000000E-03 0.  1.
        -12    1    3    3    0    0  0.35496361409E+02 -0.11496830402E+02  0.47907171946E+01  0.37618077487E+02  0.00000000000E+00 0.  1.
</event>
<event>
 7    1  0.4008281E-015  0.9000778E+02  0.7816164E-02  0.1186339E+00
        -11   -1    0    0    0    0  0.00000000000E+00  0.00000000000E+00  0.45593999997E+02  0.45594000000E+02  0.51100000000E-03 0. -1.
         11   -1    0    0    0    0 -0.00000000000E+00 -0.00000000000E+00 -0.45593999997E+02  0.45594000000E+02  0.51100000000E-03 0.  1.
    9900012    2    1    2    0    0  0.81212865646E+00 -0.16275433845E+00 -0.84076525228E+00  0.90007776234E+02  0.90000038080E+02 0.  0.
         12    1    1    2    0    0 -0.81212865646E+00  0.16275433845E+00  0.84076525228E+00  0.11802237664E+01  0.00000000000E+00 0. -1.
         11    1    3    3    0    0  0.48877321319E+01  0.24809991018E+02  0.17814353755E+02  0.30931808542E+02  0.51100000000E-03 0. -1.
        -11    1    3    3    0    0 -0.44353105629E+01  0.13089247057E+02  0.44856741741E+01  0.14530025511E+02  0.51100000000E-03 0.  1.
        -12    1    3    3    0    0  0.35970708744E+00 -0.38061992413E+02 -0.23140793182E+02  0.44545942180E+02  0.00000000000E+00 0.  1.
</event>
<event>
 7    1  0.4008281E-015  0.9000777E+02  0.7816164E-02  0.1186339E+00
        -11   -1    0    0    0    0  0.00000000000E+00  0.00000000000E+00  0.45593999997E+02  0.45594000000E+02  0.51100000000E-03 0. -1.
         11   -1    0    0    0    0 -0.00000000000E+00 -0.00000000000E+00 -0.45593999997E+02  0.45594000000E+02  0.51100000000E-03 0.  1.
    9900012    2    1    2    0    0  0.11493405724E+01  0.25311985452E+00 -0.88770863425E-01  0.90007773887E+02  0.90000035702E+02 0.  0.
         12    1    1    2    0    0 -0.11493405724E+01 -0.25311985452E+00  0.88770863425E-01  0.11802261132E+01  0.00000000000E+00 0. -1.
         11    1    3    3    0    0 -0.63927267447E+01 -0.67324380972E+01  0.17996250299E+01  0.94568138649E+01  0.51100000000E-03 0. -1.
        -11    1    3    3    0    0 -0.19978189733E+02  0.10375887689E+02 -0.32316066896E+02  0.39384201023E+02  0.51100000000E-03 0.  1.
         12    1    3    3    0    0  0.27520257050E+02 -0.33903297368E+01  0.30427671003E+02  0.41166758999E+02  0.00000000000E+00 0. -1.
</event>
<event>
 7    1  0.4008281E-015  0.9000772E+02  0.7816164E-02  0.1186339E+00
        -11   -1    0    0    0    0  0.00000000000E+00  0.00000000000E+00  0.45593999997E+02  0.45594000000E+02  0.51100000000E-03 0.  1.
         11   -1    0    0    0    0 -0.00000000000E+00 -0.00000000000E+00 -0.45593999997E+02  0.45594000000E+02  0.51100000000E-03 0. -1.
    9900012    2    1    2    0    0  0.98567050639E+00  0.39919674806E+00  0.51202043286E+00  0.90007716426E+02  0.89999977483E+02 0.  0.
         12    1    1    2    0    0 -0.98567050639E+00 -0.39919674806E+00 -0.51202043286E+00  0.11802835738E+01  0.00000000000E+00 0. -1.
         11    1    3    3    0    0 -0.17120429952E+02 -0.30374310070E+02  0.25613171557E+02  0.43263638213E+02  0.51100000000E-03 0. -1.
        -11    1    3    3    0    0  0.17791365165E+01  0.11235602485E+01 -0.90346807540E+01  0.92764848388E+01  0.51100000000E-03 0.  1.
        -12    1    3    3    0    0  0.16326963942E+02  0.29649946569E+02 -0.16066470370E+02  0.37467593374E+02  0.00000000000E+00 0.  1.
</event>
<event>
 7    1  0.4008281E-015  0.9000774E+02  0.7816164E-02  0.1186339E+00
        -11   -1    0    0    0    0  0.00000000000E+00  0.00000000000E+00  0.45593999997E+02  0.45594000000E+02  0.51100000000E-03 0.  1.
         11   -1    0    0    0    0 -0.00000000000E+00 -0.00000000000E+00 -0.45593999997E+02  0.45594000000E+02  0.51100000000E-03 0. -1.
    9900012    2    1    2    0    0 -0.35418717016E+00 -0.68852122766E+00  0.89079362801E+00  0.90007735911E+02  0.89999997225E+02 0.  0.
         12    1    1    2    0    0  0.35418717016E+00  0.68852122766E+00 -0.89079362801E+00  0.11802640892E+01  0.00000000000E+00 0. -1.
         11    1    3    3    0    0  0.11182193042E+02 -0.35201645977E+02  0.18359519013E+02  0.41246445415E+02  0.51100000000E-03 0. -1.
        -11    1    3    3    0    0  0.89626338397E+01  0.87655628154E+01 -0.61002851030E+01  0.13941928683E+02  0.51100000000E-03 0.  1.
        -12    1    3    3    0    0 -0.20499014052E+02  0.25747561934E+02 -0.11368440282E+02  0.34819361813E+02  0.00000000000E+00 0.  1.
</event>
<event>
 7    1  0.4008281E-015  0.9000751E+02  0.7816164E-02  0.1186340E+00
        -11   -1    0    0    0    0  0.00000000000E+00  0.00000000000E+00  0.45593999997E+02  0.45594000000E+02  0.51100000000E-03 0. -1.
         11   -1    0    0    0    0 -0.00000000000E+00 -0.00000000000E+00 -0.45593999997E+02  0.45594000000E+02  0.51100000000E-03 0.  1.
    9900012    2    1    2    0    0 -0.71057945028E+00 -0.92635407163E+00  0.17467979517E+00  0.90007505166E+02  0.89999763434E+02 0.  0.
         12    1    1    2    0    0  0.71057945028E+00  0.92635407163E+00 -0.17467979517E+00  0.11804948335E+01  0.00000000000E+00 0. -1.
         11    1    3    3    0    0 -0.35105760889E+02 -0.77094899230E+01 -0.18690295201E+02  0.40511452917E+02  0.51100000000E-03 0. -1.
        -11    1    3    3    0    0 -0.27530815754E+01  0.78456190115E+01  0.13936634587E+01  0.84306283237E+01  0.51100000000E-03 0.  1.
        -12    1    3    3    0    0  0.37148263014E+02 -0.10624831601E+01  0.17471311537E+02  0.41065423926E+02  0.00000000000E+00 0.  1.
</event>
<event>
 7    1  0.4008281E-015  0.9000771E+02  0.7816164E-02  0.1186339E+00
        -11   -1    0    0    0    0  0.00000000000E+00  0.00000000000E+00  0.45593999997E+02  0.45594000000E+02  0.51100000000E-03 0.  1.
         11   -1    0    0    0    0 -0.00000000000E+00 -0.00000000000E+00 -0.45593999997E+02  0.45594000000E+02  0.51100000000E-03 0. -1.
    9900012    2    1    2    0    0 -0.13331427190E+00 -0.10461211119E+01  0.53004530507E+00  0.90007707620E+02  0.89999968561E+02 0.  0.
         12    1    1    2    0    0  0.13331427190E+00  0.10461211119E+01 -0.53004530507E+00  0.11802923796E+01  0.00000000000E+00 0. -1.
         11    1    3    3    0    0 -0.22296882969E+01 -0.65356740605E+01  0.14744018677E+01  0.70611901585E+01  0.51100000000E-03 0. -1.
        -11    1    3    3    0    0 -0.12857426502E+02 -0.55133132478E+01  0.37624896374E+02  0.40141535429E+02  0.51100000000E-03 0.  1.
         12    1    3    3    0    0  0.14953800527E+02  0.11002866196E+02 -0.38569252937E+02  0.42804982033E+02  0.00000000000E+00 0. -1.
</event>
<event>
 7    1  0.4008281E-015  0.9000798E+02  0.7816164E-02  0.1186339E+00
        -11   -1    0    0    0    0  0.00000000000E+00  0.00000000000E+00  0.45593999997E+02  0.45594000000E+02  0.51100000000E-03 0.  1.
         11   -1    0    0    0    0 -0.00000000000E+00 -0.00000000000E+00 -0.45593999997E+02  0.45594000000E+02  0.51100000000E-03 0. -1.
    9900012    2    1    2    0    0  0.10016488613E+01  0.61918199781E+00  0.75850688771E-01  0.90007983002E+02  0.90000247578E+02 0.  0.
         12    1    1    2    0    0 -0.10016488613E+01 -0.61918199781E+00 -0.75850688771E-01  0.11800169977E+01  0.00000000000E+00 0. -1.
         11    1    3    3    0    0 -0.81690743256E+01 -0.77334013993E+01 -0.25859212528E+01  0.11542368107E+02  0.51100000000E-03 0. -1.
        -11    1    3    3    0    0  0.22288023566E+02  0.17072886422E+02  0.33577458678E+02  0.43768540948E+02  0.51100000000E-03 0.  1.
         12    1    3    3    0    0 -0.13117300379E+02 -0.87203030244E+01 -0.30915686736E+02  0.34697073946E+02  0.00000000000E+00 0. -1.
</event>
<event>
 7    1  0.4008281E-015  0.9000770E+02  0.7816164E-02  0.1186339E+00
        -11   -1    0    0    0    0  0.00000000000E+00  0.00000000000E+00  0.45593999997E+02  0.45594000000E+02  0.51100000000E-03 0.  1.
         11   -1    0    0    0    0 -0.00000000000E+00 -0.00000000000E+00 -0.45593999997E+02  0.45594000000E+02  0.51100000000E-03 0. -1.
    9900012    2    1    2    0    0 -0.60867839559E+00  0.38985136747E-01  0.10104888211E+01  0.90007704746E+02  0.89999965648E+02 0.  0.
         12    1    1    2    0    0  0.60867839559E+00 -0.38985136747E-01 -0.10104888211E+01  0.11802952545E+01  0.00000000000E+00 0. -1.
         11    1    3    3    0    0 -0.27050124405E+01  0.85701316863E+01 -0.38018134580E+01  0.97579729071E+01  0.51100000000E-03 0. -1.
        -11    1    3    3    0    0 -0.22406395115E+02 -0.34220899857E+02  0.14587628486E+02  0.43427127860E+02  0.51100000000E-03 0.  1.
         12    1    3    3    0    0  0.24502729160E+02  0.25689753307E+02 -0.97753262066E+01  0.36822603978E+02  0.00000000000E+00 0. -1.
</event>
<event>
 7    1  0.4008281E-015  0.9000755E+02  0.7816164E-02  0.1186339E+00
        -11   -1    0    0    0    0  0.00000000000E+00  0.00000000000E+00  0.45593999997E+02  0.45594000000E+02  0.51100000000E-03 0.  1.
         11   -1    0    0    0    0 -0.00000000000E+00 -0.00000000000E+00 -0.45593999997E+02  0.45594000000E+02  0.51100000000E-03 0. -1.
    9900012    2    1    2    0    0  0.12019006827E-01  0.76096269850E+00  0.90235756472E+00  0.90007551839E+02  0.89999810724E+02 0.  0.
         12    1    1    2    0    0 -0.12019006827E-01 -0.76096269850E+00 -0.90235756472E+00  0.11804481605E+01  0.00000000000E+00 0. -1.
         11    1    3    3    0    0 -0.37847484312E+02 -0.85115156045E+01  0.14126820739E+02  0.41284924985E+02  0.51100000000E-03 0. -1.
        -11    1    3    3    0    0 -0.59239252259E+00  0.73894128882E+01 -0.60350732255E+01  0.95591035579E+01  0.51100000000E-03 0.  1.
        -12    1    3    3    0    0  0.38451895841E+02  0.18830654148E+01 -0.71893899486E+01  0.39163523296E+02  0.00000000000E+00 0.  1.
</event>
<event>
 7    1  0.4008281E-015  0.9000772E+02  0.7816164E-02  0.1186339E+00
        -11   -1    0    0    0    0  0.00000000000E+00  0.00000000000E+00  0.45593999997E+02  0.45594000000E+02  0.51100000000E-03 0. -1.
         11   -1    0    0    0    0 -0.00000000000E+00 -0.00000000000E+00 -0.45593999997E+02  0.45594000000E+02  0.51100000000E-03 0.  1.
    9900012    2    1    2    0    0 -0.11003703668E+01 -0.37322811884E+00  0.20725845527E+00  0.90007716034E+02  0.89999977086E+02 0.  0.
         12    1    1    2    0    0  0.11003703668E+01  0.37322811884E+00 -0.20725845527E+00  0.11802839659E+01  0.00000000000E+00 0. -1.
         11    1    3    3    0    0  0.72779148617E+01  0.12472148983E+01 -0.57099324379E+01  0.93341801163E+01  0.51100000000E-03 0. -1.
        -11    1    3    3    0    0  0.34093181895E+02  0.11425062834E+02  0.43177511780E+01  0.36214915270E+02  0.51100000000E-03 0.  1.
         12    1    3    3    0    0 -0.42471467123E+02 -0.13045505852E+02  0.15994397153E+01  0.44458620648E+02  0.00000000000E+00 0. -1.
</event>
<event>
 7    1  0.4008281E-015  0.9000774E+02  0.7816164E-02  0.1186339E+00
        -11   -1    0    0    0    0  0.00000000000E+00  0.00000000000E+00  0.45593999997E+02  0.45594000000E+02  0.51100000000E-03 0. -1.
         11   -1    0    0    0    0 -0.00000000000E+00 -0.00000000000E+00 -0.45593999997E+02  0.45594000000E+02  0.51100000000E-03 0.  1.
    9900012    2    1    2    0    0  0.63139890932E+00  0.99664237819E+00  0.32630512992E-01  0.90007735045E+02  0.89999996348E+02 0.  0.
         12    1    1    2    0    0 -0.63139890932E+00 -0.99664237819E+00 -0.32630512992E-01  0.11802649546E+01  0.00000000000E+00 0. -1.
         11    1    3    3    0    0 -0.13845795994E+02  0.30750780191E+02 -0.11970761881E+02  0.35785691125E+02  0.51100000000E-03 0. -1.
        -11    1    3    3    0    0  0.21539430839E+01  0.59376386244E+01 -0.90146258832E+01  0.11007202338E+02  0.51100000000E-03 0.  1.
        -12    1    3    3    0    0  0.12323251819E+02 -0.35691776437E+02  0.21018018277E+02  0.43214841582E+02  0.00000000000E+00 0.  1.
</event>
<event>
 7    1  0.4008281E-015  0.9000776E+02  0.7816164E-02  0.1186339E+00
        -11   -1    0    0    0    0  0.00000000000E+00  0.00000000000E+00  0.45593999997E+02  0.45594000000E+02  0.51100000000E-03 0.  1.
         11   -1    0    0    0    0 -0.00000000000E+00 -0.00000000000E+00 -0.45593999997E+02  0.45594000000E+02  0.51100000000E-03 0. -1.
    9900012    2    1    2    0    0  0.10328761666E+01 -0.14674071396E+00  0.55191402330E+00  0.90007756338E+02  0.90000017922E+02 0.  0.
         12    1    1    2    0    0 -0.10328761666E+01  0.14674071396E+00 -0.55191402330E+00  0.11802436620E+01  0.00000000000E+00 0. -1.
         11    1    3    3    0    0  0.12778773976E+02 -0.20861097492E+02 -0.28861278029E+02  0.37834585006E+02  0.51100000000E-03 0. -1.
        -11    1    3    3    0    0  0.74235708121E+01 -0.37825033640E+00 -0.38482836031E+01  0.83702905488E+01  0.51100000000E-03 0.  1.
        -12    1    3    3    0    0 -0.19169468621E+02  0.21092607114E+02  0.33261475655E+02  0.43802880783E+02  0.00000000000E+00 0.  1.
</event>
<event>
 7    1  0.4008281E-015  0.9000773E+02  0.7816164E-02  0.1186339E+00
        -11   -1    0    0    0    0  0.00000000000E+00  0.00000000000E+00  0.45593999997E+02  0.45594000000E+02  0.51100000000E-03 0.  1.
         11   -1    0    0    0    0 -0.00000000000E+00 -0.00000000000E+00 -0.45593999997E+02  0.45594000000E+02  0.51100000000E-03 0. -1.
    9900012    2    1    2    0    0  0.81378385286E+00  0.66516444082E+00  0.53697263944E+00  0.90007734137E+02  0.89999995427E+02 0.  0.
         12    1    1    2    0    0 -0.81378385286E+00 -0.66516444082E+00 -0.53697263944E+00  0.11802658633E+01  0.00000000000E+00 0. -1.
         11    1    3    3    0    0 -0.38618098567E+01 -0.46385532395E+00  0.74002300731E+01  0.83601520636E+01  0.51100000000E-03 0. -1.
        -11    1    3    3    0    0  0.15870136839E+02  0.25240132944E+02  0.25874111809E+02  0.39476514746E+02  0.51100000000E-03 0.  1.
         12    1    3    3    0    0 -0.11194543129E+02 -0.24111113179E+02 -0.32737369243E+02  0.42171067327E+02  0.00000000000E+00 0. -1.
</event>
<event>
 7    1  0.4008281E-015  0.9000691E+02  0.7816164E-02  0.1186341E+00
        -11   -1    0    0    0    0  0.00000000000E+00  0.00000000000E+00  0.45593999997E+02  0.45594000000E+02  0.51100000000E-03 0. -1.
         11   -1    0    0    0    0 -0.00000000000E+00 -0.00000000000E+00 -0.45593999997E+02  0.45594000000E+02  0.51100000000E-03 0.  1.
    9900012    2    1    2    0    0 -0.91487329078E+00  0.36318714735E+00  0.65274762328E+00  0.90006908343E+02  0.89999158729E+02 0.  0.
         12    1    1    2    0    0  0.91487329078E+00 -0.36318714735E+00 -0.65274762328E+00  0.11810916568E+01  0.00000000000E+00 0. -1.
         11    1    3    3    0    0 -0.12121845515E+02 -0.11263726176E+01  0.35684084781E+01  0.12686267903E+02  0.51100000000E-03 0. -1.
        -11    1    3    3    0    0 -0.25597186456E+02  0.19655115132E+02 -0.13424384677E+02  0.34953592226E+02  0.51100000000E-03 0.  1.
         12    1    3    3    0    0  0.36804158681E+02 -0.18165555367E+02  0.10508723822E+02  0.42367048214E+02  0.00000000000E+00 0. -1.
</event>
<event>
 7    1  0.4008281E-015  0.9000788E+02  0.7816164E-02  0.1186339E+00
        -11   -1    0    0    0    0  0.00000000000E+00  0.00000000000E+00  0.45593999997E+02  0.45594000000E+02  0.51100000000E-03 0.  1.
         11   -1    0    0    0    0 -0.00000000000E+00 -0.00000000000E+00 -0.45593999997E+02  0.45594000000E+02  0.51100000000E-03 0. -1.
    9900012    2    1    2    0    0 -0.83501095529E+00  0.79569935725E+00  0.24958872577E+00  0.90007883356E+02  0.90000146616E+02 0.  0.
         12    1    1    2    0    0  0.83501095529E+00 -0.79569935725E+00 -0.24958872577E+00  0.11801166445E+01  0.00000000000E+00 0. -1.
         11    1    3    3    0    0  0.27297089886E+01 -0.14502502325E+02 -0.21561875612E+02  0.26128305820E+02  0.51100000000E-03 0. -1.
        -11    1    3    3    0    0 -0.23787612245E+02 -0.99256170494E+01  0.17572900203E+01  0.25835178316E+02  0.51100000000E-03 0.  1.
        -12    1    3    3    0    0  0.20222892301E+02  0.25223818732E+02  0.20054174317E+02  0.38044399220E+02  0.00000000000E+00 0.  1.
</event>
<event>
 7    1  0.4008281E-015  0.9000769E+02  0.7816164E-02  0.1186339E+00
        -11   -1    0    0    0    0  0.00000000000E+00  0.00000000000E+00  0.45593999997E+02  0.45594000000E+02  0.51100000000E-03 0.  1.
         11   -1    0    0    0    0 -0.00000000000E+00 -0.00000000000E+00 -0.45593999997E+02  0.45594000000E+02  0.51100000000E-03 0. -1.
    9900012    2    1    2    0    0  0.89765556515E+00 -0.16570224410E+00  0.74825852619E+00  0.90007689206E+02  0.89999949904E+02 0.  0.
         12    1    1    2    0    0 -0.89765556515E+00  0.16570224410E+00 -0.74825852619E+00  0.11803107935E+01  0.00000000000E+00 0. -1.
         11    1    3    3    0    0 -0.47068938645E+01  0.29172903134E+02  0.20020463478E+02  0.35693586052E+02  0.51100000000E-03 0. -1.
        -11    1    3    3    0    0  0.10482893604E+02 -0.12833376989E+02  0.10718977309E+02  0.19735326145E+02  0.51100000000E-03 0.  1.
        -12    1    3    3    0    0 -0.48783441743E+01 -0.16505228389E+02 -0.29991182261E+02  0.34578777009E+02  0.00000000000E+00 0.  1.
</event>
<event>
 7    1  0.4008281E-015  0.9000779E+02  0.7816164E-02  0.1186339E+00
        -11   -1    0    0    0    0  0.00000000000E+00  0.00000000000E+00  0.45593999997E+02  0.45594000000E+02  0.51100000000E-03 0.  1.
         11   -1    0    0    0    0 -0.00000000000E+00 -0.00000000000E+00 -0.45593999997E+02  0.45594000000E+02  0.51100000000E-03 0. -1.
    9900012    2    1    2    0    0  0.72648676053E+00  0.47195683635E+00  0.80148013303E+00  0.90007789564E+02  0.90000051587E+02 0.  0.
         12    1    1    2    0    0 -0.72648676053E+00 -0.47195683635E+00 -0.80148013303E+00  0.11802104356E+01  0.00000000000E+00 0. -1.
         11    1    3    3    0    0 -0.25162133410E+02 -0.15671995009E+02 -0.20543024499E+02  0.36066053861E+02  0.51100000000E-03 0. -1.
        -11    1    3    3    0    0 -0.87551824675E+01 -0.20230800575E+01 -0.74649996748E+00  0.90168362201E+01  0.51100000000E-03 0.  1.
        -12    1    3    3    0    0  0.34643802638E+02  0.18167031902E+02  0.22091004599E+02  0.44924899483E+02  0.00000000000E+00 0.  1.
</event>
<event>
 7    1  0.4008281E-015  0.9000784E+02  0.7816164E-02  0.1186339E+00
        -11   -1    0    0    0    0  0.00000000000E+00  0.00000000000E+00  0.45593999997E+02  0.45594000000E+02  0.51100000000E-03 0.  1.
         11   -1    0    0    0    0 -0.00000000000E+00 -0.00000000000E+00 -0.45593999997E+02  0.45594000000E+02  0.51100000000E-03 0. -1.
    9900012    2    1    2    0    0  0.51240611360E-01 -0.11665447465E+01 -0.17125608224E+00  0.90007838616E+02  0.90000101286E+02 0.  0.
         12    1    1    2    0    0 -0.51240611360E-01  0.11665447465E+01  0.17125608224E+00  0.11801613837E+01  0.00000000000E+00 0. -1.
         11    1    3    3    0    0  0.89336335564E+00 -0.20777295720E+02 -0.28142750385E+02  0.34992978081E+02  0.51100000000E-03 0. -1.
        -11    1    3    3    0    0 -0.69892704656E+01 -0.70578965488E+01 -0.58342591601E+01  0.11519652145E+02  0.51100000000E-03 0.  1.
        -12    1    3    3    0    0  0.61471477213E+01  0.26668647522E+02  0.33805753462E+02  0.43495208390E+02  0.00000000000E+00 0.  1.
</event>
<event>
 7    1  0.4008281E-015  0.9000774E+02  0.7816164E-02  0.1186339E+00
        -11   -1    0    0    0    0  0.00000000000E+00  0.00000000000E+00  0.45593999997E+02  0.45594000000E+02  0.51100000000E-03 0. -1.
         11   -1    0    0    0    0 -0.00000000000E+00 -0.00000000000E+00 -0.45593999997E+02  0.45594000000E+02  0.51100000000E-03 0.  1.
    9900012    2    1    2    0    0 -0.98952494597E+00  0.60967243604E+00 -0.20528900097E+00  0.90007744235E+02  0.90000005658E+02 0.  0.
         12    1    1    2    0    0  0.98952494597E+00 -0.60967243604E+00  0.20528900097E+00  0.11802557654E+01  0.00000000000E+00 0. -1.
         11    1    3    3    0    0  0.51524770665E+01  0.33552605598E+02  0.13295087463E+02  0.36456614123E+02  0.51100000000E-03 0. -1.
        -11    1    3    3    0    0  0.54538155444E+01  0.77657935270E+01 -0.22203166944E+01  0.97458431949E+01  0.51100000000E-03 0.  1.
        -12    1    3    3    0    0 -0.11595817557E+02 -0.40708726689E+02 -0.11280059770E+02  0.43805286917E+02  0.00000000000E+00 0.  1.
</event>
<event>
 7    1  0.4008281E-015  0.9000779E+02  0.7816164E-02  0.1186339E+00
        -11   -1    0    0    0    0  0.00000000000E+00  0.00000000000E+00  0.45593999997E+02  0.45594000000E+02  0.51100000000E-03 0.  1.
         11   -1    0    0    0    0 -0.00000000000E+00 -0.00000000000E+00 -0.45593999997E+02  0.45594000000E+02  0.51100000000E-03 0. -1.
    9900012    2    1    2    0    0  0.10857463161E+01 -0.45086577990E+00 -0.10378601441E+00  0.90007789616E+02  0.90000051639E+02 0.  0.
         12    1    1    2    0    0 -0.10857463161E+01  0.45086577990E+00  0.10378601441E+00  0.11802103843E+01  0.00000000000E+00 0. -1.
         11    1    3    3    0    0 -0.34075291978E+02 -0.87017554760E+01  0.12881940899E+02  0.37453844574E+02  0.51100000000E-03 0. -1.
        -11    1    3    3    0    0 -0.50774807773E+01  0.54772576954E+01  0.43601494439E+01  0.86482406500E+01  0.51100000000E-03 0.  1.
        -12    1    3    3    0    0  0.40238519071E+02  0.27736320007E+01 -0.17345876358E+02  0.43905704392E+02  0.00000000000E+00 0.  1.
</event>
<event>
 7    1  0.4008281E-015  0.9000762E+02  0.7816164E-02  0.1186339E+00
        -11   -1    0    0    0    0  0.00000000000E+00  0.00000000000E+00  0.45593999997E+02  0.45594000000E+02  0.51100000000E-03 0.  1.
         11   -1    0    0    0    0 -0.00000000000E+00 -0.00000000000E+00 -0.45593999997E+02  0.45594000000E+02  0.51100000000E-03 0. -1.
    9900012    2    1    2    0    0  0.31131962523E+00 -0.14570617922E+00  0.11292212158E+01  0.90007622622E+02  0.89999882441E+02 0.  0.
         12    1    1    2    0    0 -0.31131962523E+00  0.14570617922E+00 -0.11292212158E+01  0.11803773777E+01  0.00000000000E+00 0. -1.
         11    1    3    3    0    0  0.14351235200E+02  0.25387966015E+02 -0.30178217685E+02  0.41967029833E+02  0.51100000000E-03 0. -1.
        -11    1    3    3    0    0 -0.27967257265E+01  0.38418244955E+01  0.60999719239E+01  0.77324606677E+01  0.51100000000E-03 0.  1.
        -12    1    3    3    0    0 -0.11243189849E+02 -0.29375496689E+02  0.25207466977E+02  0.40308132121E+02  0.00000000000E+00 0.  1.
</event>
<event>
 7    1  0.4008281E-015  0.9000768E+02  0.7816164E-02  0.1186339E+00
        -11   -1    0    0    0    0  0.00000000000E+00  0.00000000000E+00  0.45593999997E+02  0.45594000000E+02  0.51100000000E-03 0. -1.
         11   -1    0    0    0    0 -0.00000000000E+00 -0.00000000000E+00 -0.45593999997E+02  0.45594000000E+02  0.51100000000E-03 0.  1.
    9900012    2    1    2    0    0  0.10772064288E+01  0.43942725575E+00 -0.19921490392E+00  0.90007679458E+02  0.89999940027E+02 0.  0.
         12    1    1    2    0    0 -0.10772064288E+01 -0.43942725575E+00  0.19921490392E+00  0.11803205418E+01  0.00000000000E+00 0. -1.
         11    1    3    3    0    0  0.24288633518E+02 -0.54129976948E+01  0.27347604683E+02  0.36974717637E+02  0.51100000000E-03 0. -1.
        -11    1    3    3    0    0  0.90805036517E+01  0.48156026707E+01  0.44069683981E+00  0.10287846695E+02  0.51100000000E-03 0.  1.
        -12    1    3    3    0    0 -0.32291930741E+02  0.10368222798E+01 -0.27987516427E+02  0.42745115126E+02  0.00000000000E+00 0.  1.
</event>
<event>
 7    1  0.4008281E-015  0.9000771E+02  0.7816164E-02  0.1186339E+00
        -11   -1    0    0    0    0  0.00000000000E+00  0.00000000000E+00  0.45593999997E+02  0.45594000000E+02  0.51100000000E-03 0.  1.
         11   -1    0    0    0    0 -0.00000000000E+00 -0.00000000000E+00 -0.45593999997E+02  0.45594000000E+02  0.51100000000E-03 0. -1.
    9900012    2    1    2    0    0  0.89923980356E+00 -0.73794638321E+00 -0.19972219179E+00  0.90007709340E+02  0.89999970303E+02 0.  0.
         12    1    1    2    0    0 -0.89923980356E+00  0.73794638321E+00  0.19972219179E+00  0.11802906603E+01  0.00000000000E+00 0. -1.
         11    1    3    3    0    0 -0.15738696434E+01  0.20405306638E+02 -0.30222787326E+02  0.36500280528E+02  0.51100000000E-03 0. -1.
        -11    1    3    3    0    0  0.42186542191E+00 -0.26089283607E+01 -0.94707646917E+01  0.98325918115E+01  0.51100000000E-03 0.  1.
        -12    1    3    3    0    0  0.20512440251E+01 -0.18534324661E+02  0.39493829825E+02  0.43674837000E+02  0.00000000000E+00 0.  1.
</event>
<event>
 7    1  0.4008281E-015  0.9000780E+02  0.7816164E-02  0.1186339E+00
        -11   -1    0    0    0    0  0.00000000000E+00  0.00000000000E+00  0.45593999997E+02  0.45594000000E+02  0.51100000000E-03 0.  1.
         11   -1    0    0    0    0 -0.00000000000E+00 -0.00000000000E+00 -0.45593999997E+02  0.45594000000E+02  0.51100000000E-03 0. -1.
    9900012    2    1    2    0    0  0.16573714249E+00  0.11621795312E+01  0.12142560332E+00  0.90007799068E+02  0.90000061216E+02 0.  0.
         12    1    1    2    0    0 -0.16573714249E+00 -0.11621795312E+01 -0.12142560332E+00  0.11802009322E+01  0.00000000000E+00 0. -1.
         11    1    3    3    0    0  0.93525490656E+01  0.42383009168E+01 -0.32967323137E+02  0.34529375375E+02  0.51100000000E-03 0. -1.
        -11    1    3    3    0    0  0.56556288788E+01  0.90140518241E+01 -0.58100736158E+01  0.12124199932E+02  0.51100000000E-03 0.  1.
        -12    1    3    3    0    0 -0.14842440802E+02 -0.12090173210E+02  0.38898822356E+02  0.43354223761E+02  0.00000000000E+00 0.  1.
</event>
<event>
 7    1  0.4008281E-015  0.9000764E+02  0.7816164E-02  0.1186339E+00
        -11   -1    0    0    0    0  0.00000000000E+00  0.00000000000E+00  0.45593999997E+02  0.45594000000E+02  0.51100000000E-03 0.  1.
         11   -1    0    0    0    0 -0.00000000000E+00 -0.00000000000E+00 -0.45593999997E+02  0.45594000000E+02  0.51100000000E-03 0. -1.
    9900012    2    1    2    0    0 -0.39292969776E+00  0.10238259240E+01 -0.43661016077E+00  0.90007643400E+02  0.89999903493E+02 0.  0.
         12    1    1    2    0    0  0.39292969776E+00 -0.10238259240E+01  0.43661016077E+00  0.11803565997E+01  0.00000000000E+00 0. -1.
         11    1    3    3    0    0  0.74651876886E+01 -0.31541925152E+01 -0.36352027840E+02  0.37244434295E+02  0.51100000000E-03 0. -1.
        -11    1    3    3    0    0 -0.17034691762E+02 -0.93867595067E+01  0.94103192562E+01  0.21606621352E+02  0.51100000000E-03 0.  1.
        -12    1    3    3    0    0  0.91765743760E+01  0.13564777946E+02  0.26505098423E+02  0.31156587753E+02  0.00000000000E+00 0.  1.
</event>
<event>
 7    1  0.4008281E-015  0.9000769E+02  0.7816164E-02  0.1186339E+00
        -11   -1    0    0    0    0  0.00000000000E+00  0.00000000000E+00  0.45593999997E+02  0.45594000000E+02  0.51100000000E-03 0.  1.
         11   -1    0    0    0    0 -0.00000000000E+00 -0.00000000000E+00 -0.45593999997E+02  0.45594000000E+02  0.51100000000E-03 0. -1.
    9900012    2    1    2    0    0  0.11108113449E+01  0.28447033962E+00 -0.27981675666E+00  0.90007693838E+02  0.89999954597E+02 0.  0.
         12    1    1    2    0    0 -0.11108113449E+01 -0.28447033962E+00  0.27981675666E+00  0.11803061617E+01  0.00000000000E+00 0. -1.
         11    1    3    3    0    0 -0.14966848429E+01 -0.50499242842E+01 -0.93459829049E+01  0.10727963344E+02  0.51100000000E-03 0. -1.
        -11    1    3    3    0    0 -0.96665353074E+01  0.37393423688E+02 -0.10156573819E+02  0.39935773836E+02  0.51100000000E-03 0.  1.
         12    1    3    3    0    0  0.12274031495E+02 -0.32059029064E+02  0.19222739967E+02  0.39343956658E+02  0.00000000000E+00 0. -1.
</event>
<event>
 7    1  0.4008281E-015  0.9000773E+02  0.7816164E-02  0.1186339E+00
        -11   -1    0    0    0    0  0.00000000000E+00  0.00000000000E+00  0.45593999997E+02  0.45594000000E+02  0.51100000000E-03 0.  1.
         11   -1    0    0    0    0 -0.00000000000E+00 -0.00000000000E+00 -0.45593999997E+02  0.45594000000E+02  0.51100000000E-03 0. -1.
    9900012    2    1    2    0    0  0.16500913594E+00 -0.23569638744E+00  0.11446605960E+01  0.90007733639E+02  0.89999994923E+02 0.  0.
         12    1    1    2    0    0 -0.16500913594E+00  0.23569638744E+00 -0.11446605960E+01  0.11802663606E+01  0.00000000000E+00 0. -1.
         11    1    3    3    0    0  0.68489215170E+01 -0.16430061041E+02 -0.85437471067E+01  0.19744625766E+02  0.51100000000E-03 0. -1.
        -11    1    3    3    0    0  0.19183273195E+01 -0.20933163241E+02  0.21790106065E+02  0.30276823241E+02  0.51100000000E-03 0.  1.
         12    1    3    3    0    0 -0.86022397005E+01  0.37127527895E+02 -0.12101698362E+02  0.39986284632E+02  0.00000000000E+00 0. -1.
</event>
<event>
 7    1  0.4008281E-015  0.9000793E+02  0.7816164E-02  0.1186339E+00
        -11   -1    0    0    0    0  0.00000000000E+00  0.00000000000E+00  0.45593999997E+02  0.45594000000E+02  0.51100000000E-03 0. -1.
         11   -1    0    0    0    0 -0.00000000000E+00 -0.00000000000E+00 -0.45593999997E+02  0.45594000000E+02  0.51100000000E-03 0.  1.
    9900012    2    1    2    0    0 -0.10880933259E+01  0.43807190718E+00  0.12930638996E+00  0.90007926179E+02  0.90000190004E+02 0.  0.
         12    1    1    2    0    0  0.10880933259E+01 -0.43807190718E+00 -0.12930638996E+00  0.11800738215E+01  0.00000000000E+00 0. -1.
         11    1    3    3    0    0 -0.74485979249E+01 -0.51686759724E+01 -0.36737956523E+00  0.90736867017E+01  0.51100000000E-03 0. -1.
        -11    1    3    3    0    0 -0.30884656393E+02  0.22837829497E+02 -0.74680167613E+01  0.39130547291E+02  0.51100000000E-03 0.  1.
         12    1    3    3    0    0  0.37245160992E+02 -0.17231081618E+02  0.79647027165E+01  0.41803692186E+02  0.00000000000E+00 0. -1.
</event>
<event>
 7    1  0.4008281E-015  0.9000774E+02  0.7816164E-02  0.1186339E+00
        -11   -1    0    0    0    0  0.00000000000E+00  0.00000000000E+00  0.45593999997E+02  0.45594000000E+02  0.51100000000E-03 0.  1.
         11   -1    0    0    0    0 -0.00000000000E+00 -0.00000000000E+00 -0.45593999997E+02  0.45594000000E+02  0.51100000000E-03 0. -1.
    9900012    2    1    2    0    0  0.74738710430E+00  0.31172901791E+00  0.85863618134E+00  0.90007737929E+02  0.89999999270E+02 0.  0.
         12    1    1    2    0    0 -0.74738710430E+00 -0.31172901791E+00 -0.85863618134E+00  0.11802620710E+01  0.00000000000E+00 0. -1.
         11    1    3    3    0    0 -0.29755925566E+01  0.39211904805E+01 -0.96708862393E+01  0.10851540294E+02  0.51100000000E-03 0. -1.
        -11    1    3    3    0    0 -0.10064253846E+02  0.33323465717E+02  0.17755702180E+02  0.39076943753E+02  0.51100000000E-03 0.  1.
         12    1    3    3    0    0  0.13787233507E+02 -0.36932927179E+02 -0.72261797598E+01  0.40079253882E+02  0.00000000000E+00 0. -1.
</event>
<event>
 7    1  0.4008281E-015  0.9000749E+02  0.7816164E-02  0.1186340E+00
        -11   -1    0    0    0    0  0.00000000000E+00  0.00000000000E+00  0.45593999997E+02  0.45594000000E+02  0.51100000000E-03 0. -1.
         11   -1    0    0    0    0 -0.00000000000E+00 -0.00000000000E+00 -0.45593999997E+02  0.45594000000E+02  0.51100000000E-03 0.  1.
    9900012    2    1    2    0    0 -0.10488745523E+01  0.60913178515E-01 -0.53829274282E+00  0.90007488535E+02  0.89999746583E+02 0.  0.
         12    1    1    2    0    0  0.10488745523E+01 -0.60913178515E-01  0.53829274282E+00  0.11805114649E+01  0.00000000000E+00 0. -1.
         11    1    3    3    0    0  0.69986246177E+01  0.51774862438E+01 -0.16361037260E+01  0.88579876952E+01  0.51100000000E-03 0. -1.
        -11    1    3    3    0    0  0.52438546239E+01  0.14884206624E+02 -0.34655782813E+02  0.38079665187E+02  0.51100000000E-03 0.  1.
         12    1    3    3    0    0 -0.13291353794E+02 -0.20000779689E+02  0.35753593796E+02  0.43069835653E+02  0.00000000000E+00 0. -1.
</event>
<event>
 7    1  0.4008281E-015  0.9000772E+02  0.7816164E-02  0.1186339E+00
        -11   -1    0    0    0    0  0.00000000000E+00  0.00000000000E+00  0.45593999997E+02  0.45594000000E+02  0.51100000000E-03 0. -1.
         11   -1    0    0    0    0 -0.00000000000E+00 -0.00000000000E+00 -0.45593999997E+02  0.45594000000E+02  0.51100000000E-03 0.  1.
    9900012    2    1    2    0    0 -0.98528581255E+00  0.48837753594E+00  0.42866250268E+00  0.90007723638E+02  0.89999984790E+02 0.  0.
         12    1    1    2    0    0  0.98528581255E+00 -0.48837753594E+00 -0.42866250268E+00  0.11802763622E+01  0.00000000000E+00 0. -1.
         11    1    3    3    0    0 -0.34849508920E+02 -0.18819157584E+02  0.11777994702E+02  0.41320335473E+02  0.51100000000E-03 0. -1.
        -11    1    3    3    0    0  0.40211307228E+01 -0.32999961851E+01  0.55534603933E+01  0.76092305598E+01  0.51100000000E-03 0.  1.
        -12    1    3    3    0    0  0.29843092385E+02  0.22607531305E+02 -0.16902792592E+02  0.41078157605E+02  0.00000000000E+00 0.  1.
</event>
<event>
 7    1  0.4008281E-015  0.9000788E+02  0.7816164E-02  0.1186339E+00
        -11   -1    0    0    0    0  0.00000000000E+00  0.00000000000E+00  0.45593999997E+02  0.45594000000E+02  0.51100000000E-03 0. -1.
         11   -1    0    0    0    0 -0.00000000000E+00 -0.00000000000E+00 -0.45593999997E+02  0.45594000000E+02  0.51100000000E-03 0.  1.
    9900012    2    1    2    0    0 -0.90421604800E+00  0.43276251197E+00  0.62272534383E+00  0.90007882672E+02  0.90000145923E+02 0.  0.
         12    1    1    2    0    0  0.90421604800E+00 -0.43276251197E+00 -0.62272534383E+00  0.11801173277E+01  0.00000000000E+00 0. -1.
         11    1    3    3    0    0 -0.35887815821E+01  0.73173891636E+00  0.95142635979E+01  0.10194901037E+02  0.51100000000E-03 0. -1.
        -11    1    3    3    0    0  0.32031060633E+02  0.22865366206E+02 -0.14633254437E+02  0.41987449942E+02  0.51100000000E-03 0.  1.
         12    1    3    3    0    0 -0.29346495098E+02 -0.23164342610E+02  0.57417161830E+01  0.37825531693E+02  0.00000000000E+00 0. -1.
</event>
<event>
 7    1  0.4008281E-015  0.9000779E+02  0.7816164E-02  0.1186339E+00
        -11   -1    0    0    0    0  0.00000000000E+00  0.00000000000E+00  0.45593999997E+02  0.45594000000E+02  0.51100000000E-03 0. -1.
         11   -1    0    0    0    0 -0.00000000000E+00 -0.00000000000E+00 -0.45593999997E+02  0.45594000000E+02  0.51100000000E-03 0.  1.
    9900012    2    1    2    0    0 -0.50108092418E+00 -0.82391752497E+00  0.68043018014E+00  0.90007785015E+02  0.90000046977E+02 0.  0.
         12    1    1    2    0    0  0.50108092418E+00  0.82391752497E+00 -0.68043018014E+00  0.11802149849E+01  0.00000000000E+00 0. -1.
         11    1    3    3    0    0 -0.64932694265E+01  0.10241042282E+01  0.36370279831E+01  0.75126100741E+01  0.51100000000E-03 0. -1.
        -11    1    3    3    0    0  0.25064204356E+02 -0.26957555294E+02 -0.24579935969E+02  0.44261692013E+02  0.51100000000E-03 0.  1.
         12    1    3    3    0    0 -0.19072015853E+02  0.25109533541E+02  0.21623338166E+02  0.38233482928E+02  0.00000000000E+00 0. -1.
</event>
<event>
 7    1  0.4008281E-015  0.9000770E+02  0.7816164E-02  0.1186339E+00
        -11   -1    0    0    0    0  0.00000000000E+00  0.00000000000E+00  0.45593999997E+02  0.45594000000E+02  0.51100000000E-03 0. -1.
         11   -1    0    0    0    0 -0.00000000000E+00 -0.00000000000E+00 -0.45593999997E+02  0.45594000000E+02  0.51100000000E-03 0.  1.
    9900012    2    1    2    0    0  0.39154120477E+00  0.86884918625E+00 -0.69634698141E+00  0.90007702350E+02  0.89999963221E+02 0.  0.
         12    1    1    2    0    0 -0.39154120477E+00 -0.86884918625E+00  0.69634698141E+00  0.11802976497E+01  0.00000000000E+00 0. -1.
         11    1    3    3    0    0 -0.14125559698E+02 -0.13658549180E+02  0.23028331242E+02  0.30271958023E+02  0.51100000000E-03 0. -1.
        -11    1    3    3    0    0 -0.14063272959E+02  0.47265925379E+01  0.72087329855E+01  0.16494912999E+02  0.51100000000E-03 0.  1.
        -12    1    3    3    0    0  0.28580373862E+02  0.98008058281E+01 -0.30933411209E+02  0.43240831328E+02  0.00000000000E+00 0.  1.
</event>
<event>
 7    1  0.4008281E-015  0.9000774E+02  0.7816164E-02  0.1186339E+00
        -11   -1    0    0    0    0  0.00000000000E+00  0.00000000000E+00  0.45593999997E+02  0.45594000000E+02  0.51100000000E-03 0.  1.
         11   -1    0    0    0    0 -0.00000000000E+00 -0.00000000000E+00 -0.45593999997E+02  0.45594000000E+02  0.51100000000E-03 0. -1.
    9900012    2    1    2    0    0  0.42076125509E+00  0.10243516988E+01  0.40826762376E+00  0.90007737788E+02  0.89999999127E+02 0.  0.
         12    1    1    2    0    0 -0.42076125509E+00 -0.10243516988E+01 -0.40826762376E+00  0.11802622121E+01  0.00000000000E+00 0. -1.
         11    1    3    3    0    0 -0.25777839700E+01  0.39274870304E+02 -0.28605815521E+01  0.39463189616E+02  0.51100000000E-03 0. -1.
        -11    1    3    3    0    0 -0.87316229387E+01  0.82110083227E+00 -0.30045644834E+01  0.92705368624E+01  0.51100000000E-03 0.  1.
        -12    1    3    3    0    0  0.11730168164E+02 -0.39071619438E+02  0.62734136592E+01  0.41274011309E+02  0.00000000000E+00 0.  1.
</event>
<event>
 7    1  0.4008281E-015  0.9000769E+02  0.7816164E-02  0.1186339E+00
        -11   -1    0    0    0    0  0.00000000000E+00  0.00000000000E+00  0.45593999997E+02  0.45594000000E+02  0.51100000000E-03 0.  1.
         11   -1    0    0    0    0 -0.00000000000E+00 -0.00000000000E+00 -0.45593999997E+02  0.45594000000E+02  0.51100000000E-03 0. -1.
    9900012    2    1    2    0    0  0.52066113737E+00  0.39529484135E+00  0.98274178503E+00  0.90007691800E+02  0.89999952531E+02 0.  0.
         12    1    1    2    0    0 -0.52066113737E+00 -0.39529484135E+00 -0.98274178503E+00  0.11803082003E+01  0.00000000000E+00 0. -1.
         11    1    3    3    0    0 -0.16617424162E+02 -0.31886283233E+02  0.40854640423E+01  0.36187910425E+02  0.51100000000E-03 0. -1.
        -11    1    3    3    0    0 -0.74638386494E+01 -0.41972126636E+01  0.36437784179E+01  0.93060519528E+01  0.51100000000E-03 0.  1.
        -12    1    3    3    0    0  0.24601923949E+02  0.36478790738E+02 -0.67465006752E+01  0.44513729422E+02  0.00000000000E+00 0.  1.
</event>
<event>
 7    1  0.4008281E-015  0.9000660E+02  0.7816164E-02  0.1186341E+00
        -11   -1    0    0    0    0  0.00000000000E+00  0.00000000000E+00  0.45593999997E+02  0.45594000000E+02  0.51100000000E-03 0. -1.
         11   -1    0    0    0    0 -0.00000000000E+00 -0.00000000000E+00 -0.45593999997E+02  0.45594000000E+02  0.51100000000E-03 0.  1.
    9900012    2    1    2    0    0 -0.50110398064E+00 -0.98921267511E+00  0.40749575430E+00  0.90006602647E+02  0.89998848995E+02 0.  0.
         12    1    1    2    0    0  0.50110398064E+00  0.98921267511E+00 -0.40749575430E+00  0.11813973530E+01  0.00000000000E+00 0. -1.
         11    1    3    3    0    0 -0.51726796639E+01 -0.36919405186E+02  0.17247723741E+02  0.41076551324E+02  0.51100000000E-03 0. -1.
        -11    1    3    3    0    0  0.68521978981E+01  0.57556829826E+00  0.38776178616E+01  0.78942900531E+01  0.51100000000E-03 0.  1.
        -12    1    3    3    0    0 -0.21806222148E+01  0.35354624212E+02 -0.20717845848E+02  0.41035761270E+02  0.00000000000E+00 0.  1.
</event>
<event>
 7    1  0.4008281E-015  0.9000780E+02  0.7816164E-02  0.1186339E+00
        -11   -1    0    0    0    0  0.00000000000E+00  0.00000000000E+00  0.45593999997E+02  0.45594000000E+02  0.51100000000E-03 0.  1.
         11   -1    0    0    0    0 -0.00000000000E+00 -0.00000000000E+00 -0.45593999997E+02  0.45594000000E+02  0.51100000000E-03 0. -1.
    9900012    2    1    2    0    0  0.99778584247E+00 -0.62426123658E+00  0.87189565970E-01  0.90007796331E+02  0.90000058443E+02 0.  0.
         12    1    1    2    0    0 -0.99778584247E+00  0.62426123658E+00 -0.87189565970E-01  0.11802036686E+01  0.00000000000E+00 0. -1.
         11    1    3    3    0    0 -0.17902329664E+02  0.83265151846E+01 -0.14371220864E+02  0.24420406465E+02  0.51100000000E-03 0. -1.
        -11    1    3    3    0    0  0.27960690445E+02 -0.58316635606E+01 -0.16633241127E+02  0.33052582663E+02  0.51100000000E-03 0.  1.
         12    1    3    3    0    0 -0.90605749377E+01 -0.31191128606E+01  0.31091651557E+02  0.32534807204E+02  0.00000000000E+00 0. -1.
</event>
<event>
 7    1  0.4008281E-015  0.9000805E+02  0.7816164E-02  0.1186338E+00
        -11   -1    0    0    0    0  0.00000000000E+00  0.00000000000E+00  0.45593999997E+02  0.45594000000E+02  0.51100000000E-03 0. -1.
         11   -1    0    0    0    0 -0.00000000000E+00 -0.00000000000E+00 -0.45593999997E+02  0.45594000000E+02  0.51100000000E-03 0.  1.
    9900012    2    1    2    0    0 -0.70402281489E+00 -0.67935983462E+00  0.65961698389E+00  0.90008054038E+02  0.90000319550E+02 0.  0.
         12    1    1    2    0    0  0.70402281489E+00  0.67935983462E+00 -0.65961698389E+00  0.11799459624E+01  0.00000000000E+00 0. -1.
         11    1    3    3    0    0 -0.30844212195E+01 -0.24729318712E+01 -0.65134135673E+01  0.76192914932E+01  0.51100000000E-03 0. -1.
        -11    1    3    3    0    0 -0.28423692703E+02  0.54855948073E+01 -0.24594195957E+02  0.37985162002E+02  0.51100000000E-03 0.  1.
         12    1    3    3    0    0  0.30804091107E+02 -0.36920227708E+01  0.31767226509E+02  0.44403600543E+02  0.00000000000E+00 0. -1.
</event>
<event>
 7    1  0.4008281E-015  0.9000768E+02  0.7816164E-02  0.1186339E+00
        -11   -1    0    0    0    0  0.00000000000E+00  0.00000000000E+00  0.45593999997E+02  0.45594000000E+02  0.51100000000E-03 0.  1.
         11   -1    0    0    0    0 -0.00000000000E+00 -0.00000000000E+00 -0.45593999997E+02  0.45594000000E+02  0.51100000000E-03 0. -1.
    9900012    2    1    2    0    0  0.11177375590E+00  0.11718420626E+01  0.86310798503E-01  0.90007679388E+02  0.89999939956E+02 0.  0.
         12    1    1    2    0    0 -0.11177375590E+00 -0.11718420626E+01 -0.86310798503E-01  0.11803206115E+01  0.00000000000E+00 0. -1.
         11    1    3    3    0    0  0.54080961735E+01 -0.79165935499E+01 -0.50197891473E+01  0.10822118138E+02  0.51100000000E-03 0. -1.
        -11    1    3    3    0    0  0.21858567125E+02 -0.18693273686E+02  0.22601181095E+02  0.36579349707E+02  0.51100000000E-03 0.  1.
         12    1    3    3    0    0 -0.27154889542E+02  0.27781709299E+02 -0.17495081149E+02  0.42606211543E+02  0.00000000000E+00 0. -1.
</event>
<event>
 7    1  0.4008281E-015  0.9000777E+02  0.7816164E-02  0.1186339E+00
        -11   -1    0    0    0    0  0.00000000000E+00  0.00000000000E+00  0.45593999997E+02  0.45594000000E+02  0.51100000000E-03 0.  1.
         11   -1    0    0    0    0 -0.00000000000E+00 -0.00000000000E+00 -0.45593999997E+02  0.45594000000E+02  0.51100000000E-03 0. -1.
    9900012    2    1    2    0    0  0.71783910171E+00  0.70402473775E+00  0.61806758098E+00  0.90007766404E+02  0.90000028120E+02 0.  0.
         12    1    1    2    0    0 -0.71783910171E+00 -0.70402473775E+00 -0.61806758098E+00  0.11802335964E+01  0.00000000000E+00 0. -1.
         11    1    3    3    0    0  0.62262018504E+00 -0.89887788371E+01  0.10709364099E+01  0.90737371536E+01  0.51100000000E-03 0. -1.
        -11    1    3    3    0    0 -0.36461861476E+02  0.17336920863E+02 -0.11512802612E+02  0.41983101261E+02  0.51100000000E-03 0.  1.
         12    1    3    3    0    0  0.36557080392E+02 -0.76441172877E+01  0.11059933783E+02  0.38950927989E+02  0.00000000000E+00 0. -1.
</event>
<event>
 7    1  0.4008281E-015  0.9000768E+02  0.7816164E-02  0.1186339E+00
        -11   -1    0    0    0    0  0.00000000000E+00  0.00000000000E+00  0.45593999997E+02  0.45594000000E+02  0.51100000000E-03 0.  1.
         11   -1    0    0    0    0 -0.00000000000E+00 -0.00000000000E+00 -0.45593999997E+02  0.45594000000E+02  0.51100000000E-03 0. -1.
    9900012    2    1    2    0    0 -0.66933435878E+00 -0.87929968243E+00  0.41470434324E+00  0.90007679659E+02  0.89999940230E+02 0.  0.
         12    1    1    2    0    0  0.66933435878E+00  0.87929968243E+00 -0.41470434324E+00  0.11803203411E+01  0.00000000000E+00 0. -1.
         11    1    3    3    0    0 -0.32426009026E+02 -0.19141099214E+02  0.77102535395E+00  0.37661946589E+02  0.51100000000E-03 0. -1.
        -11    1    3    3    0    0 -0.79804917228E+01  0.31928702858E+01 -0.43984631683E+01  0.96555241859E+01  0.51100000000E-03 0.  1.
        -12    1    3    3    0    0  0.39737166390E+02  0.15068929246E+02  0.40421421576E+01  0.42690208884E+02  0.00000000000E+00 0.  1.
</event>
<event>
 7    1  0.4008281E-015  0.9000772E+02  0.7816164E-02  0.1186339E+00
        -11   -1    0    0    0    0  0.00000000000E+00  0.00000000000E+00  0.45593999997E+02  0.45594000000E+02  0.51100000000E-03 0. -1.
         11   -1    0    0    0    0 -0.00000000000E+00 -0.00000000000E+00 -0.45593999997E+02  0.45594000000E+02  0.51100000000E-03 0.  1.
    9900012    2    1    2    0    0  0.63520933801E+00 -0.26141945710E+00 -0.95980648574E+00  0.90007720573E+02  0.89999981685E+02 0.  0.
         12    1    1    2    0    0 -0.63520933801E+00  0.26141945710E+00  0.95980648574E+00  0.11802794270E+01  0.00000000000E+00 0. -1.
         11    1    3    3    0    0  0.29046701125E+02 -0.22579764057E+02  0.20131815037E+02  0.41938604746E+02  0.51100000000E-03 0. -1.
        -11    1    3    3    0    0  0.37389355316E+00  0.83046669998E+01  0.20544002283E+01  0.85631682761E+01  0.51100000000E-03 0.  1.
        -12    1    3    3    0    0 -0.28785385340E+02  0.14013677600E+02 -0.23146021751E+02  0.39505947551E+02  0.00000000000E+00 0.  1.
</event>
<event>
 7    1  0.4008281E-015  0.9000778E+02  0.7816164E-02  0.1186339E+00
        -11   -1    0    0    0    0  0.00000000000E+00  0.00000000000E+00  0.45593999997E+02  0.45594000000E+02  0.51100000000E-03 0. -1.
         11   -1    0    0    0    0 -0.00000000000E+00 -0.00000000000E+00 -0.45593999997E+02  0.45594000000E+02  0.51100000000E-03 0.  1.
    9900012    2    1    2    0    0 -0.95347054221E+00  0.31566470618E+00 -0.61981958689E+00  0.90007776885E+02  0.90000038740E+02 0.  0.
         12    1    1    2    0    0  0.95347054221E+00 -0.31566470618E+00  0.61981958689E+00  0.11802231153E+01  0.00000000000E+00 0. -1.
         11    1    3    3    0    0 -0.22961284586E+02  0.21196830581E+02  0.17472397170E+02  0.35802386508E+02  0.51100000000E-03 0. -1.
        -11    1    3    3    0    0  0.17207822220E+01  0.11584329707E+02  0.33994800664E+00  0.11716371073E+02  0.51100000000E-03 0.  1.
        -12    1    3    3    0    0  0.20287031822E+02 -0.32465495582E+02 -0.18432164763E+02  0.42489019304E+02  0.00000000000E+00 0.  1.
</event>
<event>
 7    1  0.4008281E-015  0.9000773E+02  0.7816164E-02  0.1186339E+00
        -11   -1    0    0    0    0  0.00000000000E+00  0.00000000000E+00  0.45593999997E+02  0.45594000000E+02  0.51100000000E-03 0. -1.
         11   -1    0    0    0    0 -0.00000000000E+00 -0.00000000000E+00 -0.45593999997E+02  0.45594000000E+02  0.51100000000E-03 0.  1.
    9900012    2    1    2    0    0  0.11175026952E+01 -0.21516818837E+00  0.31294210338E+00  0.90007727835E+02  0.89999989043E+02 0.  0.
         12    1    1    2    0    0 -0.11175026952E+01  0.21516818837E+00 -0.31294210338E+00  0.11802721648E+01  0.00000000000E+00 0. -1.
         11    1    3    3    0    0 -0.56767131021E+01 -0.38592688176E+01  0.58886889651E+01  0.90440967177E+01  0.51100000000E-03 0. -1.
        -11    1    3    3    0    0 -0.25634391523E+02 -0.20001102657E+02  0.15063441561E+02  0.35833970030E+02  0.51100000000E-03 0.  1.
         12    1    3    3    0    0  0.32428607320E+02  0.23645203286E+02 -0.20639188422E+02  0.45129661087E+02  0.00000000000E+00 0. -1.
</event>
<event>
 7    1  0.4008281E-015  0.9000772E+02  0.7816164E-02  0.1186339E+00
        -11   -1    0    0    0    0  0.00000000000E+00  0.00000000000E+00  0.45593999997E+02  0.45594000000E+02  0.51100000000E-03 0. -1.
         11   -1    0    0    0    0 -0.00000000000E+00 -0.00000000000E+00 -0.45593999997E+02  0.45594000000E+02  0.51100000000E-03 0.  1.
    9900012    2    1    2    0    0 -0.89892829690E+00  0.10253798671E+00 -0.75793438363E+00  0.90007724332E+02  0.89999985494E+02 0.  0.
         12    1    1    2    0    0  0.89892829690E+00 -0.10253798671E+00  0.75793438363E+00  0.11802756676E+01  0.00000000000E+00 0. -1.
         11    1    3    3    0    0  0.45390793803E+01 -0.69432835907E+01 -0.39828967459E+00  0.83048819117E+01  0.51100000000E-03 0. -1.
        -11    1    3    3    0    0  0.34316767914E+02  0.11287109935E+02 -0.15014401388E+02  0.39121243079E+02  0.51100000000E-03 0.  1.
         12    1    3    3    0    0 -0.39754775591E+02 -0.42412883571E+01  0.14654756679E+02  0.42581599342E+02  0.00000000000E+00 0. -1.
</event>
<event>
 7    1  0.4008281E-015  0.9000777E+02  0.7816164E-02  0.1186339E+00
        -11   -1    0    0    0    0  0.00000000000E+00  0.00000000000E+00  0.45593999997E+02  0.45594000000E+02  0.51100000000E-03 0. -1.
         11   -1    0    0    0    0 -0.00000000000E+00 -0.00000000000E+00 -0.45593999997E+02  0.45594000000E+02  0.51100000000E-03 0.  1.
    9900012    2    1    2    0    0  0.78705499668E+00 -0.77437584866E+00  0.41693161561E+00  0.90007768881E+02  0.90000030630E+02 0.  0.
         12    1    1    2    0    0 -0.78705499668E+00  0.77437584866E+00 -0.41693161561E+00  0.11802311193E+01  0.00000000000E+00 0. -1.
         11    1    3    3    0    0 -0.29501544321E+01 -0.37243864043E+02  0.13606707173E+02  0.39761178307E+02  0.51100000000E-03 0. -1.
        -11    1    3    3    0    0  0.76402551594E+01 -0.22664949754E+01  0.23790994000E+01  0.83168871936E+01  0.51100000000E-03 0.  1.
        -12    1    3    3    0    0 -0.39030457306E+01  0.38735983170E+02 -0.15568874958E+02  0.41929703380E+02  0.00000000000E+00 0.  1.
</event>
<event>
 7    1  0.4213509E-015  0.9000754E+02  0.7816164E-02  0.1186339E+00
        -11   -1    0    0    0    0  0.00000000000E+00  0.00000000000E+00  0.45593999997E+02  0.45594000000E+02  0.51100000000E-03 0.  1.
         11   -1    0    0    0    0 -0.00000000000E+00 -0.00000000000E+00 -0.45593999997E+02  0.45594000000E+02  0.51100000000E-03 0. -1.
    9900012    2    1    2    0    0  0.62520956511E+00  0.79209383330E+00  0.61253243536E+00  0.90007535843E+02  0.89999794516E+02 0.  0.
         12    1    1    2    0    0 -0.62520956511E+00 -0.79209383330E+00 -0.61253243536E+00  0.11804641568E+01  0.00000000000E+00 0. -1.
         11    1    3    3    0    0  0.58788374652E+01  0.27410429090E+01 -0.68116494159E+01  0.94059882095E+01  0.51100000000E-03 0. -1.
        -11    1    3    3    0    0 -0.39107189013E+01  0.37965954948E+02  0.12905439698E+02  0.40289674006E+02  0.51100000000E-03 0.  1.
         12    1    3    3    0    0 -0.13429089989E+01 -0.39914904024E+02 -0.54812578471E+01  0.40311873628E+02  0.00000000000E+00 0. -1.
</event>
<event>
 7    1  0.4008281E-015  0.9000771E+02  0.7816164E-02  0.1186339E+00
        -11   -1    0    0    0    0  0.00000000000E+00  0.00000000000E+00  0.45593999997E+02  0.45594000000E+02  0.51100000000E-03 0. -1.
         11   -1    0    0    0    0 -0.00000000000E+00 -0.00000000000E+00 -0.45593999997E+02  0.45594000000E+02  0.51100000000E-03 0.  1.
    9900012    2    1    2    0    0  0.75190737744E+00  0.87720922365E+00  0.24129604298E+00  0.90007709990E+02  0.89999970962E+02 0.  0.
         12    1    1    2    0    0 -0.75190737744E+00 -0.87720922365E+00 -0.24129604298E+00  0.11802900096E+01  0.00000000000E+00 0. -1.
         11    1    3    3    0    0 -0.44230131139E+01 -0.51534721401E+01 -0.25525314599E+01  0.72551180017E+01  0.51100000000E-03 0. -1.
        -11    1    3    3    0    0 -0.24000762026E+02  0.25201531413E+02 -0.20868187369E+02  0.40578750692E+02  0.51100000000E-03 0.  1.
         12    1    3    3    0    0  0.29175682517E+02 -0.19170850050E+02  0.23662014872E+02  0.42173841297E+02  0.00000000000E+00 0. -1.
</event>
<event>
 7    1  0.4008281E-015  0.9000772E+02  0.7816164E-02  0.1186339E+00
        -11   -1    0    0    0    0  0.00000000000E+00  0.00000000000E+00  0.45593999997E+02  0.45594000000E+02  0.51100000000E-03 0.  1.
         11   -1    0    0    0    0 -0.00000000000E+00 -0.00000000000E+00 -0.45593999997E+02  0.45594000000E+02  0.51100000000E-03 0. -1.
    9900012    2    1    2    0    0  0.53926051001E+00  0.87217245942E+00 -0.58444707616E+00  0.90007718219E+02  0.89999979300E+02 0.  0.
         12    1    1    2    0    0 -0.53926051001E+00 -0.87217245942E+00  0.58444707616E+00  0.11802817805E+01  0.00000000000E+00 0. -1.
         11    1    3    3    0    0  0.43546559407E+01  0.77357037124E+01  0.10153104978E+01  0.89350431424E+01  0.51100000000E-03 0. -1.
        -11    1    3    3    0    0 -0.30600793346E+02  0.23822529107E+02  0.70922910416E+01  0.39423622854E+02  0.51100000000E-03 0.  1.
         12    1    3    3    0    0  0.26785397915E+02 -0.30686060360E+02 -0.86920486156E+01  0.41649052223E+02  0.00000000000E+00 0. -1.
</event>
<event>
 7    1  0.4008281E-015  0.9000776E+02  0.7816164E-02  0.1186339E+00
        -11   -1    0    0    0    0  0.00000000000E+00  0.00000000000E+00  0.45593999997E+02  0.45594000000E+02  0.51100000000E-03 0. -1.
         11   -1    0    0    0    0 -0.00000000000E+00 -0.00000000000E+00 -0.45593999997E+02  0.45594000000E+02  0.51100000000E-03 0.  1.
    9900012    2    1    2    0    0 -0.23351603204E+00 -0.11564574524E+01  0.32218114998E-01  0.90007762065E+02  0.90000023724E+02 0.  0.
         12    1    1    2    0    0  0.23351603204E+00  0.11564574524E+01 -0.32218114998E-01  0.11802379351E+01  0.00000000000E+00 0. -1.
         11    1    3    3    0    0 -0.82779462711E+01  0.76532003013E+01  0.20635063003E+01  0.11460974122E+02  0.51100000000E-03 0. -1.
        -11    1    3    3    0    0 -0.69320307787E+01  0.33053002694E+02 -0.42041772971E+01  0.34032765753E+02  0.51100000000E-03 0.  1.
         12    1    3    3    0    0  0.14976461018E+02 -0.41862660448E+02  0.21728891118E+01  0.44514022189E+02  0.00000000000E+00 0. -1.
</event>
<event>
 7    1  0.4706492E-015  0.9000764E+02  0.7816164E-02  0.1186339E+00
        -11   -1    0    0    0    0  0.00000000000E+00  0.00000000000E+00  0.45593999997E+02  0.45594000000E+02  0.51100000000E-03 0. -1.
         11   -1    0    0    0    0 -0.00000000000E+00 -0.00000000000E+00 -0.45593999997E+02  0.45594000000E+02  0.51100000000E-03 0.  1.
    9900012    2    1    2    0    0 -0.41471174918E+00 -0.50849211721E-01 -0.11039373719E+01  0.90007640225E+02  0.89999900276E+02 0.  0.
         12    1    1    2    0    0  0.41471174918E+00  0.50849211721E-01  0.11039373719E+01  0.11803597749E+01  0.00000000000E+00 0. -1.
         11    1    3    3    0    0  0.93500895131E+01  0.10954254983E+01  0.19995974747E+01  0.96240594994E+01  0.51100000000E-03 0. -1.
        -11    1    3    3    0    0  0.20879638864E+02  0.85233495405E+01 -0.30653963520E+02  0.38056172774E+02  0.51100000000E-03 0.  1.
         12    1    3    3    0    0 -0.30644440127E+02 -0.96696242505E+01  0.27550428673E+02  0.42327407952E+02  0.00000000000E+00 0. -1.
</event>
<event>
 7    1  0.4008281E-015  0.9000778E+02  0.7816164E-02  0.1186339E+00
        -11   -1    0    0    0    0  0.00000000000E+00  0.00000000000E+00  0.45593999997E+02  0.45594000000E+02  0.51100000000E-03 0.  1.
         11   -1    0    0    0    0 -0.00000000000E+00 -0.00000000000E+00 -0.45593999997E+02  0.45594000000E+02  0.51100000000E-03 0. -1.
    9900012    2    1    2    0    0 -0.51407143375E+00 -0.57050195512E+00  0.89619927711E+00  0.90007781773E+02  0.90000043692E+02 0.  0.
         12    1    1    2    0    0  0.51407143375E+00  0.57050195512E+00 -0.89619927711E+00  0.11802182273E+01  0.00000000000E+00 0. -1.
         11    1    3    3    0    0 -0.20177273976E+02  0.78984145152E+01 -0.31500889414E+02  0.38233668031E+02  0.51100000000E-03 0. -1.
        -11    1    3    3    0    0  0.46700621321E+01  0.58074051867E+01 -0.50382157289E+01  0.89955018377E+01  0.51100000000E-03 0.  1.
        -12    1    3    3    0    0  0.14993140410E+02 -0.14276321657E+02  0.37435304420E+02  0.42778611904E+02  0.00000000000E+00 0.  1.
</event>
<event>
 7    1  0.4008281E-015  0.9000771E+02  0.7816164E-02  0.1186339E+00
        -11   -1    0    0    0    0  0.00000000000E+00  0.00000000000E+00  0.45593999997E+02  0.45594000000E+02  0.51100000000E-03 0.  1.
         11   -1    0    0    0    0 -0.00000000000E+00 -0.00000000000E+00 -0.45593999997E+02  0.45594000000E+02  0.51100000000E-03 0. -1.
    9900012    2    1    2    0    0  0.42421568646E+00  0.54021351365E+00  0.95983658784E+00  0.90007713652E+02  0.89999974672E+02 0.  0.
         12    1    1    2    0    0 -0.42421568646E+00 -0.54021351365E+00 -0.95983658784E+00  0.11802863484E+01  0.00000000000E+00 0. -1.
         11    1    3    3    0    0 -0.47400567345E+01  0.14173592053E+02 -0.75833281901E+01  0.16759048786E+02  0.51100000000E-03 0. -1.
        -11    1    3    3    0    0 -0.96648581158E+01  0.41348721652E+01  0.35904720668E+02  0.37411971570E+02  0.51100000000E-03 0.  1.
         12    1    3    3    0    0  0.14829130537E+02 -0.17768250704E+02 -0.27361555891E+02  0.35836693295E+02  0.00000000000E+00 0. -1.
</event>
<event>
 7    1  0.4008281E-015  0.9000775E+02  0.7816164E-02  0.1186339E+00
        -11   -1    0    0    0    0  0.00000000000E+00  0.00000000000E+00  0.45593999997E+02  0.45594000000E+02  0.51100000000E-03 0.  1.
         11   -1    0    0    0    0 -0.00000000000E+00 -0.00000000000E+00 -0.45593999997E+02  0.45594000000E+02  0.51100000000E-03 0. -1.
    9900012    2    1    2    0    0 -0.89183748188E+00  0.75485456158E+00 -0.16679627523E+00  0.90007745578E+02  0.90000007020E+02 0.  0.
         12    1    1    2    0    0  0.89183748188E+00 -0.75485456158E+00  0.16679627523E+00  0.11802544220E+01  0.00000000000E+00 0. -1.
         11    1    3    3    0    0  0.58348332809E+01  0.26085487889E+01  0.17642753014E+01  0.66304203336E+01  0.51100000000E-03 0. -1.
        -11    1    3    3    0    0 -0.47200828462E+01 -0.35435090002E+02  0.22106066866E+02  0.42030976412E+02  0.51100000000E-03 0.  1.
         12    1    3    3    0    0 -0.20065879166E+01  0.33581395775E+02 -0.24037138443E+02  0.41346348833E+02  0.00000000000E+00 0. -1.
</event>
<event>
 7    1  0.4008281E-015  0.9000770E+02  0.7816164E-02  0.1186339E+00
        -11   -1    0    0    0    0  0.00000000000E+00  0.00000000000E+00  0.45593999997E+02  0.45594000000E+02  0.51100000000E-03 0.  1.
         11   -1    0    0    0    0 -0.00000000000E+00 -0.00000000000E+00 -0.45593999997E+02  0.45594000000E+02  0.51100000000E-03 0. -1.
    9900012    2    1    2    0    0  0.19176078442E+00 -0.11572753529E+01  0.13058937794E+00  0.90007698332E+02  0.89999959150E+02 0.  0.
         12    1    1    2    0    0 -0.19176078442E+00  0.11572753529E+01 -0.13058937794E+00  0.11803016676E+01  0.00000000000E+00 0. -1.
         11    1    3    3    0    0 -0.73572755993E+01  0.84523792503E+01  0.92767770542E+01  0.14547536287E+02  0.51100000000E-03 0. -1.
        -11    1    3    3    0    0 -0.98291326278E+01  0.29938994327E+02 -0.65439756619E+01  0.32183518255E+02  0.51100000000E-03 0.  1.
         12    1    3    3    0    0  0.17378169012E+02 -0.39548648931E+02 -0.26022120143E+01  0.43276643791E+02  0.00000000000E+00 0. -1.
</event>
<event>
 7    1  0.4008281E-015  0.9000812E+02  0.7816164E-02  0.1186338E+00
        -11   -1    0    0    0    0  0.00000000000E+00  0.00000000000E+00  0.45593999997E+02  0.45594000000E+02  0.51100000000E-03 0.  1.
         11   -1    0    0    0    0 -0.00000000000E+00 -0.00000000000E+00 -0.45593999997E+02  0.45594000000E+02  0.51100000000E-03 0. -1.
    9900012    2    1    2    0    0 -0.74953615869E+00  0.24924619953E+00  0.87646558128E+00  0.90008118635E+02  0.90000385000E+02 0.  0.
         12    1    1    2    0    0  0.74953615869E+00 -0.24924619953E+00 -0.87646558128E+00  0.11798813654E+01  0.00000000000E+00 0. -1.
         11    1    3    3    0    0 -0.96385469792E+01 -0.44595957947E+01 -0.21705088478E+01  0.10839773588E+02  0.51100000000E-03 0. -1.
        -11    1    3    3    0    0  0.16389844755E+02 -0.80858111556E+01  0.37468230853E+02  0.41687836075E+02  0.51100000000E-03 0.  1.
         12    1    3    3    0    0 -0.75008339343E+01  0.12794653150E+02 -0.34421256424E+02  0.37480508971E+02  0.00000000000E+00 0. -1.
</event>
<event>
 7    1  0.4008281E-015  0.9000772E+02  0.7816164E-02  0.1186339E+00
        -11   -1    0    0    0    0  0.00000000000E+00  0.00000000000E+00  0.45593999997E+02  0.45594000000E+02  0.51100000000E-03 0.  1.
         11   -1    0    0    0    0 -0.00000000000E+00 -0.00000000000E+00 -0.45593999997E+02  0.45594000000E+02  0.51100000000E-03 0. -1.
    9900012    2    1    2    0    0  0.68908297173E+00  0.87445606570E+00  0.39186522904E+00  0.90007717360E+02  0.89999978429E+02 0.  0.
         12    1    1    2    0    0 -0.68908297173E+00 -0.87445606570E+00 -0.39186522904E+00  0.11802826401E+01  0.00000000000E+00 0. -1.
         11    1    3    3    0    0 -0.31188846286E+00  0.30744311564E+02  0.19104207868E+02  0.36197800023E+02  0.51100000000E-03 0. -1.
        -11    1    3    3    0    0  0.11169540922E+02  0.36904013564E+01  0.35327149911E+01  0.12282417598E+02  0.51100000000E-03 0.  1.
        -12    1    3    3    0    0 -0.10168569488E+02 -0.33560256855E+02 -0.22245057630E+02  0.41527499739E+02  0.00000000000E+00 0.  1.
</event>
<event>
 7    1  0.4008281E-015  0.9000752E+02  0.7816164E-02  0.1186339E+00
        -11   -1    0    0    0    0  0.00000000000E+00  0.00000000000E+00  0.45593999997E+02  0.45594000000E+02  0.51100000000E-03 0.  1.
         11   -1    0    0    0    0 -0.00000000000E+00 -0.00000000000E+00 -0.45593999997E+02  0.45594000000E+02  0.51100000000E-03 0. -1.
    9900012    2    1    2    0    0  0.62034415476E+00  0.27790318732E+00  0.96512620084E+00  0.90007523132E+02  0.89999781637E+02 0.  0.
         12    1    1    2    0    0 -0.62034415476E+00 -0.27790318732E+00 -0.96512620084E+00  0.11804768678E+01  0.00000000000E+00 0. -1.
         11    1    3    3    0    0  0.36138606510E+01 -0.76589795528E+01  0.38827081456E+01  0.93164037804E+01  0.51100000000E-03 0. -1.
        -11    1    3    3    0    0 -0.21247384007E+02 -0.23991252954E+02  0.19601550447E+02  0.37566638466E+02  0.51100000000E-03 0.  1.
         12    1    3    3    0    0  0.18253867511E+02  0.31928135694E+02 -0.22519132392E+02  0.43124480886E+02  0.00000000000E+00 0. -1.
</event>
<event>
 7    1  0.4008281E-015  0.9000778E+02  0.7816164E-02  0.1186339E+00
        -11   -1    0    0    0    0  0.00000000000E+00  0.00000000000E+00  0.45593999997E+02  0.45594000000E+02  0.51100000000E-03 0. -1.
         11   -1    0    0    0    0 -0.00000000000E+00 -0.00000000000E+00 -0.45593999997E+02  0.45594000000E+02  0.51100000000E-03 0.  1.
    9900012    2    1    2    0    0  0.62615771086E+00  0.96598642816E+00 -0.26021188747E+00  0.90007782442E+02  0.90000044370E+02 0.  0.
         12    1    1    2    0    0 -0.62615771086E+00 -0.96598642816E+00  0.26021188747E+00  0.11802175582E+01  0.00000000000E+00 0. -1.
         11    1    3    3    0    0 -0.23037108739E+02  0.31200331303E+02 -0.68011687234E+01  0.39375435855E+02  0.51100000000E-03 0. -1.
        -11    1    3    3    0    0 -0.69709622310E+01 -0.10606363671E+01  0.43233157269E+01  0.82710533226E+01  0.51100000000E-03 0.  1.
        -12    1    3    3    0    0  0.30634228680E+02 -0.29173708508E+02  0.22176411090E+01  0.42361293265E+02  0.00000000000E+00 0.  1.
</event>
<event>
 7    1  0.4008281E-015  0.9000775E+02  0.7816164E-02  0.1186339E+00
        -11   -1    0    0    0    0  0.00000000000E+00  0.00000000000E+00  0.45593999997E+02  0.45594000000E+02  0.51100000000E-03 0. -1.
         11   -1    0    0    0    0 -0.00000000000E+00 -0.00000000000E+00 -0.45593999997E+02  0.45594000000E+02  0.51100000000E-03 0.  1.
    9900012    2    1    2    0    0  0.11711978370E+01 -0.14383903974E+00 -0.24441458963E-01  0.90007749422E+02  0.90000010914E+02 0.  0.
         12    1    1    2    0    0 -0.11711978370E+01  0.14383903974E+00  0.24441458963E-01  0.11802505783E+01  0.00000000000E+00 0. -1.
         11    1    3    3    0    0  0.10689003485E+02  0.11698860246E+01 -0.20513134818E+01  0.10946749110E+02  0.51100000000E-03 0. -1.
        -11    1    3    3    0    0 -0.15284910634E+02  0.15990348761E+02 -0.32907691701E+02  0.39651430238E+02  0.51100000000E-03 0.  1.
         12    1    3    3    0    0  0.57671049860E+01 -0.17304073825E+02  0.34934563723E+02  0.39409570074E+02  0.00000000000E+00 0. -1.
</event>
<event>
 7    1  0.4008281E-015  0.9000779E+02  0.7816164E-02  0.1186339E+00
        -11   -1    0    0    0    0  0.00000000000E+00  0.00000000000E+00  0.45593999997E+02  0.45594000000E+02  0.51100000000E-03 0.  1.
         11   -1    0    0    0    0 -0.00000000000E+00 -0.00000000000E+00 -0.45593999997E+02  0.45594000000E+02  0.51100000000E-03 0. -1.
    9900012    2    1    2    0    0 -0.61494157725E+00 -0.19857079398E+00 -0.98757889425E+00  0.90007790029E+02  0.90000052057E+02 0.  0.
         12    1    1    2    0    0  0.61494157725E+00  0.19857079398E+00  0.98757889425E+00  0.11802099712E+01  0.00000000000E+00 0. -1.
         11    1    3    3    0    0 -0.15289486794E+01  0.45217193282E+01  0.75689997089E+01  0.89483734053E+01  0.51100000000E-03 0. -1.
        -11    1    3    3    0    0  0.19869594275E+01  0.24077612751E+02  0.26379862107E+02  0.35771169516E+02  0.51100000000E-03 0.  1.
         12    1    3    3    0    0 -0.10729523254E+01 -0.28797902873E+02 -0.34936440710E+02  0.45288247107E+02  0.00000000000E+00 0. -1.
</event>
<event>
 7    1  0.4008281E-015  0.9000768E+02  0.7816164E-02  0.1186339E+00
        -11   -1    0    0    0    0  0.00000000000E+00  0.00000000000E+00  0.45593999997E+02  0.45594000000E+02  0.51100000000E-03 0. -1.
         11   -1    0    0    0    0 -0.00000000000E+00 -0.00000000000E+00 -0.45593999997E+02  0.45594000000E+02  0.51100000000E-03 0.  1.
    9900012    2    1    2    0    0 -0.36585473512E+00  0.63114601522E+00  0.92787882810E+00  0.90007680510E+02  0.89999941092E+02 0.  0.
         12    1    1    2    0    0  0.36585473512E+00 -0.63114601522E+00 -0.92787882810E+00  0.11803194904E+01  0.00000000000E+00 0. -1.
         11    1    3    3    0    0 -0.22062539633E+02  0.11060685826E+02  0.27467736712E+02  0.36926562071E+02  0.51100000000E-03 0. -1.
        -11    1    3    3    0    0 -0.51263058502E+01  0.79156043191E+01  0.22172275018E+01  0.96877191053E+01  0.51100000000E-03 0.  1.
        -12    1    3    3    0    0  0.26822990748E+02 -0.18345144130E+02 -0.28757085386E+02  0.43393399334E+02  0.00000000000E+00 0.  1.
</event>
<event>
 7    1  0.4008281E-015  0.9000760E+02  0.7816164E-02  0.1186339E+00
        -11   -1    0    0    0    0  0.00000000000E+00  0.00000000000E+00  0.45593999997E+02  0.45594000000E+02  0.51100000000E-03 0. -1.
         11   -1    0    0    0    0 -0.00000000000E+00 -0.00000000000E+00 -0.45593999997E+02  0.45594000000E+02  0.51100000000E-03 0.  1.
    9900012    2    1    2    0    0 -0.15821788360E+00  0.25538232801E+00 -0.11415282153E+01  0.90007601890E+02  0.89999861435E+02 0.  0.
         12    1    1    2    0    0  0.15821788360E+00 -0.25538232801E+00  0.11415282153E+01  0.11803981102E+01  0.00000000000E+00 0. -1.
         11    1    3    3    0    0 -0.51042200771E+01  0.50596697479E+01  0.86730747483E+01  0.11263904581E+02  0.51100000000E-03 0. -1.
        -11    1    3    3    0    0 -0.54905002282E+01 -0.24141195319E+02  0.26520802837E+02  0.36280792267E+02  0.51100000000E-03 0.  1.
         12    1    3    3    0    0  0.10436502422E+02  0.19336907899E+02 -0.36335405801E+02  0.42462905042E+02  0.00000000000E+00 0. -1.
</event>
<event>
 7    1  0.4008281E-015  0.9000776E+02  0.7816164E-02  0.1186339E+00
        -11   -1    0    0    0    0  0.00000000000E+00  0.00000000000E+00  0.45593999997E+02  0.45594000000E+02  0.51100000000E-03 0. -1.
         11   -1    0    0    0    0 -0.00000000000E+00 -0.00000000000E+00 -0.45593999997E+02  0.45594000000E+02  0.51100000000E-03 0.  1.
    9900012    2    1    2    0    0  0.64724265579E+00  0.87708132896E+00  0.45251081541E+00  0.90007762417E+02  0.90000024081E+02 0.  0.
         12    1    1    2    0    0 -0.64724265579E+00 -0.87708132896E+00 -0.45251081541E+00  0.11802375825E+01  0.00000000000E+00 0. -1.
         11    1    3    3    0    0  0.95771590922E+01  0.99113120607E+01  0.10710651706E+01  0.13824010413E+02  0.51100000000E-03 0. -1.
        -11    1    3    3    0    0  0.29220204423E+02 -0.77694375782E+01  0.16392975484E+02  0.34393519045E+02  0.51100000000E-03 0.  1.
         12    1    3    3    0    0 -0.38150120860E+02 -0.12647931535E+01 -0.17011529839E+02  0.41790232959E+02  0.00000000000E+00 0. -1.
</event>
<event>
 7    1  0.4008281E-015  0.9000714E+02  0.7816164E-02  0.1186340E+00
        -11   -1    0    0    0    0  0.00000000000E+00  0.00000000000E+00  0.45593999997E+02  0.45594000000E+02  0.51100000000E-03 0. -1.
         11   -1    0    0    0    0 -0.00000000000E+00 -0.00000000000E+00 -0.45593999997E+02  0.45594000000E+02  0.51100000000E-03 0.  1.
    9900012    2    1    2    0    0  0.13492604186E-01 -0.11758891422E+01  0.10741692177E+00  0.90007137722E+02  0.89999391138E+02 0.  0.
         12    1    1    2    0    0 -0.13492604186E-01  0.11758891422E+01 -0.10741692177E+00  0.11808622783E+01  0.00000000000E+00 0. -1.
         11    1    3    3    0    0  0.56496417653E+01 -0.51283198568E+01 -0.47168480609E+01  0.89703273363E+01  0.51100000000E-03 0. -1.
        -11    1    3    3    0    0  0.26684819078E+02 -0.23425690313E+02 -0.87248058854E+01  0.36564528903E+02  0.51100000000E-03 0.  1.
         12    1    3    3    0    0 -0.32320968239E+02  0.27378121027E+02  0.13549070868E+02  0.44472281483E+02  0.00000000000E+00 0. -1.
</event>
<event>
 7    1  0.4008281E-015  0.9000773E+02  0.7816164E-02  0.1186339E+00
        -11   -1    0    0    0    0  0.00000000000E+00  0.00000000000E+00  0.45593999997E+02  0.45594000000E+02  0.51100000000E-03 0.  1.
         11   -1    0    0    0    0 -0.00000000000E+00 -0.00000000000E+00 -0.45593999997E+02  0.45594000000E+02  0.51100000000E-03 0. -1.
    9900012    2    1    2    0    0 -0.46062087104E+00  0.73014935688E+00  0.80482669184E+00  0.90007730677E+02  0.89999991922E+02 0.  0.
         12    1    1    2    0    0  0.46062087104E+00 -0.73014935688E+00 -0.80482669184E+00  0.11802693227E+01  0.00000000000E+00 0. -1.
         11    1    3    3    0    0 -0.21543411299E+02 -0.20059473421E+02 -0.10736880098E+02  0.31333394946E+02  0.51100000000E-03 0. -1.
        -11    1    3    3    0    0 -0.40606481287E+01 -0.85584388522E+01 -0.10534673237E+02  0.14167394936E+02  0.51100000000E-03 0.  1.
        -12    1    3    3    0    0  0.25143438556E+02  0.29348061630E+02  0.22076380027E+02  0.44506940795E+02  0.00000000000E+00 0.  1.
</event>
<event>
 7    1  0.4008281E-015  0.9000772E+02  0.7816164E-02  0.1186339E+00
        -11   -1    0    0    0    0  0.00000000000E+00  0.00000000000E+00  0.45593999997E+02  0.45594000000E+02  0.51100000000E-03 0.  1.
         11   -1    0    0    0    0 -0.00000000000E+00 -0.00000000000E+00 -0.45593999997E+02  0.45594000000E+02  0.51100000000E-03 0. -1.
    9900012    2    1    2    0    0 -0.92399846277E+00 -0.72692141745E+00  0.10431472405E+00  0.90007716361E+02  0.89999977417E+02 0.  0.
         12    1    1    2    0    0  0.92399846277E+00  0.72692141745E+00 -0.10431472405E+00  0.11802836388E+01  0.00000000000E+00 0. -1.
         11    1    3    3    0    0  0.24107979175E+02  0.23483445855E+02 -0.10347227953E+02  0.35209828396E+02  0.51100000000E-03 0. -1.
        -11    1    3    3    0    0  0.37062957580E+01  0.41084886776E+01 -0.85630406843E+01  0.10195193646E+02  0.51100000000E-03 0.  1.
        -12    1    3    3    0    0 -0.28738273396E+02 -0.28318855950E+02  0.19014583361E+02  0.44602694319E+02  0.00000000000E+00 0.  1.
</event>
<event>
 7    1  0.4008281E-015  0.9000775E+02  0.7816164E-02  0.1186339E+00
        -11   -1    0    0    0    0  0.00000000000E+00  0.00000000000E+00  0.45593999997E+02  0.45594000000E+02  0.51100000000E-03 0. -1.
         11   -1    0    0    0    0 -0.00000000000E+00 -0.00000000000E+00 -0.45593999997E+02  0.45594000000E+02  0.51100000000E-03 0.  1.
    9900012    2    1    2    0    0 -0.10353442756E+00  0.11385428715E+01 -0.29325227098E+00  0.90007747424E+02  0.90000008890E+02 0.  0.
         12    1    1    2    0    0  0.10353442756E+00 -0.11385428715E+01  0.29325227098E+00  0.11802525756E+01  0.00000000000E+00 0. -1.
         11    1    3    3    0    0 -0.25981417912E+02 -0.31607940095E+02 -0.94107107668E+01  0.41984013995E+02  0.51100000000E-03 0. -1.
        -11    1    3    3    0    0  0.77162596172E+01  0.61500364899E+00 -0.41740397971E+01  0.87944016543E+01  0.51100000000E-03 0.  1.
        -12    1    3    3    0    0  0.18161623867E+02  0.32131479318E+02  0.13291498293E+02  0.39229331775E+02  0.00000000000E+00 0.  1.
</event>
<event>
 7    1  0.4008281E-015  0.9000773E+02  0.7816164E-02  0.1186339E+00
        -11   -1    0    0    0    0  0.00000000000E+00  0.00000000000E+00  0.45593999997E+02  0.45594000000E+02  0.51100000000E-03 0.  1.
         11   -1    0    0    0    0 -0.00000000000E+00 -0.00000000000E+00 -0.45593999997E+02  0.45594000000E+02  0.51100000000E-03 0. -1.
    9900012    2    1    2    0    0 -0.44728231341E+00 -0.10880911440E+01 -0.95076920195E-01  0.90007727393E+02  0.89999988595E+02 0.  0.
         12    1    1    2    0    0  0.44728231341E+00  0.10880911440E+01  0.95076920195E-01  0.11802726068E+01  0.00000000000E+00 0. -1.
         11    1    3    3    0    0  0.19819602035E+02  0.25407108864E+02  0.29021090639E+01  0.32353671243E+02  0.51100000000E-03 0. -1.
        -11    1    3    3    0    0  0.29616206967E+01 -0.17794681727E+02  0.17756590354E+02  0.25312415850E+02  0.51100000000E-03 0.  1.
        -12    1    3    3    0    0 -0.23228505045E+02 -0.87005182806E+01 -0.20753776338E+02  0.32341640300E+02  0.00000000000E+00 0.  1.
</event>
<event>
 7    1  0.4008281E-015  0.9000780E+02  0.7816164E-02  0.1186339E+00
        -11   -1    0    0    0    0  0.00000000000E+00  0.00000000000E+00  0.45593999997E+02  0.45594000000E+02  0.51100000000E-03 0. -1.
         11   -1    0    0    0    0 -0.00000000000E+00 -0.00000000000E+00 -0.45593999997E+02  0.45594000000E+02  0.51100000000E-03 0.  1.
    9900012    2    1    2    0    0  0.48140224054E+00 -0.40483991527E+00 -0.99861561122E+00  0.90007798063E+02  0.90000060197E+02 0.  0.
         12    1    1    2    0    0 -0.48140224054E+00  0.40483991527E+00  0.99861561122E+00  0.11802019375E+01  0.00000000000E+00 0. -1.
         11    1    3    3    0    0 -0.12362410926E+02 -0.29514761678E+01 -0.26021058707E+01  0.12973487222E+02  0.51100000000E-03 0. -1.
        -11    1    3    3    0    0  0.28150278147E+02 -0.25811603461E+02 -0.14694517829E+02  0.40921948726E+02  0.51100000000E-03 0.  1.
         12    1    3    3    0    0 -0.15306464981E+02  0.28358239713E+02  0.16298008089E+02  0.36112362115E+02  0.00000000000E+00 0. -1.
</event>
<event>
 7    1  0.4008281E-015  0.9000763E+02  0.7816164E-02  0.1186339E+00
        -11   -1    0    0    0    0  0.00000000000E+00  0.00000000000E+00  0.45593999997E+02  0.45594000000E+02  0.51100000000E-03 0. -1.
         11   -1    0    0    0    0 -0.00000000000E+00 -0.00000000000E+00 -0.45593999997E+02  0.45594000000E+02  0.51100000000E-03 0.  1.
    9900012    2    1    2    0    0  0.30333761753E+00  0.10705621019E+01 -0.39390546521E+00  0.90007627838E+02  0.89999887726E+02 0.  0.
         12    1    1    2    0    0 -0.30333761753E+00 -0.10705621019E+01  0.39390546521E+00  0.11803721616E+01  0.00000000000E+00 0. -1.
         11    1    3    3    0    0  0.44938629409E+01  0.23211626062E+01  0.68415110231E+01  0.85081650969E+01  0.51100000000E-03 0. -1.
        -11    1    3    3    0    0 -0.73024452248E+01 -0.40721912420E+02 -0.66417007982E+01  0.41901217728E+02  0.51100000000E-03 0.  1.
         12    1    3    3    0    0  0.31119199014E+01  0.39471311915E+02 -0.59371569012E+00  0.39598245013E+02  0.00000000000E+00 0. -1.
</event>
<event>
 7    1  0.4008281E-015  0.9000774E+02  0.7816164E-02  0.1186339E+00
        -11   -1    0    0    0    0  0.00000000000E+00  0.00000000000E+00  0.45593999997E+02  0.45594000000E+02  0.51100000000E-03 0.  1.
         11   -1    0    0    0    0 -0.00000000000E+00 -0.00000000000E+00 -0.45593999997E+02  0.45594000000E+02  0.51100000000E-03 0. -1.
    9900012    2    1    2    0    0  0.44582176587E+00  0.68630805072E+00  0.85043729421E+00  0.90007737581E+02  0.89999998917E+02 0.  0.
         12    1    1    2    0    0 -0.44582176587E+00 -0.68630805072E+00 -0.85043729421E+00  0.11802624195E+01  0.00000000000E+00 0. -1.
         11    1    3    3    0    0 -0.76110001458E+01 -0.12660754681E+01  0.54863159446E+01  0.94673086575E+01  0.51100000000E-03 0. -1.
        -11    1    3    3    0    0  0.48610428273E+01  0.34814810891E+02  0.18977474853E+02  0.39948033078E+02  0.51100000000E-03 0.  1.
         12    1    3    3    0    0  0.31957790844E+01 -0.32862427372E+02 -0.23613353504E+02  0.40592395845E+02  0.00000000000E+00 0. -1.
</event>
<event>
 7    1  0.4008281E-015  0.9000778E+02  0.7816164E-02  0.1186339E+00
        -11   -1    0    0    0    0  0.00000000000E+00  0.00000000000E+00  0.45593999997E+02  0.45594000000E+02  0.51100000000E-03 0. -1.
         11   -1    0    0    0    0 -0.00000000000E+00 -0.00000000000E+00 -0.45593999997E+02  0.45594000000E+02  0.51100000000E-03 0.  1.
    9900012    2    1    2    0    0  0.10909623816E+01  0.43843564946E+00 -0.10248386015E+00  0.90007776429E+02  0.90000038277E+02 0.  0.
         12    1    1    2    0    0 -0.10909623816E+01 -0.43843564946E+00  0.10248386015E+00  0.11802235714E+01  0.00000000000E+00 0. -1.
         11    1    3    3    0    0  0.49479902032E+01 -0.23820807069E+01  0.74435046955E+00  0.55417482285E+01  0.51100000000E-03 0. -1.
        -11    1    3    3    0    0 -0.10622204849E+02  0.42419765392E+02  0.44068674718E+01  0.43950975108E+02  0.51100000000E-03 0.  1.
         12    1    3    3    0    0  0.67651770271E+01 -0.39599249036E+02 -0.52537018015E+01  0.40515053092E+02  0.00000000000E+00 0. -1.
</event>
<event>
 7    1  0.4008281E-015  0.9000777E+02  0.7816164E-02  0.1186339E+00
        -11   -1    0    0    0    0  0.00000000000E+00  0.00000000000E+00  0.45593999997E+02  0.45594000000E+02  0.51100000000E-03 0. -1.
         11   -1    0    0    0    0 -0.00000000000E+00 -0.00000000000E+00 -0.45593999997E+02  0.45594000000E+02  0.51100000000E-03 0.  1.
    9900012    2    1    2    0    0 -0.34308230407E+00  0.29237128104E+00 -0.10907596722E+01  0.90007769897E+02  0.90000031660E+02 0.  0.
         12    1    1    2    0    0  0.34308230407E+00 -0.29237128104E+00  0.10907596722E+01  0.11802301029E+01  0.00000000000E+00 0. -1.
         11    1    3    3    0    0 -0.40380398669E+01  0.40774652088E+01 -0.70348201504E+01  0.90785562346E+01  0.51100000000E-03 0. -1.
        -11    1    3    3    0    0 -0.24935900021E+02 -0.14270280439E+02 -0.24561723197E+02  0.37798389652E+02  0.51100000000E-03 0.  1.
         12    1    3    3    0    0  0.28630857584E+02  0.10485186511E+02  0.30505783675E+02  0.43130824010E+02  0.00000000000E+00 0. -1.
</event>
<event>
 7    1  0.4008281E-015  0.9000773E+02  0.7816164E-02  0.1186339E+00
        -11   -1    0    0    0    0  0.00000000000E+00  0.00000000000E+00  0.45593999997E+02  0.45594000000E+02  0.51100000000E-03 0. -1.
         11   -1    0    0    0    0 -0.00000000000E+00 -0.00000000000E+00 -0.45593999997E+02  0.45594000000E+02  0.51100000000E-03 0.  1.
    9900012    2    1    2    0    0 -0.46836483039E+00 -0.56029788499E+00  0.92722124479E+00  0.90007729450E+02  0.89999990679E+02 0.  0.
         12    1    1    2    0    0  0.46836483039E+00  0.56029788499E+00 -0.92722124479E+00  0.11802705499E+01  0.00000000000E+00 0. -1.
         11    1    3    3    0    0 -0.30277973848E+02  0.11031022377E+02  0.18016072306E+02  0.36919073887E+02  0.51100000000E-03 0. -1.
        -11    1    3    3    0    0 -0.39782528593E+01  0.93382299082E+01 -0.95970544732E+00  0.10195590637E+02  0.51100000000E-03 0.  1.
        -12    1    3    3    0    0  0.33787861877E+02 -0.20929550170E+02 -0.16129145614E+02  0.42893064926E+02  0.00000000000E+00 0.  1.
</event>
<event>
 7    1  0.4008281E-015  0.9000773E+02  0.7816164E-02  0.1186339E+00
        -11   -1    0    0    0    0  0.00000000000E+00  0.00000000000E+00  0.45593999997E+02  0.45594000000E+02  0.51100000000E-03 0.  1.
         11   -1    0    0    0    0 -0.00000000000E+00 -0.00000000000E+00 -0.45593999997E+02  0.45594000000E+02  0.51100000000E-03 0. -1.
    9900012    2    1    2    0    0  0.20788050649E+00 -0.35887285621E+00  0.11050037196E+01  0.90007730009E+02  0.89999991245E+02 0.  0.
         12    1    1    2    0    0 -0.20788050649E+00  0.35887285621E+00 -0.11050037196E+01  0.11802699913E+01  0.00000000000E+00 0. -1.
         11    1    3    3    0    0  0.26605909831E+02 -0.13611704390E+02 -0.21079531900E+02  0.36571841623E+02  0.51100000000E-03 0. -1.
        -11    1    3    3    0    0  0.34799450821E+01 -0.95491184661E+01  0.80378928075E+00  0.10195183114E+02  0.51100000000E-03 0.  1.
        -12    1    3    3    0    0 -0.29877974406E+02  0.22801950000E+02  0.21380746338E+02  0.43240705272E+02  0.00000000000E+00 0.  1.
</event>
<event>
 7    1  0.4008281E-015  0.9000778E+02  0.7816164E-02  0.1186339E+00
        -11   -1    0    0    0    0  0.00000000000E+00  0.00000000000E+00  0.45593999997E+02  0.45594000000E+02  0.51100000000E-03 0. -1.
         11   -1    0    0    0    0 -0.00000000000E+00 -0.00000000000E+00 -0.45593999997E+02  0.45594000000E+02  0.51100000000E-03 0.  1.
    9900012    2    1    2    0    0 -0.52822558142E+00  0.91403087132E+00  0.52767760478E+00  0.90007780379E+02  0.90000042280E+02 0.  0.
         12    1    1    2    0    0  0.52822558142E+00 -0.91403087132E+00 -0.52767760478E+00  0.11802196207E+01  0.00000000000E+00 0. -1.
         11    1    3    3    0    0  0.24317024263E+02 -0.85288724774E+01  0.29296545111E+02  0.39017264005E+02  0.51100000000E-03 0. -1.
        -11    1    3    3    0    0  0.80580242195E+01  0.19453869301E+01 -0.45846211098E+01  0.94728578377E+01  0.51100000000E-03 0.  1.
        -12    1    3    3    0    0 -0.32903274064E+02  0.74975164186E+01 -0.24184246396E+02  0.41517658536E+02  0.00000000000E+00 0.  1.
</event>
<event>
 7    1  0.4008281E-015  0.9000772E+02  0.7816164E-02  0.1186339E+00
        -11   -1    0    0    0    0  0.00000000000E+00  0.00000000000E+00  0.45593999997E+02  0.45594000000E+02  0.51100000000E-03 0. -1.
         11   -1    0    0    0    0 -0.00000000000E+00 -0.00000000000E+00 -0.45593999997E+02  0.45594000000E+02  0.51100000000E-03 0.  1.
    9900012    2    1    2    0    0 -0.32660440736E+00  0.52087796064E-01 -0.11329941257E+01  0.90007720683E+02  0.89999981796E+02 0.  0.
         12    1    1    2    0    0  0.32660440736E+00 -0.52087796064E-01  0.11329941257E+01  0.11802793170E+01  0.00000000000E+00 0. -1.
         11    1    3    3    0    0 -0.63122153053E+01  0.29002466391E+02 -0.13521053600E+02  0.32616039145E+02  0.51100000000E-03 0. -1.
        -11    1    3    3    0    0  0.22518852150E+00 -0.24692368723E+02 -0.15127695370E+02  0.28958780197E+02  0.51100000000E-03 0.  1.
         12    1    3    3    0    0  0.57604223764E+01 -0.42580098717E+01  0.27515754844E+02  0.28432901341E+02  0.00000000000E+00 0. -1.
</event>
<event>
 7    1  0.4008281E-015  0.9000783E+02  0.7816164E-02  0.1186339E+00
        -11   -1    0    0    0    0  0.00000000000E+00  0.00000000000E+00  0.45593999997E+02  0.45594000000E+02  0.51100000000E-03 0.  1.
         11   -1    0    0    0    0 -0.00000000000E+00 -0.00000000000E+00 -0.45593999997E+02  0.45594000000E+02  0.51100000000E-03 0. -1.
    9900012    2    1    2    0    0  0.61814971406E+00 -0.82195076679E+00 -0.57887177193E+00  0.90007828546E+02  0.90000091083E+02 0.  0.
         12    1    1    2    0    0 -0.61814971406E+00  0.82195076679E+00  0.57887177193E+00  0.11801714538E+01  0.00000000000E+00 0. -1.
         11    1    3    3    0    0 -0.28162368541E+02  0.20815355643E+02 -0.10593844253E+02  0.36587259650E+02  0.51100000000E-03 0. -1.
        -11    1    3    3    0    0 -0.88028782220E+01 -0.54473453060E+01 -0.24577757937E+01  0.10639779039E+02  0.51100000000E-03 0.  1.
        -12    1    3    3    0    0  0.37583396477E+02 -0.16189961103E+02  0.12472748275E+02  0.42780789858E+02  0.00000000000E+00 0.  1.
</event>
<event>
 7    1  0.6375300E-015  0.9000772E+02  0.7816164E-02  0.1186339E+00
        -11   -1    0    0    0    0  0.00000000000E+00  0.00000000000E+00  0.45593999997E+02  0.45594000000E+02  0.51100000000E-03 0.  1.
         11   -1    0    0    0    0 -0.00000000000E+00 -0.00000000000E+00 -0.45593999997E+02  0.45594000000E+02  0.51100000000E-03 0. -1.
    9900012    2    1    2    0    0  0.82206630595E+00 -0.80580189246E+00 -0.26065468326E+00  0.90007724369E+02  0.89999985531E+02 0.  0.
         12    1    1    2    0    0 -0.82206630595E+00  0.80580189246E+00  0.26065468326E+00  0.11802756310E+01  0.00000000000E+00 0. -1.
         11    1    3    3    0    0 -0.75419625944E+01 -0.40931683481E+01 -0.54702257814E+01  0.10176374465E+02  0.51100000000E-03 0. -1.
        -11    1    3    3    0    0  0.76268614795E+01  0.90459616037E+01 -0.36165049067E+02  0.38051402229E+02  0.51100000000E-03 0.  1.
         12    1    3    3    0    0  0.73716742085E+00 -0.57585951481E+01  0.41374620165E+02  0.41779947674E+02  0.00000000000E+00 0. -1.
</event>
<event>
 7    1  0.4008281E-015  0.9000769E+02  0.7816164E-02  0.1186339E+00
        -11   -1    0    0    0    0  0.00000000000E+00  0.00000000000E+00  0.45593999997E+02  0.45594000000E+02  0.51100000000E-03 0.  1.
         11   -1    0    0    0    0 -0.00000000000E+00 -0.00000000000E+00 -0.45593999997E+02  0.45594000000E+02  0.51100000000E-03 0. -1.
    9900012    2    1    2    0    0 -0.39527173155E+00  0.93219856605E+00  0.60654936649E+00  0.90007688159E+02  0.89999948843E+02 0.  0.
         12    1    1    2    0    0  0.39527173155E+00 -0.93219856605E+00 -0.60654936649E+00  0.11803118411E+01  0.00000000000E+00 0. -1.
         11    1    3    3    0    0 -0.11126398594E+02 -0.26613214352E+02  0.13716061566E+02  0.31940417483E+02  0.51100000000E-03 0. -1.
        -11    1    3    3    0    0 -0.13866312757E+02 -0.57222997774E+01 -0.13847492922E+01  0.15064424154E+02  0.51100000000E-03 0.  1.
        -12    1    3    3    0    0  0.24597439619E+02  0.33267712696E+02 -0.11724762907E+02  0.43002846523E+02  0.00000000000E+00 0.  1.
</event>
<event>
 7    1  0.4008281E-015  0.9000773E+02  0.7816164E-02  0.1186339E+00
        -11   -1    0    0    0    0  0.00000000000E+00  0.00000000000E+00  0.45593999997E+02  0.45594000000E+02  0.51100000000E-03 0. -1.
         11   -1    0    0    0    0 -0.00000000000E+00 -0.00000000000E+00 -0.45593999997E+02  0.45594000000E+02  0.51100000000E-03 0.  1.
    9900012    2    1    2    0    0  0.79368116141E+00  0.18874266940E+00 -0.85293038262E+00  0.90007727227E+02  0.89999988426E+02 0.  0.
         12    1    1    2    0    0 -0.79368116141E+00 -0.18874266940E+00  0.85293038262E+00  0.11802727731E+01  0.00000000000E+00 0. -1.
         11    1    3    3    0    0  0.37593025919E+01  0.22594516360E+02 -0.34191653199E+01  0.23158912264E+02  0.51100000000E-03 0. -1.
        -11    1    3    3    0    0 -0.45072862313E+00 -0.53446799014E+01 -0.29744288394E+02  0.30224021107E+02  0.51100000000E-03 0.  1.
         12    1    3    3    0    0 -0.25148928074E+01 -0.17061093789E+02  0.32310523331E+02  0.36624793856E+02  0.00000000000E+00 0. -1.
</event>
<event>
 7    1  0.4008281E-015  0.9000812E+02  0.7816164E-02  0.1186338E+00
        -11   -1    0    0    0    0  0.00000000000E+00  0.00000000000E+00  0.45593999997E+02  0.45594000000E+02  0.51100000000E-03 0.  1.
         11   -1    0    0    0    0 -0.00000000000E+00 -0.00000000000E+00 -0.45593999997E+02  0.45594000000E+02  0.51100000000E-03 0. -1.
    9900012    2    1    2    0    0 -0.96621477185E+00 -0.66229644199E+00 -0.14111528561E+00  0.90008118190E+02  0.90000384549E+02 0.  0.
         12    1    1    2    0    0  0.96621477185E+00  0.66229644199E+00  0.14111528561E+00  0.11798818103E+01  0.00000000000E+00 0. -1.
         11    1    3    3    0    0  0.36223294425E+02  0.57051372378E+01  0.23421124363E+01  0.36744538926E+02  0.51100000000E-03 0. -1.
        -11    1    3    3    0    0  0.54926716763E+01 -0.16021135943E+00 -0.80793028221E+01  0.97708875838E+01  0.51100000000E-03 0.  1.
        -12    1    3    3    0    0 -0.42682180874E+02 -0.62072223204E+01  0.55960751002E+01  0.43492691680E+02  0.00000000000E+00 0.  1.
</event>
<event>
 7    1  0.4008281E-015  0.9000774E+02  0.7816164E-02  0.1186339E+00
        -11   -1    0    0    0    0  0.00000000000E+00  0.00000000000E+00  0.45593999997E+02  0.45594000000E+02  0.51100000000E-03 0. -1.
         11   -1    0    0    0    0 -0.00000000000E+00 -0.00000000000E+00 -0.45593999997E+02  0.45594000000E+02  0.51100000000E-03 0.  1.
    9900012    2    1    2    0    0 -0.16456354740E+00  0.37990966081E+00 -0.11052656742E+01  0.90007735317E+02  0.89999996623E+02 0.  0.
         12    1    1    2    0    0  0.16456354740E+00 -0.37990966081E+00  0.11052656742E+01  0.11802646831E+01  0.00000000000E+00 0. -1.
         11    1    3    3    0    0 -0.54030803930E+01 -0.26114965151E+01 -0.26227962755E+02  0.26905747013E+02  0.51100000000E-03 0. -1.
        -11    1    3    3    0    0  0.10776631481E+02  0.95979624403E+01 -0.15731594177E+02  0.21348061380E+02  0.51100000000E-03 0.  1.
         12    1    3    3    0    0 -0.55381146351E+01 -0.66065562644E+01  0.40854291258E+02  0.41753926924E+02  0.00000000000E+00 0. -1.
</event>
<event>
 7    1  0.4008281E-015  0.9000870E+02  0.7816164E-02  0.1186337E+00
        -11   -1    0    0    0    0  0.00000000000E+00  0.00000000000E+00  0.45593999997E+02  0.45594000000E+02  0.51100000000E-03 0. -1.
         11   -1    0    0    0    0 -0.00000000000E+00 -0.00000000000E+00 -0.45593999997E+02  0.45594000000E+02  0.51100000000E-03 0.  1.
    9900012    2    1    2    0    0  0.68908620247E+00  0.94730923134E+00 -0.13603007421E+00  0.90008704127E+02  0.90000978216E+02 0.  0.
         12    1    1    2    0    0 -0.68908620247E+00 -0.94730923134E+00  0.13603007421E+00  0.11792958727E+01  0.00000000000E+00 0. -1.
         11    1    3    3    0    0  0.33907840456E+01 -0.78106567796E+01 -0.42434411862E+00  0.85254820371E+01  0.51100000000E-03 0. -1.
        -11    1    3    3    0    0 -0.26962123469E+02  0.25373181590E+01 -0.31157932475E+02  0.41282088631E+02  0.51100000000E-03 0.  1.
         12    1    3    3    0    0  0.24260425626E+02  0.62206478519E+01  0.31446246519E+02  0.40201133459E+02  0.00000000000E+00 0. -1.
</event>
<event>
 7    1  0.4008281E-015  0.9000770E+02  0.7816164E-02  0.1186339E+00
        -11   -1    0    0    0    0  0.00000000000E+00  0.00000000000E+00  0.45593999997E+02  0.45594000000E+02  0.51100000000E-03 0. -1.
         11   -1    0    0    0    0 -0.00000000000E+00 -0.00000000000E+00 -0.45593999997E+02  0.45594000000E+02  0.51100000000E-03 0.  1.
    9900012    2    1    2    0    0  0.91194527457E+00  0.52972339110E+00 -0.52995240013E+00  0.90007703172E+02  0.89999964054E+02 0.  0.
         12    1    1    2    0    0 -0.91194527457E+00 -0.52972339110E+00  0.52995240013E+00  0.11802968276E+01  0.00000000000E+00 0. -1.
         11    1    3    3    0    0  0.28659976006E+02  0.12695485562E+02  0.26702772678E+02  0.41177756705E+02  0.51100000000E-03 0. -1.
        -11    1    3    3    0    0  0.48230779502E+01 -0.20043539167E+01 -0.83085702444E+01  0.98138603671E+01  0.51100000000E-03 0.  1.
        -12    1    3    3    0    0 -0.32571108681E+02 -0.10161408254E+02 -0.18924154834E+02  0.39016086100E+02  0.00000000000E+00 0.  1.
</event>
<event>
 7    1  0.4008281E-015  0.9000772E+02  0.7816164E-02  0.1186339E+00
        -11   -1    0    0    0    0  0.00000000000E+00  0.00000000000E+00  0.45593999997E+02  0.45594000000E+02  0.51100000000E-03 0. -1.
         11   -1    0    0    0    0 -0.00000000000E+00 -0.00000000000E+00 -0.45593999997E+02  0.45594000000E+02  0.51100000000E-03 0.  1.
    9900012    2    1    2    0    0 -0.41948720734E+00 -0.10836625697E+01 -0.20678468623E+00  0.90007722919E+02  0.89999984061E+02 0.  0.
         12    1    1    2    0    0  0.41948720734E+00  0.10836625697E+01  0.20678468623E+00  0.11802770813E+01  0.00000000000E+00 0. -1.
         11    1    3    3    0    0 -0.17017263710E+01 -0.91426676378E+00 -0.70962079469E+01  0.73544492549E+01  0.51100000000E-03 0. -1.
        -11    1    3    3    0    0 -0.30828931278E+02  0.11328949072E+02 -0.20666037894E+02  0.38805324549E+02  0.51100000000E-03 0.  1.
         12    1    3    3    0    0  0.32111170442E+02 -0.11498344878E+02  0.27555461155E+02  0.43847949115E+02  0.00000000000E+00 0. -1.
</event>
<event>
 7    1  0.4008281E-015  0.9000785E+02  0.7816164E-02  0.1186339E+00
        -11   -1    0    0    0    0  0.00000000000E+00  0.00000000000E+00  0.45593999997E+02  0.45594000000E+02  0.51100000000E-03 0.  1.
         11   -1    0    0    0    0 -0.00000000000E+00 -0.00000000000E+00 -0.45593999997E+02  0.45594000000E+02  0.51100000000E-03 0. -1.
    9900012    2    1    2    0    0  0.96067874313E-01  0.15671643551E+00  0.11657483894E+01  0.90007848152E+02  0.90000110947E+02 0.  0.
         12    1    1    2    0    0 -0.96067874313E-01 -0.15671643551E+00 -0.11657483894E+01  0.11801518483E+01  0.00000000000E+00 0. -1.
         11    1    3    3    0    0  0.59397837591E+01 -0.80877139970E+01 -0.41105045668E+01  0.10843818371E+02  0.51100000000E-03 0. -1.
        -11    1    3    3    0    0  0.34619729994E+02  0.15165804708E+02  0.16758129852E+00  0.37796235540E+02  0.51100000000E-03 0.  1.
         12    1    3    3    0    0 -0.40463445878E+02 -0.69213742754E+01  0.51086716576E+01  0.41367794241E+02  0.00000000000E+00 0. -1.
</event>
<event>
 7    1  0.4008281E-015  0.9000776E+02  0.7816164E-02  0.1186339E+00
        -11   -1    0    0    0    0  0.00000000000E+00  0.00000000000E+00  0.45593999997E+02  0.45594000000E+02  0.51100000000E-03 0.  1.
         11   -1    0    0    0    0 -0.00000000000E+00 -0.00000000000E+00 -0.45593999997E+02  0.45594000000E+02  0.51100000000E-03 0. -1.
    9900012    2    1    2    0    0 -0.86562855397E+00  0.54833255618E+00  0.58565810786E+00  0.90007755616E+02  0.90000017191E+02 0.  0.
         12    1    1    2    0    0  0.86562855397E+00 -0.54833255618E+00 -0.58565810786E+00  0.11802443836E+01  0.00000000000E+00 0. -1.
         11    1    3    3    0    0 -0.55286720190E+01 -0.27406087081E+01 -0.76859552058E+01  0.98565236301E+01  0.51100000000E-03 0. -1.
        -11    1    3    3    0    0  0.12831962379E+02 -0.54632140287E+01  0.42056070192E+02  0.44308227298E+02  0.51100000000E-03 0.  1.
         12    1    3    3    0    0 -0.81689189136E+01  0.87521552930E+01 -0.33784456879E+02  0.35843004688E+02  0.00000000000E+00 0. -1.
</event>
<event>
 7    1  0.4008281E-015  0.9000783E+02  0.7816164E-02  0.1186339E+00
        -11   -1    0    0    0    0  0.00000000000E+00  0.00000000000E+00  0.45593999997E+02  0.45594000000E+02  0.51100000000E-03 0. -1.
         11   -1    0    0    0    0 -0.00000000000E+00 -0.00000000000E+00 -0.45593999997E+02  0.45594000000E+02  0.51100000000E-03 0.  1.
    9900012    2    1    2    0    0 -0.78477488527E+00  0.68509650253E+00  0.55459698794E+00  0.90007827700E+02  0.90000090226E+02 0.  0.
         12    1    1    2    0    0  0.78477488527E+00 -0.68509650253E+00 -0.55459698794E+00  0.11801722999E+01  0.00000000000E+00 0. -1.
         11    1    3    3    0    0 -0.18022355123E+01 -0.11323678755E+02  0.40649273007E+02  0.42235496323E+02  0.51100000000E-03 0. -1.
        -11    1    3    3    0    0 -0.80190223291E+01 -0.40204459240E+00 -0.49793599518E+01  0.94477714176E+01  0.51100000000E-03 0.  1.
        -12    1    3    3    0    0  0.90364829562E+01  0.12410819850E+02 -0.35115316067E+02  0.38324559959E+02  0.00000000000E+00 0.  1.
</event>
<event>
 7    1  0.4008281E-015  0.9000774E+02  0.7816164E-02  0.1186339E+00
        -11   -1    0    0    0    0  0.00000000000E+00  0.00000000000E+00  0.45593999997E+02  0.45594000000E+02  0.51100000000E-03 0.  1.
         11   -1    0    0    0    0 -0.00000000000E+00 -0.00000000000E+00 -0.45593999997E+02  0.45594000000E+02  0.51100000000E-03 0. -1.
    9900012    2    1    2    0    0 -0.59559046255E+00  0.39254812156E+00  0.94031890871E+00  0.90007736607E+02  0.89999997930E+02 0.  0.
         12    1    1    2    0    0  0.59559046255E+00 -0.39254812156E+00 -0.94031890871E+00  0.11802633930E+01  0.00000000000E+00 0. -1.
         11    1    3    3    0    0  0.33174382236E+01 -0.85835154236E+01 -0.10990382369E+01  0.92676868043E+01  0.51100000000E-03 0. -1.
        -11    1    3    3    0    0 -0.18247020546E+02 -0.29189614618E+02  0.15574960397E+02  0.37783154341E+02  0.51100000000E-03 0.  1.
         12    1    3    3    0    0  0.14333991860E+02  0.38165678163E+02 -0.13535603251E+02  0.42956895461E+02  0.00000000000E+00 0. -1.
</event>
<event>
 7    1  0.4008281E-015  0.9000773E+02  0.7816164E-02  0.1186339E+00
        -11   -1    0    0    0    0  0.00000000000E+00  0.00000000000E+00  0.45593999997E+02  0.45594000000E+02  0.51100000000E-03 0.  1.
         11   -1    0    0    0    0 -0.00000000000E+00 -0.00000000000E+00 -0.45593999997E+02  0.45594000000E+02  0.51100000000E-03 0. -1.
    9900012    2    1    2    0    0  0.99130017992E+00  0.41749917069E+00  0.48584558448E+00  0.90007734125E+02  0.89999995415E+02 0.  0.
         12    1    1    2    0    0 -0.99130017992E+00 -0.41749917069E+00 -0.48584558448E+00  0.11802658752E+01  0.00000000000E+00 0. -1.
         11    1    3    3    0    0 -0.36774717332E+02  0.41372526733E+01 -0.15166659823E+02  0.39994052870E+02  0.51100000000E-03 0. -1.
        -11    1    3    3    0    0  0.22320092567E+01 -0.85546229476E+01 -0.33187291218E+01  0.94433787567E+01  0.51100000000E-03 0.  1.
        -12    1    3    3    0    0  0.35534008255E+02  0.48348694451E+01  0.18971234529E+02  0.40570302498E+02  0.00000000000E+00 0.  1.
</event>
<event>
 7    1  0.4008281E-015  0.9000777E+02  0.7816164E-02  0.1186339E+00
        -11   -1    0    0    0    0  0.00000000000E+00  0.00000000000E+00  0.45593999997E+02  0.45594000000E+02  0.51100000000E-03 0. -1.
         11   -1    0    0    0    0 -0.00000000000E+00 -0.00000000000E+00 -0.45593999997E+02  0.45594000000E+02  0.51100000000E-03 0.  1.
    9900012    2    1    2    0    0 -0.16067431431E+00 -0.85600647421E+00  0.79647767481E+00  0.90007771206E+02  0.90000032986E+02 0.  0.
         12    1    1    2    0    0  0.16067431431E+00  0.85600647421E+00 -0.79647767481E+00  0.11802287938E+01  0.00000000000E+00 0. -1.
         11    1    3    3    0    0  0.35766169279E+01  0.32417080381E+02  0.24375901586E+02  0.40716628881E+02  0.51100000000E-03 0. -1.
        -11    1    3    3    0    0  0.83633856480E+01 -0.79222292249E+00 -0.26881313925E+01  0.88204244399E+01  0.51100000000E-03 0.  1.
        -12    1    3    3    0    0 -0.12100676890E+02 -0.32480863933E+02 -0.20891292519E+02  0.40470717885E+02  0.00000000000E+00 0.  1.
</event>
<event>
 7    1  0.4008281E-015  0.9000767E+02  0.7816164E-02  0.1186339E+00
        -11   -1    0    0    0    0  0.00000000000E+00  0.00000000000E+00  0.45593999997E+02  0.45594000000E+02  0.51100000000E-03 0. -1.
         11   -1    0    0    0    0 -0.00000000000E+00 -0.00000000000E+00 -0.45593999997E+02  0.45594000000E+02  0.51100000000E-03 0.  1.
    9900012    2    1    2    0    0  0.35504303537E+00 -0.96400206628E+00  0.58123473206E+00  0.90007665575E+02  0.89999925961E+02 0.  0.
         12    1    1    2    0    0 -0.35504303537E+00  0.96400206628E+00 -0.58123473206E+00  0.11803344249E+01  0.00000000000E+00 0. -1.
         11    1    3    3    0    0  0.11826601808E+02 -0.98061171896E+01 -0.45595914162E+01  0.16025552059E+02  0.51100000000E-03 0. -1.
        -11    1    3    3    0    0 -0.13902155833E+02 -0.95779055399E+00 -0.32313778538E+02  0.35190447329E+02  0.51100000000E-03 0.  1.
         12    1    3    3    0    0  0.24305970602E+01  0.97999056773E+01  0.37454604686E+02  0.38791666187E+02  0.00000000000E+00 0. -1.
</event>
<event>
 7    1  0.4008281E-015  0.9000785E+02  0.7816164E-02  0.1186339E+00
        -11   -1    0    0    0    0  0.00000000000E+00  0.00000000000E+00  0.45593999997E+02  0.45594000000E+02  0.51100000000E-03 0. -1.
         11   -1    0    0    0    0 -0.00000000000E+00 -0.00000000000E+00 -0.45593999997E+02  0.45594000000E+02  0.51100000000E-03 0.  1.
    9900012    2    1    2    0    0 -0.88868607007E+00 -0.68232153092E+00  0.37071145999E+00  0.90007850607E+02  0.90000113435E+02 0.  0.
         12    1    1    2    0    0  0.88868607007E+00  0.68232153092E+00 -0.37071145999E+00  0.11801493928E+01  0.00000000000E+00 0. -1.
         11    1    3    3    0    0  0.21746504669E+02 -0.27902362505E+02  0.15217846949E+02  0.38510195595E+02  0.51100000000E-03 0. -1.
        -11    1    3    3    0    0  0.22178674304E+01  0.18329218428E+01  0.85079507600E+01  0.89813008421E+01  0.51100000000E-03 0.  1.
        -12    1    3    3    0    0 -0.24853058170E+02  0.25387119132E+02 -0.23355086249E+02  0.42516354170E+02  0.00000000000E+00 0.  1.
</event>
<event>
 7    1  0.4008281E-015  0.9000771E+02  0.7816164E-02  0.1186339E+00
        -11   -1    0    0    0    0  0.00000000000E+00  0.00000000000E+00  0.45593999997E+02  0.45594000000E+02  0.51100000000E-03 0.  1.
         11   -1    0    0    0    0 -0.00000000000E+00 -0.00000000000E+00 -0.45593999997E+02  0.45594000000E+02  0.51100000000E-03 0. -1.
    9900012    2    1    2    0    0  0.67911536884E+00 -0.62205283355E+00  0.73819734580E+00  0.90007710742E+02  0.89999971723E+02 0.  0.
         12    1    1    2    0    0 -0.67911536884E+00  0.62205283355E+00 -0.73819734580E+00  0.11802892583E+01  0.00000000000E+00 0. -1.
         11    1    3    3    0    0  0.10271414624E+02  0.32657990878E+02 -0.93314153134E+01  0.35484104026E+02  0.51100000000E-03 0. -1.
        -11    1    3    3    0    0  0.85344683380E+01  0.57087222720E+01 -0.38251696445E+00  0.10274871254E+02  0.51100000000E-03 0.  1.
        -12    1    3    3    0    0 -0.18126767593E+02 -0.38988765983E+02  0.10452129624E+02  0.44248735462E+02  0.00000000000E+00 0.  1.
</event>
<event>
 7    1  0.4008281E-015  0.9000730E+02  0.7816164E-02  0.1186340E+00
        -11   -1    0    0    0    0  0.00000000000E+00  0.00000000000E+00  0.45593999997E+02  0.45594000000E+02  0.51100000000E-03 0. -1.
         11   -1    0    0    0    0 -0.00000000000E+00 -0.00000000000E+00 -0.45593999997E+02  0.45594000000E+02  0.51100000000E-03 0.  1.
    9900012    2    1    2    0    0  0.24435339783E+00 -0.19172291600E+00 -0.11391181560E+01  0.90007298330E+02  0.89999553867E+02 0.  0.
         12    1    1    2    0    0 -0.24435339783E+00  0.19172291600E+00  0.11391181560E+01  0.11807016698E+01  0.00000000000E+00 0. -1.
         11    1    3    3    0    0  0.24077372959E+02  0.17713145920E+02  0.23130350641E+02  0.37795350879E+02  0.51100000000E-03 0. -1.
        -11    1    3    3    0    0  0.55549019817E+01 -0.38822871147E+01  0.50052474641E+01  0.84250573711E+01  0.51100000000E-03 0.  1.
        -12    1    3    3    0    0 -0.29387921543E+02 -0.14022581721E+02 -0.29274716261E+02  0.43786890081E+02  0.00000000000E+00 0.  1.
</event>
<event>
 7    1  0.4008281E-015  0.9000772E+02  0.7816164E-02  0.1186339E+00
        -11   -1    0    0    0    0  0.00000000000E+00  0.00000000000E+00  0.45593999997E+02  0.45594000000E+02  0.51100000000E-03 0. -1.
         11   -1    0    0    0    0 -0.00000000000E+00 -0.00000000000E+00 -0.45593999997E+02  0.45594000000E+02  0.51100000000E-03 0.  1.
    9900012    2    1    2    0    0 -0.79701817917E+00  0.73021744784E+00 -0.47393703545E+00  0.90007715368E+02  0.89999976411E+02 0.  0.
         12    1    1    2    0    0  0.79701817917E+00 -0.73021744784E+00  0.47393703545E+00  0.11802846320E+01  0.00000000000E+00 0. -1.
         11    1    3    3    0    0  0.17729132102E+02 -0.88998149294E+01  0.32759022106E+02  0.38297289205E+02  0.51100000000E-03 0. -1.
        -11    1    3    3    0    0 -0.93821660112E+01 -0.78200133675E+01  0.95640353338E+00  0.12251218556E+02  0.51100000000E-03 0.  1.
        -12    1    3    3    0    0 -0.91439842695E+01  0.17450045745E+02 -0.34189362675E+02  0.39459207607E+02  0.00000000000E+00 0.  1.
</event>
<event>
 7    1  0.4008281E-015  0.9000773E+02  0.7816164E-02  0.1186339E+00
        -11   -1    0    0    0    0  0.00000000000E+00  0.00000000000E+00  0.45593999997E+02  0.45594000000E+02  0.51100000000E-03 0. -1.
         11   -1    0    0    0    0 -0.00000000000E+00 -0.00000000000E+00 -0.45593999997E+02  0.45594000000E+02  0.51100000000E-03 0.  1.
    9900012    2    1    2    0    0  0.81788400359E+00  0.16775529831E-01 -0.85077526620E+00  0.90007731295E+02  0.89999992548E+02 0.  0.
         12    1    1    2    0    0 -0.81788400359E+00 -0.16775529831E-01  0.85077526620E+00  0.11802687047E+01  0.00000000000E+00 0. -1.
         11    1    3    3    0    0 -0.27718173337E-01 -0.23940507846E+02 -0.34175241378E+02  0.41726440152E+02  0.51100000000E-03 0. -1.
        -11    1    3    3    0    0  0.86923680713E+01  0.80829124701E+00  0.27821206259E+01  0.91624665274E+01  0.51100000000E-03 0.  1.
        -12    1    3    3    0    0 -0.78467658944E+01  0.23148992129E+02  0.30542345486E+02  0.39118824616E+02  0.00000000000E+00 0.  1.
</event>
<event>
 7    1  0.4008281E-015  0.9000778E+02  0.7816164E-02  0.1186339E+00
        -11   -1    0    0    0    0  0.00000000000E+00  0.00000000000E+00  0.45593999997E+02  0.45594000000E+02  0.51100000000E-03 0. -1.
         11   -1    0    0    0    0 -0.00000000000E+00 -0.00000000000E+00 -0.45593999997E+02  0.45594000000E+02  0.51100000000E-03 0.  1.
    9900012    2    1    2    0    0  0.24122084799E+00 -0.20604542534E-01 -0.11551222283E+01  0.90007779933E+02  0.90000041828E+02 0.  0.
         12    1    1    2    0    0 -0.24122084799E+00  0.20604542534E-01  0.11551222283E+01  0.11802200672E+01  0.00000000000E+00 0. -1.
         11    1    3    3    0    0  0.20192570501E+01  0.34767664644E+01  0.75938398859E+01  0.85925379578E+01  0.51100000000E-03 0. -1.
        -11    1    3    3    0    0 -0.32426953697E+02  0.10952413877E+02  0.17604819644E+02  0.38488860346E+02  0.51100000000E-03 0.  1.
         12    1    3    3    0    0  0.30648917494E+02 -0.14449784884E+02 -0.26353781758E+02  0.42926381629E+02  0.00000000000E+00 0. -1.
</event>
<event>
 7    1  0.4008281E-015  0.9000778E+02  0.7816164E-02  0.1186339E+00
        -11   -1    0    0    0    0  0.00000000000E+00  0.00000000000E+00  0.45593999997E+02  0.45594000000E+02  0.51100000000E-03 0.  1.
         11   -1    0    0    0    0 -0.00000000000E+00 -0.00000000000E+00 -0.45593999997E+02  0.45594000000E+02  0.51100000000E-03 0. -1.
    9900012    2    1    2    0    0  0.55614987818E+00  0.10373161613E+01  0.87135733904E-01  0.90007779622E+02  0.90000041513E+02 0.  0.
         12    1    1    2    0    0 -0.55614987818E+00 -0.10373161613E+01 -0.87135733904E-01  0.11802203784E+01  0.00000000000E+00 0. -1.
         11    1    3    3    0    0  0.37676865431E+01  0.39197568077E+02  0.58742066202E+01  0.39813956205E+02  0.51100000000E-03 0. -1.
        -11    1    3    3    0    0 -0.84236028697E+01 -0.19254430718E+01  0.73055198822E+01  0.11315256839E+02  0.51100000000E-03 0.  1.
        -12    1    3    3    0    0  0.52120662048E+01 -0.36234808844E+02 -0.13092590768E+02  0.38878566577E+02  0.00000000000E+00 0.  1.
</event>
<event>
 7    1  0.4008281E-015  0.9000760E+02  0.7816164E-02  0.1186339E+00
        -11   -1    0    0    0    0  0.00000000000E+00  0.00000000000E+00  0.45593999997E+02  0.45594000000E+02  0.51100000000E-03 0. -1.
         11   -1    0    0    0    0 -0.00000000000E+00 -0.00000000000E+00 -0.45593999997E+02  0.45594000000E+02  0.51100000000E-03 0.  1.
    9900012    2    1    2    0    0  0.11633778413E+01 -0.10149325660E+00  0.17200447966E+00  0.90007604124E+02  0.89999863698E+02 0.  0.
         12    1    1    2    0    0 -0.11633778413E+01  0.10149325660E+00 -0.17200447966E+00  0.11803958759E+01  0.00000000000E+00 0. -1.
         11    1    3    3    0    0  0.98378688336E+01  0.20825334417E+00  0.52239539223E+01  0.11140768712E+02  0.51100000000E-03 0. -1.
        -11    1    3    3    0    0  0.27662454793E+02 -0.19910826979E+02 -0.13614794975E+02  0.36701704029E+02  0.51100000000E-03 0.  1.
         12    1    3    3    0    0 -0.36336945785E+02  0.19601080378E+02  0.85628455321E+01  0.42165131384E+02  0.00000000000E+00 0. -1.
</event>
<event>
 7    1  0.8016061E-015  0.9000786E+02  0.7816164E-02  0.1186339E+00
        -11   -1    0    0    0    0  0.00000000000E+00  0.00000000000E+00  0.45593999997E+02  0.45594000000E+02  0.51100000000E-03 0. -1.
         11   -1    0    0    0    0 -0.00000000000E+00 -0.00000000000E+00 -0.45593999997E+02  0.45594000000E+02  0.51100000000E-03 0.  1.
    9900012    2    1    2    0    0 -0.78323665754E+00 -0.24881519958E+00 -0.84697190670E+00  0.90007860146E+02  0.90000123099E+02 0.  0.
         12    1    1    2    0    0  0.78323665754E+00  0.24881519958E+00  0.84697190670E+00  0.11801398544E+01  0.00000000000E+00 0. -1.
         11    1    3    3    0    0  0.71560670976E+01  0.19378947525E+01 -0.59445175845E+01  0.95027376030E+01  0.51100000000E-03 0. -1.
        -11    1    3    3    0    0 -0.19256557985E+02  0.27826282946E+02 -0.20414670569E+02  0.39520574676E+02  0.51100000000E-03 0.  1.
         12    1    3    3    0    0  0.11317254230E+02 -0.30012992898E+02  0.25512216247E+02  0.40984547867E+02  0.00000000000E+00 0. -1.
</event>
<event>
 7    1  0.4008281E-015  0.9000709E+02  0.7816164E-02  0.1186340E+00
        -11   -1    0    0    0    0  0.00000000000E+00  0.00000000000E+00  0.45593999997E+02  0.45594000000E+02  0.51100000000E-03 0. -1.
         11   -1    0    0    0    0 -0.00000000000E+00 -0.00000000000E+00 -0.45593999997E+02  0.45594000000E+02  0.51100000000E-03 0.  1.
    9900012    2    1    2    0    0 -0.28305435280E+00  0.35995208378E+00 -0.10885093863E+01  0.90007094435E+02  0.89999347279E+02 0.  0.
         12    1    1    2    0    0  0.28305435280E+00 -0.35995208378E+00  0.10885093863E+01  0.11809055650E+01  0.00000000000E+00 0. -1.
         11    1    3    3    0    0 -0.68827369752E-01  0.45950391123E+01  0.73299878866E+01  0.86514648660E+01  0.51100000000E-03 0. -1.
        -11    1    3    3    0    0  0.24626893923E+01  0.33930591564E+02  0.14251264065E+02  0.36884256948E+02  0.51100000000E-03 0.  1.
         12    1    3    3    0    0 -0.26769163753E+01 -0.38165678592E+02 -0.22669761338E+02  0.44471372621E+02  0.00000000000E+00 0. -1.
</event>
<event>
 7    1  0.4008281E-015  0.9000772E+02  0.7816164E-02  0.1186339E+00
        -11   -1    0    0    0    0  0.00000000000E+00  0.00000000000E+00  0.45593999997E+02  0.45594000000E+02  0.51100000000E-03 0.  1.
         11   -1    0    0    0    0 -0.00000000000E+00 -0.00000000000E+00 -0.45593999997E+02  0.45594000000E+02  0.51100000000E-03 0. -1.
    9900012    2    1    2    0    0  0.10785911476E+01  0.28449415741E+00  0.38570913591E+00  0.90007717268E+02  0.89999978336E+02 0.  0.
         12    1    1    2    0    0 -0.10785911476E+01 -0.28449415741E+00 -0.38570913591E+00  0.11802827317E+01  0.00000000000E+00 0. -1.
         11    1    3    3    0    0  0.66764868803E+01  0.48756043818E+01 -0.64926950905E+01  0.10511997191E+02  0.51100000000E-03 0. -1.
        -11    1    3    3    0    0  0.29409277243E+02 -0.23058863769E+02  0.12742185306E+02  0.39483921701E+02  0.51100000000E-03 0.  1.
         12    1    3    3    0    0 -0.35007172976E+02  0.18467753545E+02 -0.58637810799E+01  0.40011798376E+02  0.00000000000E+00 0. -1.
</event>
<event>
 7    1  0.4008281E-015  0.9000754E+02  0.7816164E-02  0.1186339E+00
        -11   -1    0    0    0    0  0.00000000000E+00  0.00000000000E+00  0.45593999997E+02  0.45594000000E+02  0.51100000000E-03 0.  1.
         11   -1    0    0    0    0 -0.00000000000E+00 -0.00000000000E+00 -0.45593999997E+02  0.45594000000E+02  0.51100000000E-03 0. -1.
    9900012    2    1    2    0    0  0.23305784124E+00  0.50928338136E+00  0.10391391397E+01  0.90007535824E+02  0.89999794496E+02 0.  0.
         12    1    1    2    0    0 -0.23305784124E+00 -0.50928338136E+00 -0.10391391397E+01  0.11804641763E+01  0.00000000000E+00 0. -1.
         11    1    3    3    0    0  0.18322588409E+02 -0.35261006640E+02  0.10743197413E+02  0.41163966357E+02  0.51100000000E-03 0. -1.
        -11    1    3    3    0    0 -0.37914593372E+00  0.41042292794E+00 -0.92772953824E+01  0.92941061158E+01  0.51100000000E-03 0.  1.
        -12    1    3    3    0    0 -0.17710384634E+02  0.35359867094E+02 -0.42676289082E+00  0.39549463351E+02  0.00000000000E+00 0.  1.
</event>
<event>
 7    1  0.4008281E-015  0.9000780E+02  0.7816164E-02  0.1186339E+00
        -11   -1    0    0    0    0  0.00000000000E+00  0.00000000000E+00  0.45593999997E+02  0.45594000000E+02  0.51100000000E-03 0. -1.
         11   -1    0    0    0    0 -0.00000000000E+00 -0.00000000000E+00 -0.45593999997E+02  0.45594000000E+02  0.51100000000E-03 0.  1.
    9900012    2    1    2    0    0  0.83018672309E+00 -0.38950972724E+00  0.74293277717E+00  0.90007797927E+02  0.90000060059E+02 0.  0.
         12    1    1    2    0    0 -0.83018672309E+00  0.38950972724E+00 -0.74293277717E+00  0.11802020735E+01  0.00000000000E+00 0. -1.
         11    1    3    3    0    0  0.14748379682E+02  0.34986939708E+02  0.15648176697E+02  0.41066605503E+02  0.51100000000E-03 0. -1.
        -11    1    3    3    0    0  0.46657846443E+01 -0.12059338304E+01 -0.81407680655E+01  0.94602287344E+01  0.51100000000E-03 0.  1.
        -12    1    3    3    0    0 -0.18583977603E+02 -0.34170515604E+02 -0.67644758548E+01  0.39480963689E+02  0.00000000000E+00 0.  1.
</event>
<event>
 7    1  0.4008281E-015  0.9000772E+02  0.7816164E-02  0.1186339E+00
        -11   -1    0    0    0    0  0.00000000000E+00  0.00000000000E+00  0.45593999997E+02  0.45594000000E+02  0.51100000000E-03 0. -1.
         11   -1    0    0    0    0 -0.00000000000E+00 -0.00000000000E+00 -0.45593999997E+02  0.45594000000E+02  0.51100000000E-03 0.  1.
    9900012    2    1    2    0    0  0.30654337299E+00  0.23385634318E+00 -0.11155300159E+01  0.90007718320E+02  0.89999979401E+02 0.  0.
         12    1    1    2    0    0 -0.30654337299E+00 -0.23385634318E+00  0.11155300159E+01  0.11802816804E+01  0.00000000000E+00 0. -1.
         11    1    3    3    0    0  0.56086760465E+01 -0.10869944917E+01  0.28648927683E+02  0.29213008433E+02  0.51100000000E-03 0. -1.
        -11    1    3    3    0    0  0.22796581542E+02  0.67009163333E+01 -0.88482632732E+01  0.25355042357E+02  0.51100000000E-03 0.  1.
        -12    1    3    3    0    0 -0.28098714216E+02 -0.53800654984E+01 -0.20916194426E+02  0.35439667530E+02  0.00000000000E+00 0.  1.
</event>
<event>
 7    1  0.4008281E-015  0.9000772E+02  0.7816164E-02  0.1186339E+00
        -11   -1    0    0    0    0  0.00000000000E+00  0.00000000000E+00  0.45593999997E+02  0.45594000000E+02  0.51100000000E-03 0.  1.
         11   -1    0    0    0    0 -0.00000000000E+00 -0.00000000000E+00 -0.45593999997E+02  0.45594000000E+02  0.51100000000E-03 0. -1.
    9900012    2    1    2    0    0 -0.90341107434E+00  0.30185429416E+00  0.69699295058E+00  0.90007717510E+02  0.89999978581E+02 0.  0.
         12    1    1    2    0    0  0.90341107434E+00 -0.30185429416E+00 -0.69699295058E+00  0.11802824905E+01  0.00000000000E+00 0. -1.
         11    1    3    3    0    0 -0.87263537980E+00 -0.53836613666E+01  0.68743889757E+01  0.87751083336E+01  0.51100000000E-03 0. -1.
        -11    1    3    3    0    0 -0.25507999928E+02  0.26295905697E+02  0.17699379391E+02  0.40686616324E+02  0.51100000000E-03 0.  1.
         12    1    3    3    0    0  0.25477224234E+02 -0.20610390036E+02 -0.23876775416E+02  0.40545992852E+02  0.00000000000E+00 0. -1.
</event>
<event>
 7    1  0.4008281E-015  0.9000780E+02  0.7816164E-02  0.1186339E+00
        -11   -1    0    0    0    0  0.00000000000E+00  0.00000000000E+00  0.45593999997E+02  0.45594000000E+02  0.51100000000E-03 0.  1.
         11   -1    0    0    0    0 -0.00000000000E+00 -0.00000000000E+00 -0.45593999997E+02  0.45594000000E+02  0.51100000000E-03 0. -1.
    9900012    2    1    2    0    0 -0.11214875569E+01 -0.77285306440E-01  0.35938242850E+00  0.90007803792E+02  0.90000066002E+02 0.  0.
         12    1    1    2    0    0  0.11214875569E+01  0.77285306440E-01 -0.35938242850E+00  0.11801962078E+01  0.00000000000E+00 0. -1.
         11    1    3    3    0    0 -0.16013140199E+02  0.29470351787E+02 -0.19073167153E+02  0.38583778962E+02  0.51100000000E-03 0. -1.
        -11    1    3    3    0    0  0.44576215777E+01  0.57435486372E+01 -0.34930448380E+01  0.80659843528E+01  0.51100000000E-03 0.  1.
        -12    1    3    3    0    0  0.10434031065E+02 -0.35291185731E+02  0.22925594420E+02  0.43358040477E+02  0.00000000000E+00 0.  1.
</event>
<event>
 7    1  0.4008281E-015  0.9000784E+02  0.7816164E-02  0.1186339E+00
        -11   -1    0    0    0    0  0.00000000000E+00  0.00000000000E+00  0.45593999997E+02  0.45594000000E+02  0.51100000000E-03 0.  1.
         11   -1    0    0    0    0 -0.00000000000E+00 -0.00000000000E+00 -0.45593999997E+02  0.45594000000E+02  0.51100000000E-03 0. -1.
    9900012    2    1    2    0    0 -0.23539445862E+00  0.42383763283E+00  0.10759786382E+01  0.90007839452E+02  0.90000102132E+02 0.  0.
         12    1    1    2    0    0  0.23539445862E+00 -0.42383763283E+00 -0.10759786382E+01  0.11801605484E+01  0.00000000000E+00 0. -1.
         11    1    3    3    0    0  0.85118384171E+01  0.34286764150E+02 -0.39927688851E+01  0.35552437227E+02  0.51100000000E-03 0. -1.
        -11    1    3    3    0    0  0.66610371099E+01  0.73365627752E+01  0.32597687716E+01  0.10431714214E+02  0.51100000000E-03 0.  1.
        -12    1    3    3    0    0 -0.15408269986E+02 -0.41199489293E+02  0.18089787517E+01  0.44023688011E+02  0.00000000000E+00 0.  1.
</event>
<event>
 7    1  0.4008281E-015  0.9000775E+02  0.7816164E-02  0.1186339E+00
        -11   -1    0    0    0    0  0.00000000000E+00  0.00000000000E+00  0.45593999997E+02  0.45594000000E+02  0.51100000000E-03 0.  1.
         11   -1    0    0    0    0 -0.00000000000E+00 -0.00000000000E+00 -0.45593999997E+02  0.45594000000E+02  0.51100000000E-03 0. -1.
    9900012    2    1    2    0    0 -0.73780776795E+00 -0.58680719117E+00  0.71013392885E+00  0.90007748680E+02  0.90000010162E+02 0.  0.
         12    1    1    2    0    0  0.73780776795E+00  0.58680719117E+00 -0.71013392885E+00  0.11802513203E+01  0.00000000000E+00 0. -1.
         11    1    3    3    0    0 -0.22031902743E+02 -0.36241570926E+02 -0.66994043992E+01  0.42938772936E+02  0.51100000000E-03 0. -1.
        -11    1    3    3    0    0 -0.28250593064E+01  0.27395776075E+01 -0.30089634795E+01  0.49537972339E+01  0.51100000000E-03 0.  1.
        -12    1    3    3    0    0  0.24119154281E+02  0.32915186127E+02  0.10418501808E+02  0.42115178510E+02  0.00000000000E+00 0.  1.
</event>
<event>
 7    1  0.7931910E-015  0.9000775E+02  0.7816164E-02  0.1186339E+00
        -11   -1    0    0    0    0  0.00000000000E+00  0.00000000000E+00  0.45593999997E+02  0.45594000000E+02  0.51100000000E-03 0. -1.
         11   -1    0    0    0    0 -0.00000000000E+00 -0.00000000000E+00 -0.45593999997E+02  0.45594000000E+02  0.51100000000E-03 0.  1.
    9900012    2    1    2    0    0  0.24139984376E-01 -0.65782824369E+00 -0.97962992483E+00  0.90007747685E+02  0.90000009155E+02 0.  0.
         12    1    1    2    0    0 -0.24139984376E-01  0.65782824369E+00  0.97962992483E+00  0.11802523148E+01  0.00000000000E+00 0. -1.
         11    1    3    3    0    0  0.99239514307E+00 -0.65095094844E+01 -0.67099459569E+01  0.94011667815E+01  0.51100000000E-03 0. -1.
        -11    1    3    3    0    0  0.58184094796E+01 -0.40712331670E+01 -0.36249915953E+02  0.36938939282E+02  0.51100000000E-03 0.  1.
         12    1    3    3    0    0 -0.67866646383E+01  0.99229144076E+01  0.41980231986E+02  0.43667641622E+02  0.00000000000E+00 0. -1.
</event>
<event>
 7    1  0.4008281E-015  0.9000751E+02  0.7816164E-02  0.1186340E+00
        -11   -1    0    0    0    0  0.00000000000E+00  0.00000000000E+00  0.45593999997E+02  0.45594000000E+02  0.51100000000E-03 0.  1.
         11   -1    0    0    0    0 -0.00000000000E+00 -0.00000000000E+00 -0.45593999997E+02  0.45594000000E+02  0.51100000000E-03 0. -1.
    9900012    2    1    2    0    0  0.88670078219E+00  0.54635288396E+00 -0.55571564162E+00  0.90007508736E+02  0.89999767051E+02 0.  0.
         12    1    1    2    0    0 -0.88670078219E+00 -0.54635288396E+00  0.55571564162E+00  0.11804912644E+01  0.00000000000E+00 0. -1.
         11    1    3    3    0    0  0.16668674483E+02  0.77652202251E+01 -0.36293529910E+01  0.18743413711E+02  0.51100000000E-03 0. -1.
        -11    1    3    3    0    0  0.22215134172E+02 -0.13319128057E+02 -0.13679070917E+02  0.29292120782E+02  0.51100000000E-03 0.  1.
        -12    1    3    3    0    0 -0.37997107873E+02  0.61002607163E+01  0.16752708267E+02  0.41971974242E+02  0.00000000000E+00 0.  1.
</event>
<event>
 7    1  0.4705505E-015  0.9000817E+02  0.7816164E-02  0.1186338E+00
        -11   -1    0    0    0    0  0.00000000000E+00  0.00000000000E+00  0.45593999997E+02  0.45594000000E+02  0.51100000000E-03 0. -1.
         11   -1    0    0    0    0 -0.00000000000E+00 -0.00000000000E+00 -0.45593999997E+02  0.45594000000E+02  0.51100000000E-03 0.  1.
    9900012    2    1    2    0    0 -0.66008370198E+00 -0.93854487441E+00 -0.27461167713E+00  0.90008174357E+02  0.90000441457E+02 0.  0.
         12    1    1    2    0    0  0.66008370198E+00  0.93854487441E+00  0.27461167713E+00  0.11798256431E+01  0.00000000000E+00 0. -1.
         11    1    3    3    0    0  0.28065709208E+02  0.32792582104E+01  0.30063497937E+02  0.41258350382E+02  0.51100000000E-03 0. -1.
        -11    1    3    3    0    0  0.37079053976E+01  0.52392377878E-01 -0.88890094398E+01  0.96315002196E+01  0.51100000000E-03 0.  1.
        -12    1    3    3    0    0 -0.32433698307E+02 -0.42701954627E+01 -0.21449100174E+02  0.39118323756E+02  0.00000000000E+00 0.  1.
</event>
<event>
 7    1  0.4008281E-015  0.9000771E+02  0.7816164E-02  0.1186339E+00
        -11   -1    0    0    0    0  0.00000000000E+00  0.00000000000E+00  0.45593999997E+02  0.45594000000E+02  0.51100000000E-03 0.  1.
         11   -1    0    0    0    0 -0.00000000000E+00 -0.00000000000E+00 -0.45593999997E+02  0.45594000000E+02  0.51100000000E-03 0. -1.
    9900012    2    1    2    0    0 -0.38654518884E+00  0.91433018083E+00 -0.63848118489E+00  0.90007713981E+02  0.89999975006E+02 0.  0.
         12    1    1    2    0    0  0.38654518884E+00 -0.91433018083E+00  0.63848118489E+00  0.11802860187E+01  0.00000000000E+00 0. -1.
         11    1    3    3    0    0 -0.75428950035E+01  0.24799440355E+02 -0.24598051878E+02  0.35734740287E+02  0.51100000000E-03 0. -1.
        -11    1    3    3    0    0 -0.47691346168E+01  0.20504779455E+01 -0.91724935390E+01  0.10539627260E+02  0.51100000000E-03 0.  1.
        -12    1    3    3    0    0  0.11925484431E+02 -0.25935588120E+02  0.33132064232E+02  0.43733346434E+02  0.00000000000E+00 0.  1.
</event>
<event>
 7    1  0.4008281E-015  0.9000763E+02  0.7816164E-02  0.1186339E+00
        -11   -1    0    0    0    0  0.00000000000E+00  0.00000000000E+00  0.45593999997E+02  0.45594000000E+02  0.51100000000E-03 0. -1.
         11   -1    0    0    0    0 -0.00000000000E+00 -0.00000000000E+00 -0.45593999997E+02  0.45594000000E+02  0.51100000000E-03 0.  1.
    9900012    2    1    2    0    0 -0.97186672294E+00 -0.60088391980E+00  0.29611215040E+00  0.90007631914E+02  0.89999891855E+02 0.  0.
         12    1    1    2    0    0  0.97186672294E+00  0.60088391980E+00 -0.29611215040E+00  0.11803680857E+01  0.00000000000E+00 0. -1.
         11    1    3    3    0    0  0.27296360497E+02  0.23407475021E+02  0.11603991095E+02  0.37784306171E+02  0.51100000000E-03 0. -1.
        -11    1    3    3    0    0  0.23672442639E+01  0.58577694775E+01 -0.66713741357E+01  0.91882828524E+01  0.51100000000E-03 0.  1.
        -12    1    3    3    0    0 -0.30635471484E+02 -0.29866128418E+02 -0.46365048085E+01  0.43035042891E+02  0.00000000000E+00 0.  1.
</event>
<event>
 7    1  0.4008281E-015  0.9000774E+02  0.7816164E-02  0.1186339E+00
        -11   -1    0    0    0    0  0.00000000000E+00  0.00000000000E+00  0.45593999997E+02  0.45594000000E+02  0.51100000000E-03 0.  1.
         11   -1    0    0    0    0 -0.00000000000E+00 -0.00000000000E+00 -0.45593999997E+02  0.45594000000E+02  0.51100000000E-03 0. -1.
    9900012    2    1    2    0    0  0.10101394446E+01  0.20450000626E+00 -0.57516494462E+00  0.90007738731E+02  0.90000000082E+02 0.  0.
         12    1    1    2    0    0 -0.10101394446E+01 -0.20450000626E+00  0.57516494462E+00  0.11802612692E+01  0.00000000000E+00 0. -1.
         11    1    3    3    0    0 -0.58575240634E+01 -0.51712485912E+01 -0.52568842637E+01  0.94173899021E+01  0.51100000000E-03 0. -1.
        -11    1    3    3    0    0 -0.28106895310E+02 -0.22249811077E+02  0.86140091223E+00  0.35857965206E+02  0.51100000000E-03 0.  1.
         12    1    3    3    0    0  0.34974558818E+02  0.27625559674E+02  0.38203184068E+01  0.44732383623E+02  0.00000000000E+00 0. -1.
</event>
<event>
 7    1  0.4008281E-015  0.9000773E+02  0.7816164E-02  0.1186339E+00
        -11   -1    0    0    0    0  0.00000000000E+00  0.00000000000E+00  0.45593999997E+02  0.45594000000E+02  0.51100000000E-03 0. -1.
         11   -1    0    0    0    0 -0.00000000000E+00 -0.00000000000E+00 -0.45593999997E+02  0.45594000000E+02  0.51100000000E-03 0.  1.
    9900012    2    1    2    0    0 -0.17516095465E+00 -0.50316413372E+00 -0.10531808558E+01  0.90007726548E+02  0.89999987739E+02 0.  0.
         12    1    1    2    0    0  0.17516095465E+00  0.50316413372E+00  0.10531808558E+01  0.11802734516E+01  0.00000000000E+00 0. -1.
         11    1    3    3    0    0 -0.73301192866E+01 -0.64793513691E+01  0.91797330688E+01  0.13415667795E+02  0.51100000000E-03 0. -1.
        -11    1    3    3    0    0 -0.11511983036E+02 -0.31750595028E+02 -0.57902971589E+01  0.34265924466E+02  0.51100000000E-03 0.  1.
         12    1    3    3    0    0  0.18666941368E+02  0.37726782263E+02 -0.44426167657E+01  0.42326134287E+02  0.00000000000E+00 0. -1.
</event>
<event>
 7    1  0.4008281E-015  0.9000767E+02  0.7816164E-02  0.1186339E+00
        -11   -1    0    0    0    0  0.00000000000E+00  0.00000000000E+00  0.45593999997E+02  0.45594000000E+02  0.51100000000E-03 0.  1.
         11   -1    0    0    0    0 -0.00000000000E+00 -0.00000000000E+00 -0.45593999997E+02  0.45594000000E+02  0.51100000000E-03 0. -1.
    9900012    2    1    2    0    0  0.11267940077E+01 -0.18317982042E+00  0.29992092858E+00  0.90007672865E+02  0.89999933347E+02 0.  0.
         12    1    1    2    0    0 -0.11267940077E+01  0.18317982042E+00 -0.29992092858E+00  0.11803271350E+01  0.00000000000E+00 0. -1.
         11    1    3    3    0    0  0.20004482524E+01 -0.60502570026E+01 -0.59842688119E+01  0.87417890893E+01  0.51100000000E-03 0. -1.
        -11    1    3    3    0    0 -0.16425745894E+02 -0.32578336394E+02  0.14006533034E+02  0.39081147607E+02  0.51100000000E-03 0.  1.
         12    1    3    3    0    0  0.15552091650E+02  0.38445413576E+02 -0.77223432936E+01  0.42184736169E+02  0.00000000000E+00 0. -1.
</event>
<event>
 7    1  0.4008281E-015  0.9000752E+02  0.7816164E-02  0.1186339E+00
        -11   -1    0    0    0    0  0.00000000000E+00  0.00000000000E+00  0.45593999997E+02  0.45594000000E+02  0.51100000000E-03 0.  1.
         11   -1    0    0    0    0 -0.00000000000E+00 -0.00000000000E+00 -0.45593999997E+02  0.45594000000E+02  0.51100000000E-03 0. -1.
    9900012    2    1    2    0    0  0.16617614896E+00  0.66693583396E+00  0.95974682327E+00  0.90007520486E+02  0.89999778956E+02 0.  0.
         12    1    1    2    0    0 -0.16617614896E+00 -0.66693583396E+00 -0.95974682327E+00  0.11804795144E+01  0.00000000000E+00 0. -1.
         11    1    3    3    0    0  0.30191446325E+02  0.13923883138E+02  0.13131227002E+02  0.35746707200E+02  0.51100000000E-03 0. -1.
        -11    1    3    3    0    0  0.72294840312E+01  0.71505941637E+01 -0.37550925548E+00  0.10175335066E+02  0.51100000000E-03 0.  1.
        -12    1    3    3    0    0 -0.37254754207E+02 -0.20407541467E+02 -0.11795970924E+02  0.44085478219E+02  0.00000000000E+00 0.  1.
</event>
<event>
 7    1  0.4008281E-015  0.9000764E+02  0.7816164E-02  0.1186339E+00
        -11   -1    0    0    0    0  0.00000000000E+00  0.00000000000E+00  0.45593999997E+02  0.45594000000E+02  0.51100000000E-03 0. -1.
         11   -1    0    0    0    0 -0.00000000000E+00 -0.00000000000E+00 -0.45593999997E+02  0.45594000000E+02  0.51100000000E-03 0.  1.
    9900012    2    1    2    0    0 -0.30372079224E+00  0.55816117152E+00 -0.99471386598E+00  0.90007641627E+02  0.89999901697E+02 0.  0.
         12    1    1    2    0    0  0.30372079224E+00 -0.55816117152E+00  0.99471386598E+00  0.11803583728E+01  0.00000000000E+00 0. -1.
         11    1    3    3    0    0  0.30187719061E+01 -0.63317432662E+01 -0.61198741711E+01  0.93089643216E+01  0.51100000000E-03 0. -1.
        -11    1    3    3    0    0  0.35056761540E+02  0.17192134707E+02 -0.58300634758E+01  0.39478293604E+02  0.51100000000E-03 0.  1.
         12    1    3    3    0    0 -0.38379254239E+02 -0.10302230269E+02  0.10955223781E+02  0.41220383702E+02  0.00000000000E+00 0. -1.
</event>
<event>
 7    1  0.4008281E-015  0.9000775E+02  0.7816164E-02  0.1186339E+00
        -11   -1    0    0    0    0  0.00000000000E+00  0.00000000000E+00  0.45593999997E+02  0.45594000000E+02  0.51100000000E-03 0.  1.
         11   -1    0    0    0    0 -0.00000000000E+00 -0.00000000000E+00 -0.45593999997E+02  0.45594000000E+02  0.51100000000E-03 0. -1.
    9900012    2    1    2    0    0  0.58272094956E+00  0.10089191821E+00  0.10213906031E+01  0.90007753565E+02  0.90000015112E+02 0.  0.
         12    1    1    2    0    0 -0.58272094956E+00 -0.10089191821E+00 -0.10213906031E+01  0.11802464354E+01  0.00000000000E+00 0. -1.
         11    1    3    3    0    0 -0.19052917890E+00 -0.67547094482E+01  0.73983500759E+01  0.10019879501E+02  0.51100000000E-03 0. -1.
        -11    1    3    3    0    0  0.39349250005E+02  0.64790765908E+01 -0.10366079947E+02  0.41204338645E+02  0.51100000000E-03 0.  1.
         12    1    3    3    0    0 -0.38575999877E+02  0.37652477561E+00  0.39891204743E+01  0.38783535419E+02  0.00000000000E+00 0. -1.
</event>
<event>
 7    1  0.4008281E-015  0.9000775E+02  0.7816164E-02  0.1186339E+00
        -11   -1    0    0    0    0  0.00000000000E+00  0.00000000000E+00  0.45593999997E+02  0.45594000000E+02  0.51100000000E-03 0.  1.
         11   -1    0    0    0    0 -0.00000000000E+00 -0.00000000000E+00 -0.45593999997E+02  0.45594000000E+02  0.51100000000E-03 0. -1.
    9900012    2    1    2    0    0 -0.69563254417E+00  0.89335620108E+00  0.33315806377E+00  0.90007752469E+02  0.90000014002E+02 0.  0.
         12    1    1    2    0    0  0.69563254417E+00 -0.89335620108E+00 -0.33315806377E+00  0.11802475308E+01  0.00000000000E+00 0. -1.
         11    1    3    3    0    0 -0.64112756511E+01 -0.26892413296E+01 -0.39708518318E+01  0.80065060378E+01  0.51100000000E-03 0. -1.
        -11    1    3    3    0    0  0.39269742686E+02 -0.92612962701E+01 -0.12636227710E+02  0.42279528737E+02  0.51100000000E-03 0.  1.
         12    1    3    3    0    0 -0.33554099579E+02  0.12843893801E+02  0.16940237605E+02  0.39721717695E+02  0.00000000000E+00 0. -1.
</event>
<event>
 7    1  0.4008281E-015  0.9000773E+02  0.7816164E-02  0.1186339E+00
        -11   -1    0    0    0    0  0.00000000000E+00  0.00000000000E+00  0.45593999997E+02  0.45594000000E+02  0.51100000000E-03 0. -1.
         11   -1    0    0    0    0 -0.00000000000E+00 -0.00000000000E+00 -0.45593999997E+02  0.45594000000E+02  0.51100000000E-03 0.  1.
    9900012    2    1    2    0    0 -0.22285248480E+00  0.21877543395E+00 -0.11382090975E+01  0.90007726358E+02  0.89999987546E+02 0.  0.
         12    1    1    2    0    0  0.22285248480E+00 -0.21877543395E+00  0.11382090975E+01  0.11802736420E+01  0.00000000000E+00 0. -1.
         11    1    3    3    0    0 -0.85041034166E+01 -0.12521526267E+02  0.96140497906E+01  0.17931490418E+02  0.51100000000E-03 0. -1.
        -11    1    3    3    0    0  0.13720570283E+02 -0.23900214196E+02  0.10358294055E+02  0.29440933129E+02  0.51100000000E-03 0.  1.
        -12    1    3    3    0    0 -0.54393193517E+01  0.36640515897E+02 -0.21110552943E+02  0.42635302811E+02  0.00000000000E+00 0.  1.
</event>
<event>
 7    1  0.4008281E-015  0.9000772E+02  0.7816164E-02  0.1186339E+00
        -11   -1    0    0    0    0  0.00000000000E+00  0.00000000000E+00  0.45593999997E+02  0.45594000000E+02  0.51100000000E-03 0. -1.
         11   -1    0    0    0    0 -0.00000000000E+00 -0.00000000000E+00 -0.45593999997E+02  0.45594000000E+02  0.51100000000E-03 0.  1.
    9900012    2    1    2    0    0  0.11697189075E+01  0.15743421129E+00 -0.53353429790E-02  0.90007721931E+02  0.89999983061E+02 0.  0.
         12    1    1    2    0    0 -0.11697189075E+01 -0.15743421129E+00  0.53353429790E-02  0.11802780687E+01  0.00000000000E+00 0. -1.
         11    1    3    3    0    0  0.26394992553E+02 -0.20111517432E+02 -0.18225294934E+02  0.37859346811E+02  0.51100000000E-03 0. -1.
        -11    1    3    3    0    0  0.78631605415E+01 -0.27929314610E+01  0.14543897870E+01  0.84702426034E+01  0.51100000000E-03 0.  1.
        -12    1    3    3    0    0 -0.33088434187E+02  0.23061883104E+02  0.16765569804E+02  0.43678132516E+02  0.00000000000E+00 0.  1.
</event>
<event>
 7    1  0.4008281E-015  0.9000862E+02  0.7816164E-02  0.1186337E+00
        -11   -1    0    0    0    0  0.00000000000E+00  0.00000000000E+00  0.45593999997E+02  0.45594000000E+02  0.51100000000E-03 0. -1.
         11   -1    0    0    0    0 -0.00000000000E+00 -0.00000000000E+00 -0.45593999997E+02  0.45594000000E+02  0.51100000000E-03 0.  1.
    9900012    2    1    2    0    0  0.43426141199E+00  0.93223081653E+00 -0.57731786025E+00  0.90008621697E+02  0.90000894699E+02 0.  0.
         12    1    1    2    0    0 -0.43426141199E+00 -0.93223081653E+00  0.57731786025E+00  0.11793783027E+01  0.00000000000E+00 0. -1.
         11    1    3    3    0    0  0.81795860174E+00  0.42599634161E+01  0.80457142293E+01  0.91405613778E+01  0.51100000000E-03 0. -1.
        -11    1    3    3    0    0  0.33843204453E+02 -0.22333656862E+02 -0.97428780589E+01  0.41702258807E+02  0.51100000000E-03 0.  1.
         12    1    3    3    0    0 -0.34226901643E+02  0.19005924262E+02  0.11198459694E+01  0.39165801513E+02  0.00000000000E+00 0. -1.
</event>
<event>
 7    1  0.4008281E-015  0.9000763E+02  0.7816164E-02  0.1186339E+00
        -11   -1    0    0    0    0  0.00000000000E+00  0.00000000000E+00  0.45593999997E+02  0.45594000000E+02  0.51100000000E-03 0.  1.
         11   -1    0    0    0    0 -0.00000000000E+00 -0.00000000000E+00 -0.45593999997E+02  0.45594000000E+02  0.51100000000E-03 0. -1.
    9900012    2    1    2    0    0  0.25835413262E+00  0.62359362040E+00  0.96832436783E+00  0.90007632285E+02  0.89999892231E+02 0.  0.
         12    1    1    2    0    0 -0.25835413262E+00 -0.62359362040E+00 -0.96832436783E+00  0.11803677150E+01  0.00000000000E+00 0. -1.
         11    1    3    3    0    0  0.38200145138E+01  0.35801648485E+02  0.18150313873E+01  0.36050587850E+02  0.51100000000E-03 0. -1.
        -11    1    3    3    0    0  0.61231221286E+01  0.76155648069E+01 -0.23685531724E+01  0.10054824530E+02  0.51100000000E-03 0.  1.
        -12    1    3    3    0    0 -0.96847825098E+01 -0.42793619672E+02  0.15218461529E+01  0.43902219905E+02  0.00000000000E+00 0.  1.
</event>
<event>
 7    1  0.4008281E-015  0.9000773E+02  0.7816164E-02  0.1186339E+00
        -11   -1    0    0    0    0  0.00000000000E+00  0.00000000000E+00  0.45593999997E+02  0.45594000000E+02  0.51100000000E-03 0.  1.
         11   -1    0    0    0    0 -0.00000000000E+00 -0.00000000000E+00 -0.45593999997E+02  0.45594000000E+02  0.51100000000E-03 0. -1.
    9900012    2    1    2    0    0 -0.54729346484E+00  0.19820150209E-01  0.10455208834E+01  0.90007730161E+02  0.89999991399E+02 0.  0.
         12    1    1    2    0    0  0.54729346484E+00 -0.19820150209E-01 -0.10455208834E+01  0.11802698389E+01  0.00000000000E+00 0. -1.
         11    1    3    3    0    0  0.29279943079E+01  0.71307999835E+01  0.91413187550E+01  0.11957640566E+02  0.51100000000E-03 0. -1.
        -11    1    3    3    0    0  0.36306320074E+02 -0.64669726396E+01  0.22301386796E+01  0.36945150307E+02  0.51100000000E-03 0.  1.
         12    1    3    3    0    0 -0.39781607847E+02 -0.64400719364E+00 -0.10325936551E+02  0.41104939287E+02  0.00000000000E+00 0. -1.
</event>
<event>
 7    1  0.4008281E-015  0.9000702E+02  0.7816164E-02  0.1186340E+00
        -11   -1    0    0    0    0  0.00000000000E+00  0.00000000000E+00  0.45593999997E+02  0.45594000000E+02  0.51100000000E-03 0.  1.
         11   -1    0    0    0    0 -0.00000000000E+00 -0.00000000000E+00 -0.45593999997E+02  0.45594000000E+02  0.51100000000E-03 0. -1.
    9900012    2    1    2    0    0  0.52116122688E+00 -0.87172912675E+00  0.60264618153E+00  0.90007024507E+02  0.89999276428E+02 0.  0.
         12    1    1    2    0    0 -0.52116122688E+00  0.87172912675E+00 -0.60264618153E+00  0.11809754929E+01  0.00000000000E+00 0. -1.
         11    1    3    3    0    0  0.32818089190E+01 -0.80644247589E+01 -0.23789417376E+02  0.25332619206E+02  0.51100000000E-03 0. -1.
        -11    1    3    3    0    0  0.18930389503E+02 -0.16620123096E+02  0.20000595889E+02  0.32165384727E+02  0.51100000000E-03 0.  1.
        -12    1    3    3    0    0 -0.21691037195E+02  0.23812818729E+02  0.43914676688E+01  0.32509020574E+02  0.00000000000E+00 0.  1.
</event>
<event>
 7    1  0.4008281E-015  0.9000769E+02  0.7816164E-02  0.1186339E+00
        -11   -1    0    0    0    0  0.00000000000E+00  0.00000000000E+00  0.45593999997E+02  0.45594000000E+02  0.51100000000E-03 0.  1.
         11   -1    0    0    0    0 -0.00000000000E+00 -0.00000000000E+00 -0.45593999997E+02  0.45594000000E+02  0.51100000000E-03 0. -1.
    9900012    2    1    2    0    0 -0.11599040909E+01 -0.21330634650E+00 -0.47412354528E-01  0.90007692824E+02  0.89999953570E+02 0.  0.
         12    1    1    2    0    0  0.11599040909E+01  0.21330634650E+00  0.47412354528E-01  0.11803071757E+01  0.00000000000E+00 0. -1.
         11    1    3    3    0    0 -0.18640844789E+02 -0.13321590623E+02 -0.27657308061E+02  0.35914795845E+02  0.51100000000E-03 0. -1.
        -11    1    3    3    0    0 -0.10252045699E+02  0.70924790436E+01 -0.25033998183E+01  0.12715137078E+02  0.51100000000E-03 0.  1.
        -12    1    3    3    0    0  0.27732986397E+02  0.60158052332E+01  0.30113295525E+02  0.41377759901E+02  0.00000000000E+00 0.  1.
</event>
<event>
 7    1  0.4008281E-015  0.9000773E+02  0.7816164E-02  0.1186339E+00
        -11   -1    0    0    0    0  0.00000000000E+00  0.00000000000E+00  0.45593999997E+02  0.45594000000E+02  0.51100000000E-03 0.  1.
         11   -1    0    0    0    0 -0.00000000000E+00 -0.00000000000E+00 -0.45593999997E+02  0.45594000000E+02  0.51100000000E-03 0. -1.
    9900012    2    1    2    0    0  0.54090797283E+00  0.10405901162E+01 -0.13276446590E+00  0.90007730697E+02  0.89999991942E+02 0.  0.
         12    1    1    2    0    0 -0.54090797283E+00 -0.10405901162E+01  0.13276446590E+00  0.11802693034E+01  0.00000000000E+00 0. -1.
         11    1    3    3    0    0  0.30658315069E+02  0.28755536828E+02 -0.58759064608E+01  0.42442189601E+02  0.51100000000E-03 0. -1.
        -11    1    3    3    0    0 -0.86451853007E+01  0.10666020666E+01  0.76684762497E+01  0.11605274538E+02  0.51100000000E-03 0.  1.
        -12    1    3    3    0    0 -0.21472221795E+02 -0.28781548778E+02 -0.19253342548E+01  0.35960266558E+02  0.00000000000E+00 0.  1.
</event>
<event>
 7    1  0.4008281E-015  0.9000778E+02  0.7816164E-02  0.1186339E+00
        -11   -1    0    0    0    0  0.00000000000E+00  0.00000000000E+00  0.45593999997E+02  0.45594000000E+02  0.51100000000E-03 0.  1.
         11   -1    0    0    0    0 -0.00000000000E+00 -0.00000000000E+00 -0.45593999997E+02  0.45594000000E+02  0.51100000000E-03 0. -1.
    9900012    2    1    2    0    0  0.93771818741E+00  0.19940335868E+00  0.68836857700E+00  0.90007776125E+02  0.90000037969E+02 0.  0.
         12    1    1    2    0    0 -0.93771818741E+00 -0.19940335868E+00 -0.68836857700E+00  0.11802238755E+01  0.00000000000E+00 0. -1.
         11    1    3    3    0    0  0.57304393117E+01 -0.63840170591E+01  0.27474017347E+01  0.90078757246E+01  0.51100000000E-03 0. -1.
        -11    1    3    3    0    0 -0.37662332720E+02 -0.13867994932E+02  0.81723156314E+01  0.40958019146E+02  0.51100000000E-03 0.  1.
         12    1    3    3    0    0  0.32869611596E+02  0.20451415349E+02 -0.10231348789E+02  0.40041881253E+02  0.00000000000E+00 0. -1.
</event>
<event>
 7    1  0.4008281E-015  0.9000775E+02  0.7816164E-02  0.1186339E+00
        -11   -1    0    0    0    0  0.00000000000E+00  0.00000000000E+00  0.45593999997E+02  0.45594000000E+02  0.51100000000E-03 0. -1.
         11   -1    0    0    0    0 -0.00000000000E+00 -0.00000000000E+00 -0.45593999997E+02  0.45594000000E+02  0.51100000000E-03 0.  1.
    9900012    2    1    2    0    0 -0.11561016876E+01  0.19312546609E+00  0.13828026249E+00  0.90007750031E+02  0.90000011532E+02 0.  0.
         12    1    1    2    0    0  0.11561016876E+01 -0.19312546609E+00 -0.13828026249E+00  0.11802499688E+01  0.00000000000E+00 0. -1.
         11    1    3    3    0    0  0.24594168934E+02  0.13776728355E+02  0.30212865468E+02  0.41321769441E+02  0.51100000000E-03 0. -1.
        -11    1    3    3    0    0 -0.64956731297E+01 -0.91981336039E+01  0.15859107769E+01  0.11371655309E+02  0.51100000000E-03 0.  1.
        -12    1    3    3    0    0 -0.19254597492E+02 -0.43854692847E+01 -0.31660495982E+02  0.37314325282E+02  0.00000000000E+00 0.  1.
</event>
<event>
 7    1  0.4008281E-015  0.9000800E+02  0.7816164E-02  0.1186339E+00
        -11   -1    0    0    0    0  0.00000000000E+00  0.00000000000E+00  0.45593999997E+02  0.45594000000E+02  0.51100000000E-03 0.  1.
         11   -1    0    0    0    0 -0.00000000000E+00 -0.00000000000E+00 -0.45593999997E+02  0.45594000000E+02  0.51100000000E-03 0. -1.
    9900012    2    1    2    0    0  0.84244349215E+00 -0.19365590729E+00  0.80323246230E+00  0.90008001680E+02  0.90000266501E+02 0.  0.
         12    1    1    2    0    0 -0.84244349215E+00  0.19365590729E+00 -0.80323246230E+00  0.11799983205E+01  0.00000000000E+00 0. -1.
         11    1    3    3    0    0 -0.70813254576E+01 -0.60250464774E+01  0.22511637284E+01  0.95662998952E+01  0.51100000000E-03 0. -1.
        -11    1    3    3    0    0  0.36047854714E+02 -0.18713187747E+02 -0.10664555604E+02  0.41992427551E+02  0.51100000000E-03 0.  1.
         12    1    3    3    0    0 -0.28124085764E+02  0.24544578318E+02  0.92166243376E+01  0.38449274233E+02  0.00000000000E+00 0. -1.
</event>
<event>
 7    1  0.4008281E-015  0.9000775E+02  0.7816164E-02  0.1186339E+00
        -11   -1    0    0    0    0  0.00000000000E+00  0.00000000000E+00  0.45593999997E+02  0.45594000000E+02  0.51100000000E-03 0.  1.
         11   -1    0    0    0    0 -0.00000000000E+00 -0.00000000000E+00 -0.45593999997E+02  0.45594000000E+02  0.51100000000E-03 0. -1.
    9900012    2    1    2    0    0 -0.97550997055E+00 -0.59176419775E+00  0.30197313749E+00  0.90007749033E+02  0.90000010521E+02 0.  0.
         12    1    1    2    0    0  0.97550997055E+00  0.59176419775E+00 -0.30197313749E+00  0.11802509666E+01  0.00000000000E+00 0. -1.
         11    1    3    3    0    0 -0.21175461800E+02 -0.20352600261E+02 -0.25409018786E+02  0.38836152690E+02  0.51100000000E-03 0. -1.
        -11    1    3    3    0    0 -0.86584645962E+01  0.18654144281E+01  0.48530146941E+00  0.88704170099E+01  0.51100000000E-03 0.  1.
        -12    1    3    3    0    0  0.28858416426E+02  0.17895421635E+02  0.25225690454E+02  0.42301179333E+02  0.00000000000E+00 0.  1.
</event>
<event>
 7    1  0.4008281E-015  0.9000774E+02  0.7816164E-02  0.1186339E+00
        -11   -1    0    0    0    0  0.00000000000E+00  0.00000000000E+00  0.45593999997E+02  0.45594000000E+02  0.51100000000E-03 0. -1.
         11   -1    0    0    0    0 -0.00000000000E+00 -0.00000000000E+00 -0.45593999997E+02  0.45594000000E+02  0.51100000000E-03 0.  1.
    9900012    2    1    2    0    0  0.69469235966E+00 -0.72691720919E+00 -0.61806140753E+00  0.90007743245E+02  0.90000004656E+02 0.  0.
         12    1    1    2    0    0 -0.69469235966E+00  0.72691720919E+00  0.61806140753E+00  0.11802567547E+01  0.00000000000E+00 0. -1.
         11    1    3    3    0    0 -0.59958362640E+01  0.77869365626E+01  0.52006790668E+01  0.11119060057E+02  0.51100000000E-03 0. -1.
        -11    1    3    3    0    0 -0.16577612697E+02 -0.94217015870E+01 -0.36018268135E+02  0.40754157374E+02  0.51100000000E-03 0.  1.
         12    1    3    3    0    0  0.23268141321E+02  0.90784781527E+00  0.30199527661E+02  0.38134525815E+02  0.00000000000E+00 0. -1.
</event>
<event>
 7    1  0.4008281E-015  0.9000774E+02  0.7816164E-02  0.1186339E+00
        -11   -1    0    0    0    0  0.00000000000E+00  0.00000000000E+00  0.45593999997E+02  0.45594000000E+02  0.51100000000E-03 0. -1.
         11   -1    0    0    0    0 -0.00000000000E+00 -0.00000000000E+00 -0.45593999997E+02  0.45594000000E+02  0.51100000000E-03 0.  1.
    9900012    2    1    2    0    0 -0.10319147847E+00 -0.71161810339E+00 -0.93593400726E+00  0.90007736778E+02  0.89999998104E+02 0.  0.
         12    1    1    2    0    0  0.10319147847E+00  0.71161810339E+00  0.93593400726E+00  0.11802632216E+01  0.00000000000E+00 0. -1.
         11    1    3    3    0    0 -0.73090801814E+01 -0.64114827513E+00 -0.73789762463E+01  0.10405912498E+02  0.51100000000E-03 0. -1.
        -11    1    3    3    0    0 -0.24497380872E+01  0.19579625715E+02 -0.30695049356E+02  0.36490396203E+02  0.51100000000E-03 0.  1.
         12    1    3    3    0    0  0.96556267902E+01 -0.19650095544E+02  0.37138091595E+02  0.43111428077E+02  0.00000000000E+00 0. -1.
</event>
<event>
 7    1  0.4208742E-015  0.9000786E+02  0.7816164E-02  0.1186339E+00
        -11   -1    0    0    0    0  0.00000000000E+00  0.00000000000E+00  0.45593999997E+02  0.45594000000E+02  0.51100000000E-03 0.  1.
         11   -1    0    0    0    0 -0.00000000000E+00 -0.00000000000E+00 -0.45593999997E+02  0.45594000000E+02  0.51100000000E-03 0. -1.
    9900012    2    1    2    0    0  0.10586792393E+01 -0.33800624592E+00 -0.39710112144E+00  0.90007856257E+02  0.90000119159E+02 0.  0.
         12    1    1    2    0    0 -0.10586792393E+01  0.33800624592E+00  0.39710112144E+00  0.11801437432E+01  0.00000000000E+00 0. -1.
         11    1    3    3    0    0 -0.13428562172E+02  0.41189650951E+01 -0.36657981376E+02  0.39256843407E+02  0.51100000000E-03 0. -1.
        -11    1    3    3    0    0  0.44477434187E+00  0.91058584499E+01 -0.49706131019E+00  0.91302547901E+01  0.51100000000E-03 0.  1.
        -12    1    3    3    0    0  0.14042467069E+02 -0.13562829791E+02  0.36757941565E+02  0.41620758059E+02  0.00000000000E+00 0.  1.
</event>
<event>
 7    1  0.4008281E-015  0.9000777E+02  0.7816164E-02  0.1186339E+00
        -11   -1    0    0    0    0  0.00000000000E+00  0.00000000000E+00  0.45593999997E+02  0.45594000000E+02  0.51100000000E-03 0.  1.
         11   -1    0    0    0    0 -0.00000000000E+00 -0.00000000000E+00 -0.45593999997E+02  0.45594000000E+02  0.51100000000E-03 0. -1.
    9900012    2    1    2    0    0  0.26582097876E-01  0.63152647930E+00  0.99670227291E+00  0.90007767937E+02  0.90000029674E+02 0.  0.
         12    1    1    2    0    0 -0.26582097876E-01 -0.63152647930E+00 -0.99670227291E+00  0.11802320631E+01  0.00000000000E+00 0. -1.
         11    1    3    3    0    0  0.37103228189E+02 -0.20498063077E+01  0.20048734871E+02  0.42223252103E+02  0.51100000000E-03 0. -1.
        -11    1    3    3    0    0 -0.44624712583E+01  0.36175433334E+01  0.47039537066E+01  0.74247862080E+01  0.51100000000E-03 0.  1.
        -12    1    3    3    0    0 -0.32614174833E+02 -0.93621054643E+00 -0.23755986305E+02  0.40359729626E+02  0.00000000000E+00 0.  1.
</event>
<event>
 7    1  0.4008281E-015  0.9000762E+02  0.7816164E-02  0.1186339E+00
        -11   -1    0    0    0    0  0.00000000000E+00  0.00000000000E+00  0.45593999997E+02  0.45594000000E+02  0.51100000000E-03 0.  1.
         11   -1    0    0    0    0 -0.00000000000E+00 -0.00000000000E+00 -0.45593999997E+02  0.45594000000E+02  0.51100000000E-03 0. -1.
    9900012    2    1    2    0    0 -0.11761154293E+01 -0.84545199790E-01  0.53961737879E-01  0.90007615629E+02  0.89999875355E+02 0.  0.
         12    1    1    2    0    0  0.11761154293E+01  0.84545199790E-01 -0.53961737879E-01  0.11803843709E+01  0.00000000000E+00 0. -1.
         11    1    3    3    0    0  0.29374089768E+02 -0.10013946961E+02 -0.25849500979E+02  0.40389515775E+02  0.51100000000E-03 0. -1.
        -11    1    3    3    0    0  0.44939423934E+01 -0.24754030353E+01  0.27264600970E+01  0.58100536438E+01  0.51100000000E-03 0.  1.
        -12    1    3    3    0    0 -0.35044147590E+02  0.12404804796E+02  0.23177002620E+02  0.43808046211E+02  0.00000000000E+00 0.  1.
</event>
<event>
 7    1  0.4008281E-015  0.9000744E+02  0.7816164E-02  0.1186340E+00
        -11   -1    0    0    0    0  0.00000000000E+00  0.00000000000E+00  0.45593999997E+02  0.45594000000E+02  0.51100000000E-03 0.  1.
         11   -1    0    0    0    0 -0.00000000000E+00 -0.00000000000E+00 -0.45593999997E+02  0.45594000000E+02  0.51100000000E-03 0. -1.
    9900012    2    1    2    0    0 -0.18306489358E+00 -0.38436655695E+00  0.11011176021E+01  0.90007444885E+02  0.89999702357E+02 0.  0.
         12    1    1    2    0    0  0.18306489358E+00  0.38436655695E+00 -0.11011176021E+01  0.11805551148E+01  0.00000000000E+00 0. -1.
         11    1    3    3    0    0 -0.32214232370E+01  0.25406829742E+02 -0.26815139855E+02  0.37080133373E+02  0.51100000000E-03 0. -1.
        -11    1    3    3    0    0  0.27352453158E+01 -0.12605059385E+02 -0.76484554485E+01  0.14995598023E+02  0.51100000000E-03 0.  1.
        -12    1    3    3    0    0  0.30311302760E+00 -0.13186136913E+02  0.35564712906E+02  0.37931713490E+02  0.00000000000E+00 0.  1.
</event>
<event>
 7    1  0.4008281E-015  0.9000773E+02  0.7816164E-02  0.1186339E+00
        -11   -1    0    0    0    0  0.00000000000E+00  0.00000000000E+00  0.45593999997E+02  0.45594000000E+02  0.51100000000E-03 0.  1.
         11   -1    0    0    0    0 -0.00000000000E+00 -0.00000000000E+00 -0.45593999997E+02  0.45594000000E+02  0.51100000000E-03 0. -1.
    9900012    2    1    2    0    0 -0.11522948705E+01 -0.20800227991E+00 -0.14829631003E+00  0.90007728755E+02  0.89999989974E+02 0.  0.
         12    1    1    2    0    0  0.11522948705E+01  0.20800227991E+00  0.14829631003E+00  0.11802712454E+01  0.00000000000E+00 0. -1.
         11    1    3    3    0    0  0.11705346347E+02  0.25968429100E+02 -0.23786868991E+02  0.37110504978E+02  0.51100000000E-03 0. -1.
        -11    1    3    3    0    0  0.22688934464E+01  0.87937915152E+01  0.61882380372E+01  0.10989674106E+02  0.51100000000E-03 0.  1.
        -12    1    3    3    0    0 -0.15126534664E+02 -0.34970222895E+02  0.17450334644E+02  0.41907549671E+02  0.00000000000E+00 0.  1.
</event>
<event>
 7    1  0.4008281E-015  0.9000777E+02  0.7816164E-02  0.1186339E+00
        -11   -1    0    0    0    0  0.00000000000E+00  0.00000000000E+00  0.45593999997E+02  0.45594000000E+02  0.51100000000E-03 0.  1.
         11   -1    0    0    0    0 -0.00000000000E+00 -0.00000000000E+00 -0.45593999997E+02  0.45594000000E+02  0.51100000000E-03 0. -1.
    9900012    2    1    2    0    0  0.10551766616E+00 -0.61736329276E+00  0.10003414223E+01  0.90007765119E+02  0.90000026819E+02 0.  0.
         12    1    1    2    0    0 -0.10551766616E+00  0.61736329276E+00 -0.10003414223E+01  0.11802348810E+01  0.00000000000E+00 0. -1.
         11    1    3    3    0    0 -0.35239310777E+02  0.12089288259E+02  0.21872291188E+02  0.43201354570E+02  0.51100000000E-03 0. -1.
        -11    1    3    3    0    0  0.39350185733E+01  0.29523390762E+01 -0.80631933431E+01  0.94454096969E+01  0.51100000000E-03 0.  1.
        -12    1    3    3    0    0  0.31409809870E+02 -0.15658990628E+02 -0.12808756423E+02  0.37361000852E+02  0.00000000000E+00 0.  1.
</event>
<event>
 7    1  0.4008281E-015  0.9000792E+02  0.7816164E-02  0.1186339E+00
        -11   -1    0    0    0    0  0.00000000000E+00  0.00000000000E+00  0.45593999997E+02  0.45594000000E+02  0.51100000000E-03 0. -1.
         11   -1    0    0    0    0 -0.00000000000E+00 -0.00000000000E+00 -0.45593999997E+02  0.45594000000E+02  0.51100000000E-03 0.  1.
    9900012    2    1    2    0    0  0.41777488744E+00  0.10955700706E+01 -0.13336960635E+00  0.90007916491E+02  0.90000180189E+02 0.  0.
         12    1    1    2    0    0 -0.41777488744E+00 -0.10955700706E+01  0.13336960635E+00  0.11800835090E+01  0.00000000000E+00 0. -1.
         11    1    3    3    0    0  0.19979757783E+02 -0.38228233289E+01  0.33254893854E+02  0.38983235689E+02  0.51100000000E-03 0. -1.
        -11    1    3    3    0    0  0.90130861988E+01 -0.20365157298E+00 -0.45243098355E+01  0.10086950805E+02  0.51100000000E-03 0.  1.
        -12    1    3    3    0    0 -0.28575069094E+02  0.51220449725E+01 -0.28863953625E+02  0.40937729997E+02  0.00000000000E+00 0.  1.
</event>
<event>
 7    1  0.4008281E-015  0.9000781E+02  0.7816164E-02  0.1186339E+00
        -11   -1    0    0    0    0  0.00000000000E+00  0.00000000000E+00  0.45593999997E+02  0.45594000000E+02  0.51100000000E-03 0.  1.
         11   -1    0    0    0    0 -0.00000000000E+00 -0.00000000000E+00 -0.45593999997E+02  0.45594000000E+02  0.51100000000E-03 0. -1.
    9900012    2    1    2    0    0  0.46318407384E+00  0.38710628083E+00  0.10141314863E+01  0.90007807884E+02  0.90000070148E+02 0.  0.
         12    1    1    2    0    0 -0.46318407384E+00 -0.38710628083E+00 -0.10141314863E+01  0.11801921159E+01  0.00000000000E+00 0. -1.
         11    1    3    3    0    0 -0.80422596599E+01  0.18541476991E+01  0.76396527478E+01  0.11246337115E+02  0.51100000000E-03 0. -1.
        -11    1    3    3    0    0  0.10788479322E+02  0.44858942335E+01  0.34871848407E+02  0.36777171516E+02  0.51100000000E-03 0.  1.
         12    1    3    3    0    0 -0.22830355886E+01 -0.59529356518E+01 -0.41497369669E+02  0.41984299253E+02  0.00000000000E+00 0. -1.
</event>
<event>
 7    1  0.4008281E-015  0.9000774E+02  0.7816164E-02  0.1186339E+00
        -11   -1    0    0    0    0  0.00000000000E+00  0.00000000000E+00  0.45593999997E+02  0.45594000000E+02  0.51100000000E-03 0.  1.
         11   -1    0    0    0    0 -0.00000000000E+00 -0.00000000000E+00 -0.45593999997E+02  0.45594000000E+02  0.51100000000E-03 0. -1.
    9900012    2    1    2    0    0  0.26488964479E+00 -0.24261825381E+00  0.11242672096E+01  0.90007742867E+02  0.90000004273E+02 0.  0.
         12    1    1    2    0    0 -0.26488964479E+00  0.24261825381E+00 -0.11242672096E+01  0.11802571329E+01  0.00000000000E+00 0. -1.
         11    1    3    3    0    0  0.93196274040E+01  0.87218651646E+00 -0.47460226522E+01  0.10494803264E+02  0.51100000000E-03 0. -1.
        -11    1    3    3    0    0  0.26444659550E+02 -0.16694211033E+02 -0.15865809081E+02  0.35067657446E+02  0.51100000000E-03 0.  1.
         12    1    3    3    0    0 -0.35499397309E+02  0.15579406262E+02  0.21736098943E+02  0.44445282157E+02  0.00000000000E+00 0. -1.
</event>
<event>
 7    1  0.4008281E-015  0.9000767E+02  0.7816164E-02  0.1186339E+00
        -11   -1    0    0    0    0  0.00000000000E+00  0.00000000000E+00  0.45593999997E+02  0.45594000000E+02  0.51100000000E-03 0.  1.
         11   -1    0    0    0    0 -0.00000000000E+00 -0.00000000000E+00 -0.45593999997E+02  0.45594000000E+02  0.51100000000E-03 0. -1.
    9900012    2    1    2    0    0 -0.34900283334E-01 -0.10321589180E+01 -0.57149747522E+00  0.90007669781E+02  0.89999930222E+02 0.  0.
         12    1    1    2    0    0  0.34900283334E-01  0.10321589180E+01  0.57149747522E+00  0.11803302191E+01  0.00000000000E+00 0. -1.
         11    1    3    3    0    0  0.15298751056E+02  0.23448357002E+02 -0.20758330736E+02  0.34853773471E+02  0.51100000000E-03 0. -1.
        -11    1    3    3    0    0  0.26792461364E+01  0.10494872509E+02 -0.22231006424E+00  0.10833749621E+02  0.51100000000E-03 0.  1.
        -12    1    3    3    0    0 -0.18012897476E+02 -0.34975388428E+02  0.20409143325E+02  0.44320146688E+02  0.00000000000E+00 0.  1.
</event>
<event>
 7    1  0.4008281E-015  0.9000769E+02  0.7816164E-02  0.1186339E+00
        -11   -1    0    0    0    0  0.00000000000E+00  0.00000000000E+00  0.45593999997E+02  0.45594000000E+02  0.51100000000E-03 0.  1.
         11   -1    0    0    0    0 -0.00000000000E+00 -0.00000000000E+00 -0.45593999997E+02  0.45594000000E+02  0.51100000000E-03 0. -1.
    9900012    2    1    2    0    0  0.23838104985E+00 -0.11088252431E+01 -0.32683291192E+00  0.90007687034E+02  0.89999947703E+02 0.  0.
         12    1    1    2    0    0 -0.23838104985E+00  0.11088252431E+01  0.32683291192E+00  0.11803129657E+01  0.00000000000E+00 0. -1.
         11    1    3    3    0    0 -0.60595761252E+01 -0.61672362400E+01  0.35869844657E+01  0.93605407683E+01  0.51100000000E-03 0. -1.
        -11    1    3    3    0    0  0.25227713569E+02  0.17973882716E+02  0.27731596824E+02  0.41575707505E+02  0.51100000000E-03 0.  1.
         12    1    3    3    0    0 -0.18929756394E+02 -0.12915471720E+02 -0.31645414202E+02  0.39071438761E+02  0.00000000000E+00 0. -1.
</event>
<event>
 7    1  0.4008281E-015  0.9000779E+02  0.7816164E-02  0.1186339E+00
        -11   -1    0    0    0    0  0.00000000000E+00  0.00000000000E+00  0.45593999997E+02  0.45594000000E+02  0.51100000000E-03 0.  1.
         11   -1    0    0    0    0 -0.00000000000E+00 -0.00000000000E+00 -0.45593999997E+02  0.45594000000E+02  0.51100000000E-03 0. -1.
    9900012    2    1    2    0    0 -0.48815322346E+00 -0.30826782399E+00  0.10293611928E+01  0.90007785153E+02  0.90000047117E+02 0.  0.
         12    1    1    2    0    0  0.48815322346E+00  0.30826782399E+00 -0.10293611928E+01  0.11802148475E+01  0.00000000000E+00 0. -1.
         11    1    3    3    0    0 -0.11915973287E+02  0.81609337829E+01 -0.15705575744E+02  0.21336737551E+02  0.51100000000E-03 0. -1.
        -11    1    3    3    0    0 -0.19294028154E+02 -0.50270257951E+01 -0.14554820616E+02  0.24685487927E+02  0.51100000000E-03 0.  1.
        -12    1    3    3    0    0  0.30721848218E+02 -0.34421758117E+01  0.31289757553E+02  0.43985559675E+02  0.00000000000E+00 0.  1.
</event>
<event>
 7    1  0.4008281E-015  0.9000853E+02  0.7816164E-02  0.1186337E+00
        -11   -1    0    0    0    0  0.00000000000E+00  0.00000000000E+00  0.45593999997E+02  0.45594000000E+02  0.51100000000E-03 0. -1.
         11   -1    0    0    0    0 -0.00000000000E+00 -0.00000000000E+00 -0.45593999997E+02  0.45594000000E+02  0.51100000000E-03 0.  1.
    9900012    2    1    2    0    0 -0.65247577528E+00  0.68035885263E+00  0.70890513848E+00  0.90008525837E+02  0.90000797575E+02 0.  0.
         12    1    1    2    0    0  0.65247577528E+00 -0.68035885263E+00 -0.70890513848E+00  0.11794741629E+01  0.00000000000E+00 0. -1.
         11    1    3    3    0    0 -0.62020194382E+01 -0.49639600216E+01  0.59157420586E+01  0.99046427787E+01  0.51100000000E-03 0. -1.
        -11    1    3    3    0    0  0.51790087479E+01  0.41515987182E+02  0.65617939825E+01  0.42349220345E+02  0.51100000000E-03 0.  1.
         12    1    3    3    0    0  0.37053491500E+00 -0.35871668308E+02 -0.11768630903E+02  0.37754662714E+02  0.00000000000E+00 0. -1.
</event>
<event>
 7    1  0.4008281E-015  0.9000772E+02  0.7816164E-02  0.1186339E+00
        -11   -1    0    0    0    0  0.00000000000E+00  0.00000000000E+00  0.45593999997E+02  0.45594000000E+02  0.51100000000E-03 0. -1.
         11   -1    0    0    0    0 -0.00000000000E+00 -0.00000000000E+00 -0.45593999997E+02  0.45594000000E+02  0.51100000000E-03 0.  1.
    9900012    2    1    2    0    0 -0.11560739235E+01  0.21248345546E+00 -0.10676013047E+00  0.90007722973E+02  0.89999984116E+02 0.  0.
         12    1    1    2    0    0  0.11560739235E+01 -0.21248345546E+00  0.10676013047E+00  0.11802770272E+01  0.00000000000E+00 0. -1.
         11    1    3    3    0    0 -0.23073329410E+02 -0.24398172321E+02  0.15620447198E+02  0.37035762630E+02  0.51100000000E-03 0. -1.
        -11    1    3    3    0    0 -0.87355764868E+01  0.32914646226E+01  0.46570972688E+01  0.10432285998E+02  0.51100000000E-03 0.  1.
        -12    1    3    3    0    0  0.30652831973E+02  0.21319191154E+02 -0.20384304597E+02  0.42539674345E+02  0.00000000000E+00 0.  1.
</event>
<event>
 7    1  0.4008281E-015  0.9000774E+02  0.7816164E-02  0.1186339E+00
        -11   -1    0    0    0    0  0.00000000000E+00  0.00000000000E+00  0.45593999997E+02  0.45594000000E+02  0.51100000000E-03 0.  1.
         11   -1    0    0    0    0 -0.00000000000E+00 -0.00000000000E+00 -0.45593999997E+02  0.45594000000E+02  0.51100000000E-03 0. -1.
    9900012    2    1    2    0    0 -0.60543133389E+00 -0.48447990563E+00  0.88980375266E+00  0.90007737912E+02  0.89999999252E+02 0.  0.
         12    1    1    2    0    0  0.60543133389E+00  0.48447990563E+00 -0.88980375266E+00  0.11802620884E+01  0.00000000000E+00 0. -1.
         11    1    3    3    0    0 -0.88599439324E+01 -0.31947216570E+01  0.16205798678E+01  0.95567323035E+01  0.51100000000E-03 0. -1.
        -11    1    3    3    0    0  0.66407866669E+01  0.40489606362E+02  0.76047307071E+01  0.41729368559E+02  0.51100000000E-03 0.  1.
         12    1    3    3    0    0  0.16137259316E+01 -0.37779364611E+02 -0.83355068222E+01  0.38721637049E+02  0.00000000000E+00 0. -1.
</event>
<event>
 7    1  0.4008281E-015  0.9000782E+02  0.7816164E-02  0.1186339E+00
        -11   -1    0    0    0    0  0.00000000000E+00  0.00000000000E+00  0.45593999997E+02  0.45594000000E+02  0.51100000000E-03 0. -1.
         11   -1    0    0    0    0 -0.00000000000E+00 -0.00000000000E+00 -0.45593999997E+02  0.45594000000E+02  0.51100000000E-03 0.  1.
    9900012    2    1    2    0    0  0.86514488558E+00  0.79227895637E+00 -0.12902185124E+00  0.90007818550E+02  0.90000080954E+02 0.  0.
         12    1    1    2    0    0 -0.86514488558E+00 -0.79227895637E+00  0.12902185124E+00  0.11801814504E+01  0.00000000000E+00 0. -1.
         11    1    3    3    0    0  0.11196294796E+01  0.14122170262E+01 -0.98920762597E+01  0.10054904280E+02  0.51100000000E-03 0. -1.
        -11    1    3    3    0    0  0.18659989258E+02  0.18220195331E+02 -0.24996312839E+02  0.36124595124E+02  0.51100000000E-03 0.  1.
         12    1    3    3    0    0 -0.18914473852E+02 -0.18840133401E+02  0.34759367248E+02  0.43828319146E+02  0.00000000000E+00 0. -1.
</event>
<event>
 7    1  0.4008281E-015  0.9000765E+02  0.7816164E-02  0.1186339E+00
        -11   -1    0    0    0    0  0.00000000000E+00  0.00000000000E+00  0.45593999997E+02  0.45594000000E+02  0.51100000000E-03 0. -1.
         11   -1    0    0    0    0 -0.00000000000E+00 -0.00000000000E+00 -0.45593999997E+02  0.45594000000E+02  0.51100000000E-03 0.  1.
    9900012    2    1    2    0    0  0.41891538417E+00 -0.24879799414E+00 -0.10750979387E+01  0.90007650002E+02  0.89999910182E+02 0.  0.
         12    1    1    2    0    0 -0.41891538417E+00  0.24879799414E+00  0.10750979387E+01  0.11803499984E+01  0.00000000000E+00 0. -1.
         11    1    3    3    0    0 -0.12176093796E+01 -0.99041759921E+01  0.14469897602E+01  0.10083107374E+02  0.51100000000E-03 0. -1.
        -11    1    3    3    0    0  0.35388649505E+01 -0.28579832019E+02 -0.22682297535E+02  0.36658109404E+02  0.51100000000E-03 0.  1.
         12    1    3    3    0    0 -0.19023401868E+01  0.38235210017E+02  0.20160209836E+02  0.43266433223E+02  0.00000000000E+00 0. -1.
</event>
<event>
 7    1  0.4008281E-015  0.9000773E+02  0.7816164E-02  0.1186339E+00
        -11   -1    0    0    0    0  0.00000000000E+00  0.00000000000E+00  0.45593999997E+02  0.45594000000E+02  0.51100000000E-03 0.  1.
         11   -1    0    0    0    0 -0.00000000000E+00 -0.00000000000E+00 -0.45593999997E+02  0.45594000000E+02  0.51100000000E-03 0. -1.
    9900012    2    1    2    0    0 -0.38987838346E+00 -0.11083253353E+01  0.11247744872E+00  0.90007728260E+02  0.89999989473E+02 0.  0.
         12    1    1    2    0    0  0.38987838346E+00  0.11083253353E+01 -0.11247744872E+00  0.11802717396E+01  0.00000000000E+00 0. -1.
         11    1    3    3    0    0 -0.13748814297E+02  0.32470315975E+02 -0.12814805726E+02  0.37517603336E+02  0.51100000000E-03 0. -1.
        -11    1    3    3    0    0 -0.53156303434E+01  0.47715857546E+01  0.58897136878E+01  0.92581145028E+01  0.51100000000E-03 0.  1.
        -12    1    3    3    0    0  0.18674566257E+02 -0.38350227064E+02  0.70375694867E+01  0.43232010421E+02  0.00000000000E+00 0.  1.
</event>
<event>
 7    1  0.4008281E-015  0.9000832E+02  0.7816164E-02  0.1186338E+00
        -11   -1    0    0    0    0  0.00000000000E+00  0.00000000000E+00  0.45593999997E+02  0.45594000000E+02  0.51100000000E-03 0. -1.
         11   -1    0    0    0    0 -0.00000000000E+00 -0.00000000000E+00 -0.45593999997E+02  0.45594000000E+02  0.51100000000E-03 0.  1.
    9900012    2    1    2    0    0  0.89157152573E+00  0.70388778934E+00  0.31824422561E+00  0.90008323268E+02  0.90000592333E+02 0.  0.
         12    1    1    2    0    0 -0.89157152573E+00 -0.70388778934E+00 -0.31824422561E+00  0.11796767322E+01  0.00000000000E+00 0. -1.
         11    1    3    3    0    0 -0.76739315135E+01 -0.26896009413E+01 -0.64608620879E+01  0.10385851784E+02  0.51100000000E-03 0. -1.
        -11    1    3    3    0    0 -0.25827462781E+02  0.24795730579E+02 -0.76671691052E+01  0.36615182247E+02  0.51100000000E-03 0.  1.
         12    1    3    3    0    0  0.34392965820E+02 -0.21402241848E+02  0.14446275419E+02  0.43007289237E+02  0.00000000000E+00 0. -1.
</event>
<event>
 7    1  0.4008281E-015  0.9000772E+02  0.7816164E-02  0.1186339E+00
        -11   -1    0    0    0    0  0.00000000000E+00  0.00000000000E+00  0.45593999997E+02  0.45594000000E+02  0.51100000000E-03 0.  1.
         11   -1    0    0    0    0 -0.00000000000E+00 -0.00000000000E+00 -0.45593999997E+02  0.45594000000E+02  0.51100000000E-03 0. -1.
    9900012    2    1    2    0    0 -0.16738181944E+00 -0.10426955423E+01  0.52710064641E+00  0.90007717933E+02  0.89999979009E+02 0.  0.
         12    1    1    2    0    0  0.16738181944E+00  0.10426955423E+01 -0.52710064641E+00  0.11802820675E+01  0.00000000000E+00 0. -1.
         11    1    3    3    0    0 -0.94715662261E+01  0.17883026766E+02 -0.30496393815E+02  0.36599771161E+02  0.51100000000E-03 0. -1.
        -11    1    3    3    0    0 -0.67496759332E+01  0.31448302836E+01 -0.44316544163E+01  0.86653126801E+01  0.51100000000E-03 0.  1.
        -12    1    3    3    0    0  0.16053860340E+02 -0.22070552592E+02  0.35455148877E+02  0.44742634091E+02  0.00000000000E+00 0.  1.
</event>
<event>
 7    1  0.4008281E-015  0.9000798E+02  0.7816164E-02  0.1186339E+00
        -11   -1    0    0    0    0  0.00000000000E+00  0.00000000000E+00  0.45593999997E+02  0.45594000000E+02  0.51100000000E-03 0. -1.
         11   -1    0    0    0    0 -0.00000000000E+00 -0.00000000000E+00 -0.45593999997E+02  0.45594000000E+02  0.51100000000E-03 0.  1.
    9900012    2    1    2    0    0  0.47411138031E+00 -0.43974985353E+00 -0.98705564008E+00  0.90007982894E+02  0.90000247468E+02 0.  0.
         12    1    1    2    0    0 -0.47411138031E+00  0.43974985353E+00  0.98705564008E+00  0.11800171063E+01  0.00000000000E+00 0. -1.
         11    1    3    3    0    0  0.34337094703E+02  0.19835988099E+02 -0.18977223601E+02  0.43961773307E+02  0.51100000000E-03 0. -1.
        -11    1    3    3    0    0 -0.90791132275E+01 -0.11220870874E+02  0.60312024192E+00  0.14446521881E+02  0.51100000000E-03 0.  1.
        -12    1    3    3    0    0 -0.24783870095E+02 -0.90548670785E+01  0.17387047719E+02  0.31599687705E+02  0.00000000000E+00 0.  1.
</event>
<event>
 7    1  0.4008281E-015  0.9000778E+02  0.7816164E-02  0.1186339E+00
        -11   -1    0    0    0    0  0.00000000000E+00  0.00000000000E+00  0.45593999997E+02  0.45594000000E+02  0.51100000000E-03 0. -1.
         11   -1    0    0    0    0 -0.00000000000E+00 -0.00000000000E+00 -0.45593999997E+02  0.45594000000E+02  0.51100000000E-03 0.  1.
    9900012    2    1    2    0    0 -0.46351679830E+00  0.59591316675E+00 -0.90717079447E+00  0.90007780031E+02  0.90000041928E+02 0.  0.
         12    1    1    2    0    0  0.46351679830E+00 -0.59591316675E+00  0.90717079447E+00  0.11802199689E+01  0.00000000000E+00 0. -1.
         11    1    3    3    0    0 -0.36827965073E+01  0.74558993673E+01 -0.46479113556E+01  0.95266208972E+01  0.51100000000E-03 0. -1.
        -11    1    3    3    0    0 -0.78473590751E+01  0.33771224382E+02  0.13579960011E+02  0.37235627494E+02  0.51100000000E-03 0.  1.
         12    1    3    3    0    0  0.11066638784E+02 -0.40631210583E+02 -0.98392194501E+01  0.43245531640E+02  0.00000000000E+00 0. -1.
</event>
<event>
 7    1  0.4008281E-015  0.9000780E+02  0.7816164E-02  0.1186339E+00
        -11   -1    0    0    0    0  0.00000000000E+00  0.00000000000E+00  0.45593999997E+02  0.45594000000E+02  0.51100000000E-03 0.  1.
         11   -1    0    0    0    0 -0.00000000000E+00 -0.00000000000E+00 -0.45593999997E+02  0.45594000000E+02  0.51100000000E-03 0. -1.
    9900012    2    1    2    0    0  0.96502625296E+00  0.37881410445E-01  0.67834937168E+00  0.90007801483E+02  0.90000063662E+02 0.  0.
         12    1    1    2    0    0 -0.96502625296E+00 -0.37881410445E-01 -0.67834937168E+00  0.11801985173E+01  0.00000000000E+00 0. -1.
         11    1    3    3    0    0  0.98406747704E+00 -0.11753699986E+02 -0.19455723933E+02  0.22751770176E+02  0.51100000000E-03 0. -1.
        -11    1    3    3    0    0 -0.27287467901E+00  0.11790419204E+02 -0.22084738818E+02  0.25036456110E+02  0.51100000000E-03 0.  1.
        -12    1    3    3    0    0  0.25383345492E+00  0.11621922244E-02  0.42218812122E+02  0.42219575197E+02  0.00000000000E+00 0.  1.
</event>
<event>
 7    1  0.4008281E-015  0.9000793E+02  0.7816164E-02  0.1186339E+00
        -11   -1    0    0    0    0  0.00000000000E+00  0.00000000000E+00  0.45593999997E+02  0.45594000000E+02  0.51100000000E-03 0. -1.
         11   -1    0    0    0    0 -0.00000000000E+00 -0.00000000000E+00 -0.45593999997E+02  0.45594000000E+02  0.51100000000E-03 0.  1.
    9900012    2    1    2    0    0  0.96432014279E+00 -0.35551158785E+00 -0.57989094126E+00  0.90007925710E+02  0.90000189529E+02 0.  0.
         12    1    1    2    0    0 -0.96432014279E+00  0.35551158785E+00  0.57989094126E+00  0.11800742903E+01  0.00000000000E+00 0. -1.
         11    1    3    3    0    0  0.52249014703E+01 -0.51389928516E+01 -0.51976770431E+01  0.89846919706E+01  0.51100000000E-03 0. -1.
        -11    1    3    3    0    0  0.29314769889E+02 -0.16243091095E+02  0.19417843722E+02  0.38733014303E+02  0.51100000000E-03 0.  1.
         12    1    3    3    0    0 -0.33575351216E+02  0.21026572358E+02 -0.14800057620E+02  0.42290219436E+02  0.00000000000E+00 0. -1.
</event>
<event>
 7    1  0.4008281E-015  0.9000764E+02  0.7816164E-02  0.1186339E+00
        -11   -1    0    0    0    0  0.00000000000E+00  0.00000000000E+00  0.45593999997E+02  0.45594000000E+02  0.51100000000E-03 0. -1.
         11   -1    0    0    0    0 -0.00000000000E+00 -0.00000000000E+00 -0.45593999997E+02  0.45594000000E+02  0.51100000000E-03 0.  1.
    9900012    2    1    2    0    0  0.28234775752E+00  0.47209713574E+00 -0.10443427349E+01  0.90007640856E+02  0.89999900915E+02 0.  0.
         12    1    1    2    0    0 -0.28234775752E+00 -0.47209713574E+00  0.10443427349E+01  0.11803591444E+01  0.00000000000E+00 0. -1.
         11    1    3    3    0    0  0.12674888520E+01  0.79275862321E+00 -0.76869711383E+01  0.78309973673E+01  0.51100000000E-03 0. -1.
        -11    1    3    3    0    0  0.18848573058E+02  0.30136584280E+02 -0.16395338336E+02  0.39144470079E+02  0.51100000000E-03 0.  1.
         12    1    3    3    0    0 -0.19833714152E+02 -0.30457245767E+02  0.23037966740E+02  0.43032173409E+02  0.00000000000E+00 0. -1.
</event>
<event>
 7    1  0.4008281E-015  0.9000770E+02  0.7816164E-02  0.1186339E+00
        -11   -1    0    0    0    0  0.00000000000E+00  0.00000000000E+00  0.45593999997E+02  0.45594000000E+02  0.51100000000E-03 0. -1.
         11   -1    0    0    0    0 -0.00000000000E+00 -0.00000000000E+00 -0.45593999997E+02  0.45594000000E+02  0.51100000000E-03 0.  1.
    9900012    2    1    2    0    0  0.41863181440E-01 -0.97498063523E+00 -0.66390664044E+00  0.90007698432E+02  0.89999959251E+02 0.  0.
         12    1    1    2    0    0 -0.41863181440E-01  0.97498063523E+00  0.66390664044E+00  0.11803015683E+01  0.00000000000E+00 0. -1.
         11    1    3    3    0    0  0.13052690193E+02 -0.36306383015E+02  0.15739364949E+02  0.41668378636E+02  0.51100000000E-03 0. -1.
        -11    1    3    3    0    0 -0.99863826792E+01  0.11804584757E+00 -0.20634069899E+01  0.10198010713E+02  0.51100000000E-03 0.  1.
        -12    1    3    3    0    0 -0.30244443323E+01  0.35213356532E+02 -0.14339864600E+02  0.38141309082E+02  0.00000000000E+00 0.  1.
</event>
<event>
 7    1  0.4008281E-015  0.9000770E+02  0.7816164E-02  0.1186339E+00
        -11   -1    0    0    0    0  0.00000000000E+00  0.00000000000E+00  0.45593999997E+02  0.45594000000E+02  0.51100000000E-03 0.  1.
         11   -1    0    0    0    0 -0.00000000000E+00 -0.00000000000E+00 -0.45593999997E+02  0.45594000000E+02  0.51100000000E-03 0. -1.
    9900012    2    1    2    0    0 -0.11662302455E+01 -0.16523699618E+00  0.75543226997E-01  0.90007702144E+02  0.89999963012E+02 0.  0.
         12    1    1    2    0    0  0.11662302455E+01  0.16523699618E+00 -0.75543226997E-01  0.11802978563E+01  0.00000000000E+00 0. -1.
         11    1    3    3    0    0 -0.38483485611E+01 -0.88839895949E+01  0.26984982737E+01  0.10050718928E+02  0.51100000000E-03 0. -1.
        -11    1    3    3    0    0 -0.74471674044E+01 -0.11349039058E+02  0.34210879071E+02  0.36805505525E+02  0.51100000000E-03 0.  1.
         12    1    3    3    0    0  0.10129285720E+02  0.20067791657E+02 -0.36833834117E+02  0.43151477691E+02  0.00000000000E+00 0. -1.
</event>
<event>
 7    1  0.4008281E-015  0.9000779E+02  0.7816164E-02  0.1186339E+00
        -11   -1    0    0    0    0  0.00000000000E+00  0.00000000000E+00  0.45593999997E+02  0.45594000000E+02  0.51100000000E-03 0.  1.
         11   -1    0    0    0    0 -0.00000000000E+00 -0.00000000000E+00 -0.45593999997E+02  0.45594000000E+02  0.51100000000E-03 0. -1.
    9900012    2    1    2    0    0 -0.17958686797E+00  0.26015525243E+00  0.11370826935E+01  0.90007792709E+02  0.90000054772E+02 0.  0.
         12    1    1    2    0    0  0.17958686797E+00 -0.26015525243E+00 -0.11370826935E+01  0.11802072913E+01  0.00000000000E+00 0. -1.
         11    1    3    3    0    0 -0.23943506743E+02 -0.14768532516E+02 -0.26333857218E+02  0.38534051228E+02  0.51100000000E-03 0. -1.
        -11    1    3    3    0    0  0.51767029763E+01 -0.67370768332E+01 -0.36011548168E+01  0.92279344512E+01  0.51100000000E-03 0.  1.
        -12    1    3    3    0    0  0.18587216898E+02  0.21765764601E+02  0.31072094729E+02  0.42245807029E+02  0.00000000000E+00 0.  1.
</event>
<event>
 7    1  0.4008281E-015  0.9000772E+02  0.7816164E-02  0.1186339E+00
        -11   -1    0    0    0    0  0.00000000000E+00  0.00000000000E+00  0.45593999997E+02  0.45594000000E+02  0.51100000000E-03 0.  1.
         11   -1    0    0    0    0 -0.00000000000E+00 -0.00000000000E+00 -0.45593999997E+02  0.45594000000E+02  0.51100000000E-03 0. -1.
    9900012    2    1    2    0    0 -0.67004188553E+00  0.94928799364E+00  0.20725600050E+00  0.90007720850E+02  0.89999981965E+02 0.  0.
         12    1    1    2    0    0  0.67004188553E+00 -0.94928799364E+00 -0.20725600050E+00  0.11802791504E+01  0.00000000000E+00 0. -1.
         11    1    3    3    0    0 -0.16872521097E+02 -0.29010880806E+02 -0.17152444565E+02  0.37689780154E+02  0.51100000000E-03 0. -1.
        -11    1    3    3    0    0  0.14835578555E+01 -0.28335835142E+01 -0.78078812461E+01  0.84376032887E+01  0.51100000000E-03 0.  1.
        -12    1    3    3    0    0  0.14718921356E+02  0.32793752313E+02  0.25167581811E+02  0.43880337406E+02  0.00000000000E+00 0.  1.
</event>
<event>
 7    1  0.4008281E-015  0.9000774E+02  0.7816164E-02  0.1186339E+00
        -11   -1    0    0    0    0  0.00000000000E+00  0.00000000000E+00  0.45593999997E+02  0.45594000000E+02  0.51100000000E-03 0.  1.
         11   -1    0    0    0    0 -0.00000000000E+00 -0.00000000000E+00 -0.45593999997E+02  0.45594000000E+02  0.51100000000E-03 0. -1.
    9900012    2    1    2    0    0 -0.71409082761E+00 -0.59492795146E+00  0.72742142861E+00  0.90007742862E+02  0.90000004268E+02 0.  0.
         12    1    1    2    0    0  0.71409082761E+00  0.59492795146E+00 -0.72742142861E+00  0.11802571382E+01  0.00000000000E+00 0. -1.
         11    1    3    3    0    0 -0.50563857206E+01  0.25476162816E+01  0.69063941218E+01  0.89306027401E+01  0.51100000000E-03 0. -1.
        -11    1    3    3    0    0 -0.18549274587E+02  0.30154208371E+02  0.11141806493E+02  0.37114575605E+02  0.51100000000E-03 0.  1.
         12    1    3    3    0    0  0.22891569480E+02 -0.33296752604E+02 -0.17320779187E+02  0.43962564516E+02  0.00000000000E+00 0. -1.
</event>
<event>
 7    1  0.4008281E-015  0.9000783E+02  0.7816164E-02  0.1186339E+00
        -11   -1    0    0    0    0  0.00000000000E+00  0.00000000000E+00  0.45593999997E+02  0.45594000000E+02  0.51100000000E-03 0.  1.
         11   -1    0    0    0    0 -0.00000000000E+00 -0.00000000000E+00 -0.45593999997E+02  0.45594000000E+02  0.51100000000E-03 0. -1.
    9900012    2    1    2    0    0 -0.11608612066E+01 -0.16617626357E+00  0.13263311336E+00  0.90007828472E+02  0.90000091008E+02 0.  0.
         12    1    1    2    0    0  0.11608612066E+01  0.16617626357E+00 -0.13263311336E+00  0.11801715275E+01  0.00000000000E+00 0. -1.
         11    1    3    3    0    0  0.27710525324E+01  0.16383048756E+02 -0.36154120460E+02  0.39789489129E+02  0.51100000000E-03 0. -1.
        -11    1    3    3    0    0 -0.21777693440E+01  0.84513945987E+01  0.47515056519E+01  0.99370798628E+01  0.51100000000E-03 0.  1.
        -12    1    3    3    0    0 -0.17541443950E+01 -0.25000619618E+02  0.31535247921E+02  0.40281259480E+02  0.00000000000E+00 0.  1.
</event>
<event>
 7    1  0.4008281E-015  0.9000774E+02  0.7816164E-02  0.1186339E+00
        -11   -1    0    0    0    0  0.00000000000E+00  0.00000000000E+00  0.45593999997E+02  0.45594000000E+02  0.51100000000E-03 0. -1.
         11   -1    0    0    0    0 -0.00000000000E+00 -0.00000000000E+00 -0.45593999997E+02  0.45594000000E+02  0.51100000000E-03 0.  1.
    9900012    2    1    2    0    0  0.86803899852E+00  0.76320055110E+00 -0.23882434269E+00  0.90007744159E+02  0.90000005582E+02 0.  0.
         12    1    1    2    0    0 -0.86803899852E+00 -0.76320055110E+00  0.23882434269E+00  0.11802558412E+01  0.00000000000E+00 0. -1.
         11    1    3    3    0    0  0.44966200753E+00  0.26536758641E+02  0.19563116361E+02  0.32971461555E+02  0.51100000000E-03 0. -1.
        -11    1    3    3    0    0  0.55252933433E+01  0.13431132842E+01  0.12989677666E+02  0.14179723056E+02  0.51100000000E-03 0.  1.
        -12    1    3    3    0    0 -0.51069163523E+01 -0.27116671374E+02 -0.32791618369E+02  0.42856559548E+02  0.00000000000E+00 0.  1.
</event>
<event>
 7    1  0.4008281E-015  0.9000779E+02  0.7816164E-02  0.1186339E+00
        -11   -1    0    0    0    0  0.00000000000E+00  0.00000000000E+00  0.45593999997E+02  0.45594000000E+02  0.51100000000E-03 0.  1.
         11   -1    0    0    0    0 -0.00000000000E+00 -0.00000000000E+00 -0.45593999997E+02  0.45594000000E+02  0.51100000000E-03 0. -1.
    9900012    2    1    2    0    0  0.38779479689E+00  0.93322865036E+00  0.60958239331E+00  0.90007791877E+02  0.90000053930E+02 0.  0.
         12    1    1    2    0    0 -0.38779479689E+00 -0.93322865036E+00 -0.60958239331E+00  0.11802081226E+01  0.00000000000E+00 0. -1.
         11    1    3    3    0    0 -0.71556110218E+01 -0.74494508005E+01 -0.15951934464E+01  0.10451876804E+02  0.51100000000E-03 0. -1.
        -11    1    3    3    0    0 -0.35681716665E+02  0.34496645672E+01  0.35958791623E+01  0.36027981307E+02  0.51100000000E-03 0.  1.
         12    1    3    3    0    0  0.43225122484E+02  0.49330148836E+01 -0.13911033226E+01  0.43527933767E+02  0.00000000000E+00 0. -1.
</event>
<event>
 7    1  0.4008281E-015  0.9000771E+02  0.7816164E-02  0.1186339E+00
        -11   -1    0    0    0    0  0.00000000000E+00  0.00000000000E+00  0.45593999997E+02  0.45594000000E+02  0.51100000000E-03 0. -1.
         11   -1    0    0    0    0 -0.00000000000E+00 -0.00000000000E+00 -0.45593999997E+02  0.45594000000E+02  0.51100000000E-03 0.  1.
    9900012    2    1    2    0    0 -0.32694890097E+00 -0.11238943216E+01 -0.15186193257E+00  0.90007705089E+02  0.89999965996E+02 0.  0.
         12    1    1    2    0    0  0.32694890097E+00  0.11238943216E+01  0.15186193257E+00  0.11802949109E+01  0.00000000000E+00 0. -1.
         11    1    3    3    0    0  0.27693690448E+00 -0.68890410198E+01  0.88439779024E+01  0.11213898770E+02  0.51100000000E-03 0. -1.
        -11    1    3    3    0    0  0.20212769249E+02 -0.25216588806E+01 -0.37417551313E+02  0.42602675394E+02  0.51100000000E-03 0.  1.
         12    1    3    3    0    0 -0.20816655054E+02  0.82868055787E+01  0.28421711478E+02  0.36191130925E+02  0.00000000000E+00 0. -1.
</event>
<event>
 7    1  0.4008281E-015  0.9000755E+02  0.7816164E-02  0.1186339E+00
        -11   -1    0    0    0    0  0.00000000000E+00  0.00000000000E+00  0.45593999997E+02  0.45594000000E+02  0.51100000000E-03 0.  1.
         11   -1    0    0    0    0 -0.00000000000E+00 -0.00000000000E+00 -0.45593999997E+02  0.45594000000E+02  0.51100000000E-03 0. -1.
    9900012    2    1    2    0    0  0.10799054783E+01  0.47571732186E+00  0.30965567972E-01  0.90007550222E+02  0.89999809085E+02 0.  0.
         12    1    1    2    0    0 -0.10799054783E+01 -0.47571732186E+00 -0.30965567972E-01  0.11804497781E+01  0.00000000000E+00 0. -1.
         11    1    3    3    0    0 -0.12771715767E+00 -0.34903277771E+01  0.29593195446E+01  0.45778021027E+01  0.51100000000E-03 0. -1.
        -11    1    3    3    0    0 -0.41672576327E+02 -0.19480534702E+01 -0.54375881172E+01  0.42070962609E+02  0.51100000000E-03 0.  1.
         12    1    3    3    0    0  0.42880198963E+02  0.59140985692E+01  0.25092341406E+01  0.43358785510E+02  0.00000000000E+00 0. -1.
</event>
<event>
 7    1  0.4008281E-015  0.9000782E+02  0.7816164E-02  0.1186339E+00
        -11   -1    0    0    0    0  0.00000000000E+00  0.00000000000E+00  0.45593999997E+02  0.45594000000E+02  0.51100000000E-03 0.  1.
         11   -1    0    0    0    0 -0.00000000000E+00 -0.00000000000E+00 -0.45593999997E+02  0.45594000000E+02  0.51100000000E-03 0. -1.
    9900012    2    1    2    0    0  0.12582293144E+00 -0.68239983747E+00  0.95463631286E+00  0.90007817201E+02  0.90000079588E+02 0.  0.
         12    1    1    2    0    0 -0.12582293144E+00  0.68239983747E+00 -0.95463631286E+00  0.11801827986E+01  0.00000000000E+00 0. -1.
         11    1    3    3    0    0 -0.23693125052E+02 -0.90983338817E+01 -0.26514031271E+02  0.36703374622E+02  0.51100000000E-03 0. -1.
        -11    1    3    3    0    0 -0.78380882539E+01  0.48306048955E+01 -0.25258124931E+01  0.95472561579E+01  0.51100000000E-03 0.  1.
        -12    1    3    3    0    0  0.31657036237E+02  0.35853291488E+01  0.29994480077E+02  0.43757186421E+02  0.00000000000E+00 0.  1.
</event>
<event>
 7    1  0.4008281E-015  0.9000770E+02  0.7816164E-02  0.1186339E+00
        -11   -1    0    0    0    0  0.00000000000E+00  0.00000000000E+00  0.45593999997E+02  0.45594000000E+02  0.51100000000E-03 0. -1.
         11   -1    0    0    0    0 -0.00000000000E+00 -0.00000000000E+00 -0.45593999997E+02  0.45594000000E+02  0.51100000000E-03 0.  1.
    9900012    2    1    2    0    0 -0.78507302778E+00  0.58754220540E-01 -0.87938243964E+00  0.90007701227E+02  0.89999962084E+02 0.  0.
         12    1    1    2    0    0  0.78507302778E+00 -0.58754220540E-01  0.87938243964E+00  0.11802987726E+01  0.00000000000E+00 0. -1.
         11    1    3    3    0    0 -0.80295564183E+01  0.36599409226E+02  0.35881986720E+01  0.37641276571E+02  0.51100000000E-03 0. -1.
        -11    1    3    3    0    0  0.43699922534E+01  0.64540630449E+01 -0.50220640667E+01  0.92721566981E+01  0.51100000000E-03 0.  1.
        -12    1    3    3    0    0  0.28744911371E+01 -0.42994718050E+02  0.55448295506E+00  0.43094267958E+02  0.00000000000E+00 0.  1.
</event>
<event>
 7    1  0.4313263E-015  0.9000775E+02  0.7816164E-02  0.1186339E+00
        -11   -1    0    0    0    0  0.00000000000E+00  0.00000000000E+00  0.45593999997E+02  0.45594000000E+02  0.51100000000E-03 0. -1.
         11   -1    0    0    0    0 -0.00000000000E+00 -0.00000000000E+00 -0.45593999997E+02  0.45594000000E+02  0.51100000000E-03 0.  1.
    9900012    2    1    2    0    0 -0.49483219746E-02 -0.74938989726E+00 -0.91179938375E+00  0.90007750950E+02  0.90000012462E+02 0.  0.
         12    1    1    2    0    0  0.49483219746E-02  0.74938989726E+00  0.91179938375E+00  0.11802490501E+01  0.00000000000E+00 0. -1.
         11    1    3    3    0    0 -0.42470302818E+01 -0.95033096072E+01  0.19423005351E+01  0.10588800278E+02  0.51100000000E-03 0. -1.
        -11    1    3    3    0    0  0.24933069851E+02 -0.21837991580E+02 -0.19988973751E+02  0.38705489537E+02  0.51100000000E-03 0.  1.
         12    1    3    3    0    0 -0.20690987892E+02  0.30591911290E+02  0.17134873832E+02  0.40713461134E+02  0.00000000000E+00 0. -1.
</event>
<event>
 7    1  0.4008281E-015  0.9000797E+02  0.7816164E-02  0.1186339E+00
        -11   -1    0    0    0    0  0.00000000000E+00  0.00000000000E+00  0.45593999997E+02  0.45594000000E+02  0.51100000000E-03 0. -1.
         11   -1    0    0    0    0 -0.00000000000E+00 -0.00000000000E+00 -0.45593999997E+02  0.45594000000E+02  0.51100000000E-03 0.  1.
    9900012    2    1    2    0    0  0.10145770456E+01  0.17362015243E+00  0.57701815044E+00  0.90007974371E+02  0.90000238833E+02 0.  0.
         12    1    1    2    0    0 -0.10145770456E+01 -0.17362015243E+00 -0.57701815044E+00  0.11800256289E+01  0.00000000000E+00 0. -1.
         11    1    3    3    0    0 -0.10603952021E+02 -0.10209424762E+01 -0.52613470523E+01  0.11881409641E+02  0.51100000000E-03 0. -1.
        -11    1    3    3    0    0 -0.21712447750E+02  0.24712969701E+02 -0.99757077029E+01  0.34375514587E+02  0.51100000000E-03 0.  1.
         12    1    3    3    0    0  0.33330976816E+02 -0.23518407072E+02  0.15814072906E+02  0.43751050143E+02  0.00000000000E+00 0. -1.
</event>
<event>
 7    1  0.4008281E-015  0.9000786E+02  0.7816164E-02  0.1186339E+00
        -11   -1    0    0    0    0  0.00000000000E+00  0.00000000000E+00  0.45593999997E+02  0.45594000000E+02  0.51100000000E-03 0. -1.
         11   -1    0    0    0    0 -0.00000000000E+00 -0.00000000000E+00 -0.45593999997E+02  0.45594000000E+02  0.51100000000E-03 0.  1.
    9900012    2    1    2    0    0  0.30402881150E+00  0.79545588045E+00 -0.81704172192E+00  0.90007855623E+02  0.90000118517E+02 0.  0.
         12    1    1    2    0    0 -0.30402881150E+00 -0.79545588045E+00  0.81704172192E+00  0.11801443773E+01  0.00000000000E+00 0. -1.
         11    1    3    3    0    0  0.24800912646E+02  0.60655045986E+01  0.15263368705E+02  0.29746361770E+02  0.51100000000E-03 0. -1.
        -11    1    3    3    0    0 -0.14535137856E+02 -0.90379201371E+01  0.17831327874E+02  0.24716603467E+02  0.51100000000E-03 0.  1.
        -12    1    3    3    0    0 -0.99617459778E+01  0.37678714189E+01 -0.33911738301E+02  0.35544890386E+02  0.00000000000E+00 0.  1.
</event>
<event>
 7    1  0.4008281E-015  0.9000771E+02  0.7816164E-02  0.1186339E+00
        -11   -1    0    0    0    0  0.00000000000E+00  0.00000000000E+00  0.45593999997E+02  0.45594000000E+02  0.51100000000E-03 0.  1.
         11   -1    0    0    0    0 -0.00000000000E+00 -0.00000000000E+00 -0.45593999997E+02  0.45594000000E+02  0.51100000000E-03 0. -1.
    9900012    2    1    2    0    0  0.64442036815E+00 -0.21213549150E+00  0.96581662684E+00  0.90007711546E+02  0.89999972539E+02 0.  0.
         12    1    1    2    0    0 -0.64442036815E+00  0.21213549150E+00 -0.96581662684E+00  0.11802884539E+01  0.00000000000E+00 0. -1.
         11    1    3    3    0    0  0.84538125691E+01 -0.96066878507E+01  0.94867917251E+00  0.12831811674E+02  0.51100000000E-03 0. -1.
        -11    1    3    3    0    0  0.24147982800E+02 -0.43339627249E+01  0.24476257136E+02  0.34655381543E+02  0.51100000000E-03 0.  1.
         12    1    3    3    0    0 -0.31957375001E+02  0.13728515084E+02 -0.24459119682E+02  0.42520518329E+02  0.00000000000E+00 0. -1.
</event>
<event>
 7    1  0.4008281E-015  0.9000736E+02  0.7816164E-02  0.1186340E+00
        -11   -1    0    0    0    0  0.00000000000E+00  0.00000000000E+00  0.45593999997E+02  0.45594000000E+02  0.51100000000E-03 0. -1.
         11   -1    0    0    0    0 -0.00000000000E+00 -0.00000000000E+00 -0.45593999997E+02  0.45594000000E+02  0.51100000000E-03 0.  1.
    9900012    2    1    2    0    0  0.63763763773E+00 -0.96974516931E+00  0.21659795207E+00  0.90007363679E+02  0.89999620078E+02 0.  0.
         12    1    1    2    0    0 -0.63763763773E+00  0.96974516931E+00 -0.21659795207E+00  0.11806363214E+01  0.00000000000E+00 0. -1.
         11    1    3    3    0    0  0.61961612852E+01  0.23809627117E+01  0.50063619298E+01  0.83141480706E+01  0.51100000000E-03 0. -1.
        -11    1    3    3    0    0 -0.25960076248E+02 -0.12247268749E+02  0.29276666084E+02  0.41000540580E+02  0.51100000000E-03 0.  1.
         12    1    3    3    0    0  0.20401552601E+02  0.88965608678E+01 -0.34066430062E+02  0.40692675028E+02  0.00000000000E+00 0. -1.
</event>
<event>
 7    1  0.4008281E-015  0.9000772E+02  0.7816164E-02  0.1186339E+00
        -11   -1    0    0    0    0  0.00000000000E+00  0.00000000000E+00  0.45593999997E+02  0.45594000000E+02  0.51100000000E-03 0.  1.
         11   -1    0    0    0    0 -0.00000000000E+00 -0.00000000000E+00 -0.45593999997E+02  0.45594000000E+02  0.51100000000E-03 0. -1.
    9900012    2    1    2    0    0  0.13786325308E-01 -0.52328713743E+00  0.10578465525E+01  0.90007720872E+02  0.89999981988E+02 0.  0.
         12    1    1    2    0    0 -0.13786325308E-01  0.52328713743E+00 -0.10578465525E+01  0.11802791278E+01  0.00000000000E+00 0. -1.
         11    1    3    3    0    0 -0.18303351711E+02  0.32570776990E+02 -0.10391388034E+02  0.38779493848E+02  0.51100000000E-03 0. -1.
        -11    1    3    3    0    0 -0.71165263551E+00  0.32736086402E+01  0.95707579532E+01  0.10140136639E+02  0.51100000000E-03 0.  1.
        -12    1    3    3    0    0  0.19028790672E+02 -0.36367672768E+02  0.18784766334E+01  0.41088090384E+02  0.00000000000E+00 0.  1.
</event>
<event>
 7    1  0.4008281E-015  0.9000775E+02  0.7816164E-02  0.1186339E+00
        -11   -1    0    0    0    0  0.00000000000E+00  0.00000000000E+00  0.45593999997E+02  0.45594000000E+02  0.51100000000E-03 0. -1.
         11   -1    0    0    0    0 -0.00000000000E+00 -0.00000000000E+00 -0.45593999997E+02  0.45594000000E+02  0.51100000000E-03 0.  1.
    9900012    2    1    2    0    0  0.27328966736E-01 -0.10013169135E+01  0.62419476492E+00  0.90007745138E+02  0.90000006574E+02 0.  0.
         12    1    1    2    0    0 -0.27328966736E-01  0.10013169135E+01 -0.62419476492E+00  0.11802548616E+01  0.00000000000E+00 0. -1.
         11    1    3    3    0    0 -0.18569495119E+02 -0.17936254779E+02  0.26717448455E+02  0.37153161866E+02  0.51100000000E-03 0. -1.
        -11    1    3    3    0    0 -0.10099680152E+02  0.25147882354E+00  0.79895545934E+00  0.10134353006E+02  0.51100000000E-03 0.  1.
        -12    1    3    3    0    0  0.28696504237E+02  0.16683459042E+02 -0.26892209149E+02  0.42720230266E+02  0.00000000000E+00 0.  1.
</event>
<event>
 7    1  0.4008281E-015  0.9000770E+02  0.7816164E-02  0.1186339E+00
        -11   -1    0    0    0    0  0.00000000000E+00  0.00000000000E+00  0.45593999997E+02  0.45594000000E+02  0.51100000000E-03 0.  1.
         11   -1    0    0    0    0 -0.00000000000E+00 -0.00000000000E+00 -0.45593999997E+02  0.45594000000E+02  0.51100000000E-03 0. -1.
    9900012    2    1    2    0    0 -0.19602153216E+00 -0.42453017263E+00  0.10837226483E+01  0.90007701272E+02  0.89999962129E+02 0.  0.
         12    1    1    2    0    0  0.19602153216E+00  0.42453017263E+00 -0.10837226483E+01  0.11802987278E+01  0.00000000000E+00 0. -1.
         11    1    3    3    0    0 -0.88027311104E+01 -0.13533541709E+00  0.41378226612E+00  0.88134900410E+01  0.51100000000E-03 0. -1.
        -11    1    3    3    0    0 -0.28071019221E+02  0.10891866325E+02  0.22023843155E+02  0.37305020302E+02  0.51100000000E-03 0.  1.
         12    1    3    3    0    0  0.36677728799E+02 -0.11181061080E+02 -0.21353902773E+02  0.43889190929E+02  0.00000000000E+00 0. -1.
</event>
<event>
 7    1  0.4008281E-015  0.9000773E+02  0.7816164E-02  0.1186339E+00
        -11   -1    0    0    0    0  0.00000000000E+00  0.00000000000E+00  0.45593999997E+02  0.45594000000E+02  0.51100000000E-03 0.  1.
         11   -1    0    0    0    0 -0.00000000000E+00 -0.00000000000E+00 -0.45593999997E+02  0.45594000000E+02  0.51100000000E-03 0. -1.
    9900012    2    1    2    0    0  0.42576691665E+00  0.16172334428E+00  0.10888599105E+01  0.90007725535E+02  0.89999986712E+02 0.  0.
         12    1    1    2    0    0 -0.42576691665E+00 -0.16172334428E+00 -0.10888599105E+01  0.11802744647E+01  0.00000000000E+00 0. -1.
         11    1    3    3    0    0  0.21227935784E+02 -0.21972629455E+02 -0.18278514808E+02  0.35602328669E+02  0.51100000000E-03 0. -1.
        -11    1    3    3    0    0  0.10711483152E+01 -0.10864612270E+02  0.16873019416E+01  0.11046906653E+02  0.51100000000E-03 0.  1.
        -12    1    3    3    0    0 -0.21873317182E+02  0.32998965069E+02  0.17680072777E+02  0.43358490214E+02  0.00000000000E+00 0.  1.
</event>
<event>
 7    1  0.4008281E-015  0.9000775E+02  0.7816164E-02  0.1186339E+00
        -11   -1    0    0    0    0  0.00000000000E+00  0.00000000000E+00  0.45593999997E+02  0.45594000000E+02  0.51100000000E-03 0.  1.
         11   -1    0    0    0    0 -0.00000000000E+00 -0.00000000000E+00 -0.45593999997E+02  0.45594000000E+02  0.51100000000E-03 0. -1.
    9900012    2    1    2    0    0 -0.97629345049E+00  0.29900702939E+00 -0.59196969049E+00  0.90007753323E+02  0.90000014866E+02 0.  0.
         12    1    1    2    0    0  0.97629345049E+00 -0.29900702939E+00  0.59196969049E+00  0.11802466774E+01  0.00000000000E+00 0. -1.
         11    1    3    3    0    0  0.11756893519E+00  0.10113191717E+02  0.28085899077E+01  0.10496601673E+02  0.51100000000E-03 0. -1.
        -11    1    3    3    0    0  0.10678180078E+02 -0.39093554324E+01  0.36112783611E+02  0.37860794102E+02  0.51100000000E-03 0.  1.
         12    1    3    3    0    0 -0.11772042463E+02 -0.59048292550E+01 -0.39513343209E+02  0.41650357547E+02  0.00000000000E+00 0. -1.
</event>
<event>
 7    1  0.4008281E-015  0.9000762E+02  0.7816164E-02  0.1186339E+00
        -11   -1    0    0    0    0  0.00000000000E+00  0.00000000000E+00  0.45593999997E+02  0.45594000000E+02  0.51100000000E-03 0.  1.
         11   -1    0    0    0    0 -0.00000000000E+00 -0.00000000000E+00 -0.45593999997E+02  0.45594000000E+02  0.51100000000E-03 0. -1.
    9900012    2    1    2    0    0  0.22434032158E+00  0.10772893788E+01  0.42711371781E+00  0.90007615692E+02  0.89999875420E+02 0.  0.
         12    1    1    2    0    0 -0.22434032158E+00 -0.10772893788E+01 -0.42711371781E+00  0.11803843075E+01  0.00000000000E+00 0. -1.
         11    1    3    3    0    0 -0.52416415146E+00 -0.49230831627E+01  0.10199036166E+02  0.11337188138E+02  0.51100000000E-03 0. -1.
        -11    1    3    3    0    0  0.15008614903E+02  0.15486251269E+02  0.29084069057E+02  0.36207258566E+02  0.51100000000E-03 0.  1.
         12    1    3    3    0    0 -0.14260110429E+02 -0.94858787279E+01 -0.38855991506E+02  0.42463168989E+02  0.00000000000E+00 0. -1.
</event>
<event>
 7    1  0.4008281E-015  0.9000757E+02  0.7816164E-02  0.1186339E+00
        -11   -1    0    0    0    0  0.00000000000E+00  0.00000000000E+00  0.45593999997E+02  0.45594000000E+02  0.51100000000E-03 0.  1.
         11   -1    0    0    0    0 -0.00000000000E+00 -0.00000000000E+00 -0.45593999997E+02  0.45594000000E+02  0.51100000000E-03 0. -1.
    9900012    2    1    2    0    0 -0.84796038318E+00  0.74736468868E+00 -0.34033761462E+00  0.90007567672E+02  0.89999826765E+02 0.  0.
         12    1    1    2    0    0  0.84796038318E+00 -0.74736468868E+00  0.34033761462E+00  0.11804323281E+01  0.00000000000E+00 0. -1.
         11    1    3    3    0    0  0.29641656383E+02 -0.14220663102E+01 -0.29322442172E+02  0.41718768929E+02  0.51100000000E-03 0. -1.
        -11    1    3    3    0    0 -0.22156982224E+01  0.29379443325E+01 -0.35963250361E+01  0.51453269614E+01  0.51100000000E-03 0.  1.
        -12    1    3    3    0    0 -0.28273918544E+02 -0.76851333359E+00  0.32578429594E+02  0.43143471782E+02  0.00000000000E+00 0.  1.
</event>
<event>
 7    1  0.4008281E-015  0.9000764E+02  0.7816164E-02  0.1186339E+00
        -11   -1    0    0    0    0  0.00000000000E+00  0.00000000000E+00  0.45593999997E+02  0.45594000000E+02  0.51100000000E-03 0.  1.
         11   -1    0    0    0    0 -0.00000000000E+00 -0.00000000000E+00 -0.45593999997E+02  0.45594000000E+02  0.51100000000E-03 0. -1.
    9900012    2    1    2    0    0 -0.42518339108E+00  0.59498420680E+00  0.92652671350E+00  0.90007644599E+02  0.89999904707E+02 0.  0.
         12    1    1    2    0    0  0.42518339108E+00 -0.59498420680E+00 -0.92652671350E+00  0.11803554012E+01  0.00000000000E+00 0. -1.
         11    1    3    3    0    0  0.62380077934E+01 -0.56120799270E+01 -0.41908630138E+02  0.42740396145E+02  0.51100000000E-03 0. -1.
        -11    1    3    3    0    0 -0.10659486549E+02  0.18730099069E+00  0.14331367944E+02  0.17861910384E+02  0.51100000000E-03 0.  1.
        -12    1    3    3    0    0  0.39962953650E+01  0.60197631431E+01  0.28503788907E+02  0.29405338070E+02  0.00000000000E+00 0.  1.
</event>
<event>
 7    1  0.4008281E-015  0.9000777E+02  0.7816164E-02  0.1186339E+00
        -11   -1    0    0    0    0  0.00000000000E+00  0.00000000000E+00  0.45593999997E+02  0.45594000000E+02  0.51100000000E-03 0. -1.
         11   -1    0    0    0    0 -0.00000000000E+00 -0.00000000000E+00 -0.45593999997E+02  0.45594000000E+02  0.51100000000E-03 0.  1.
    9900012    2    1    2    0    0  0.65933409690E+00  0.39565039036E+00 -0.89536244284E+00  0.90007773502E+02  0.90000035312E+02 0.  0.
         12    1    1    2    0    0 -0.65933409690E+00 -0.39565039036E+00  0.89536244284E+00  0.11802264981E+01  0.00000000000E+00 0. -1.
         11    1    3    3    0    0  0.45834003911E+01  0.18643913025E+02  0.34023868996E+02  0.39066951683E+02  0.51100000000E-03 0. -1.
        -11    1    3    3    0    0  0.85132940694E+01 -0.29594750038E+01  0.18699821388E+01  0.92049715736E+01  0.51100000000E-03 0.  1.
        -12    1    3    3    0    0 -0.12437360364E+02 -0.15288787631E+02 -0.36789213578E+02  0.41735850246E+02  0.00000000000E+00 0.  1.
</event>
<event>
 7    1  0.4008281E-015  0.9000771E+02  0.7816164E-02  0.1186339E+00
        -11   -1    0    0    0    0  0.00000000000E+00  0.00000000000E+00  0.45593999997E+02  0.45594000000E+02  0.51100000000E-03 0.  1.
         11   -1    0    0    0    0 -0.00000000000E+00 -0.00000000000E+00 -0.45593999997E+02  0.45594000000E+02  0.51100000000E-03 0. -1.
    9900012    2    1    2    0    0  0.11098745528E+01 -0.18749389133E+00  0.35512150112E+00  0.90007709035E+02  0.89999969994E+02 0.  0.
         12    1    1    2    0    0 -0.11098745528E+01  0.18749389133E+00 -0.35512150112E+00  0.11802909653E+01  0.00000000000E+00 0. -1.
         11    1    3    3    0    0  0.29950206400E+02 -0.15675151837E+02  0.19544961829E+02  0.39047801240E+02  0.51100000000E-03 0. -1.
        -11    1    3    3    0    0  0.78118400268E+01  0.13941353663E+01 -0.29493949879E+01  0.84656594001E+01  0.51100000000E-03 0.  1.
        -12    1    3    3    0    0 -0.36652171874E+02  0.14093522580E+02 -0.16240445340E+02  0.42494248395E+02  0.00000000000E+00 0.  1.
</event>
<event>
 7    1  0.4008281E-015  0.9000775E+02  0.7816164E-02  0.1186339E+00
        -11   -1    0    0    0    0  0.00000000000E+00  0.00000000000E+00  0.45593999997E+02  0.45594000000E+02  0.51100000000E-03 0.  1.
         11   -1    0    0    0    0 -0.00000000000E+00 -0.00000000000E+00 -0.45593999997E+02  0.45594000000E+02  0.51100000000E-03 0. -1.
    9900012    2    1    2    0    0  0.76439986063E+00  0.87928270545E+00 -0.18852274967E+00  0.90007751700E+02  0.90000013222E+02 0.  0.
         12    1    1    2    0    0 -0.76439986063E+00 -0.87928270545E+00  0.18852274967E+00  0.11802483002E+01  0.00000000000E+00 0. -1.
         11    1    3    3    0    0  0.90857695113E+01  0.33366237629E+02 -0.14598798496E+02  0.37536408178E+02  0.51100000000E-03 0. -1.
        -11    1    3    3    0    0  0.63618552636E+01  0.40799198192E+01 -0.44660876124E+01  0.87786608859E+01  0.51100000000E-03 0.  1.
        -12    1    3    3    0    0 -0.14683224914E+02 -0.36566874742E+02  0.18876363359E+02  0.43692682636E+02  0.00000000000E+00 0.  1.
</event>
<event>
 7    1  0.4008281E-015  0.9000775E+02  0.7816164E-02  0.1186339E+00
        -11   -1    0    0    0    0  0.00000000000E+00  0.00000000000E+00  0.45593999997E+02  0.45594000000E+02  0.51100000000E-03 0.  1.
         11   -1    0    0    0    0 -0.00000000000E+00 -0.00000000000E+00 -0.45593999997E+02  0.45594000000E+02  0.51100000000E-03 0. -1.
    9900012    2    1    2    0    0  0.97645660146E+00 -0.24042220610E+00  0.61783192835E+00  0.90007751457E+02  0.90000012976E+02 0.  0.
         12    1    1    2    0    0 -0.97645660146E+00  0.24042220610E+00 -0.61783192835E+00  0.11802485431E+01  0.00000000000E+00 0. -1.
         11    1    3    3    0    0 -0.87041832730E+01  0.45509328201E+00  0.10468282246E+01  0.87787109497E+01  0.51100000000E-03 0. -1.
        -11    1    3    3    0    0  0.32559697720E+02 -0.25090993594E+02  0.15820514235E+02  0.44045210252E+02  0.51100000000E-03 0.  1.
         12    1    3    3    0    0 -0.22879057846E+02  0.24395478106E+02 -0.16249510531E+02  0.37183830255E+02  0.00000000000E+00 0. -1.
</event>
<event>
 7    1  0.4008281E-015  0.9000769E+02  0.7816164E-02  0.1186339E+00
        -11   -1    0    0    0    0  0.00000000000E+00  0.00000000000E+00  0.45593999997E+02  0.45594000000E+02  0.51100000000E-03 0. -1.
         11   -1    0    0    0    0 -0.00000000000E+00 -0.00000000000E+00 -0.45593999997E+02  0.45594000000E+02  0.51100000000E-03 0.  1.
    9900012    2    1    2    0    0 -0.45435675705E+00 -0.80618942345E+00 -0.73262496020E+00  0.90007694624E+02  0.89999955393E+02 0.  0.
         12    1    1    2    0    0  0.45435675705E+00  0.80618942345E+00  0.73262496020E+00  0.11803053764E+01  0.00000000000E+00 0. -1.
         11    1    3    3    0    0 -0.12736497642E+01 -0.40872059576E+02  0.11865712555E+01  0.40909111323E+02  0.51100000000E-03 0. -1.
        -11    1    3    3    0    0  0.22213407476E+01 -0.10007023175E+01  0.66865564538E+01  0.71165860718E+01  0.51100000000E-03 0.  1.
        -12    1    3    3    0    0 -0.14020477405E+01  0.41066572470E+02 -0.86057526695E+01  0.41981997228E+02  0.00000000000E+00 0.  1.
</event>
<event>
 7    1  0.4008281E-015  0.9000757E+02  0.7816164E-02  0.1186339E+00
        -11   -1    0    0    0    0  0.00000000000E+00  0.00000000000E+00  0.45593999997E+02  0.45594000000E+02  0.51100000000E-03 0. -1.
         11   -1    0    0    0    0 -0.00000000000E+00 -0.00000000000E+00 -0.45593999997E+02  0.45594000000E+02  0.51100000000E-03 0.  1.
    9900012    2    1    2    0    0 -0.86425752355E+00  0.47990135337E+00 -0.64510588726E+00  0.90007572966E+02  0.89999832129E+02 0.  0.
         12    1    1    2    0    0  0.86425752355E+00 -0.47990135337E+00  0.64510588726E+00  0.11804270336E+01  0.00000000000E+00 0. -1.
         11    1    3    3    0    0 -0.15270702968E+02 -0.16598747705E+02  0.29304121984E+02  0.36978971863E+02  0.51100000000E-03 0. -1.
        -11    1    3    3    0    0 -0.36045408844E+01 -0.90915466949E+01 -0.63387654855E+00  0.98005477415E+01  0.51100000000E-03 0.  1.
        -12    1    3    3    0    0  0.18010986329E+02  0.26170195753E+02 -0.29315351323E+02  0.43228053362E+02  0.00000000000E+00 0.  1.
</event>
<event>
 7    1  0.4008281E-015  0.9000778E+02  0.7816164E-02  0.1186339E+00
        -11   -1    0    0    0    0  0.00000000000E+00  0.00000000000E+00  0.45593999997E+02  0.45594000000E+02  0.51100000000E-03 0.  1.
         11   -1    0    0    0    0 -0.00000000000E+00 -0.00000000000E+00 -0.45593999997E+02  0.45594000000E+02  0.51100000000E-03 0. -1.
    9900012    2    1    2    0    0  0.31331241981E+00 -0.11161038954E+01 -0.22151991243E+00  0.90007778136E+02  0.90000040007E+02 0.  0.
         12    1    1    2    0    0 -0.31331241981E+00  0.11161038954E+01  0.22151991243E+00  0.11802218645E+01  0.00000000000E+00 0. -1.
         11    1    3    3    0    0 -0.22516949791E+01  0.37632706151E+02  0.26972969894E+01  0.37796376993E+02  0.51100000000E-03 0. -1.
        -11    1    3    3    0    0 -0.80852326468E+01  0.20558894937E+01 -0.54481446182E+01  0.99639323866E+01  0.51100000000E-03 0.  1.
        -12    1    3    3    0    0  0.10650240046E+02 -0.40804699540E+02  0.25293277163E+01  0.42247468756E+02  0.00000000000E+00 0.  1.
</event>
<event>
 7    1  0.4008281E-015  0.9000773E+02  0.7816164E-02  0.1186339E+00
        -11   -1    0    0    0    0  0.00000000000E+00  0.00000000000E+00  0.45593999997E+02  0.45594000000E+02  0.51100000000E-03 0.  1.
         11   -1    0    0    0    0 -0.00000000000E+00 -0.00000000000E+00 -0.45593999997E+02  0.45594000000E+02  0.51100000000E-03 0. -1.
    9900012    2    1    2    0    0 -0.20418928596E+00 -0.10086848352E+00  0.11580917919E+01  0.90007727017E+02  0.89999988214E+02 0.  0.
         12    1    1    2    0    0  0.20418928596E+00  0.10086848352E+00 -0.11580917919E+01  0.11802729828E+01  0.00000000000E+00 0. -1.
         11    1    3    3    0    0  0.49440476337E+01  0.69047555304E+01  0.35821459294E+01  0.92168880680E+01  0.51100000000E-03 0. -1.
        -11    1    3    3    0    0  0.23172905916E+01  0.20577874179E+02  0.30708074241E+02  0.37037880140E+02  0.51100000000E-03 0.  1.
         12    1    3    3    0    0 -0.74655275113E+01 -0.27583498193E+02 -0.33132128379E+02  0.43752958809E+02  0.00000000000E+00 0. -1.
</event>
<event>
 7    1  0.4008281E-015  0.9000772E+02  0.7816164E-02  0.1186339E+00
        -11   -1    0    0    0    0  0.00000000000E+00  0.00000000000E+00  0.45593999997E+02  0.45594000000E+02  0.51100000000E-03 0.  1.
         11   -1    0    0    0    0 -0.00000000000E+00 -0.00000000000E+00 -0.45593999997E+02  0.45594000000E+02  0.51100000000E-03 0. -1.
    9900012    2    1    2    0    0  0.34934339859E+00 -0.79292981019E+00  0.80143142805E+00  0.90007715785E+02  0.89999976833E+02 0.  0.
         12    1    1    2    0    0 -0.34934339859E+00  0.79292981019E+00 -0.80143142805E+00  0.11802842149E+01  0.00000000000E+00 0. -1.
         11    1    3    3    0    0  0.11235436671E+02 -0.80204473793E+01  0.23588667419E+02  0.27331078358E+02  0.51100000000E-03 0. -1.
        -11    1    3    3    0    0  0.16094468468E+02 -0.63202808800E+01  0.84403102059E+01  0.19241016146E+02  0.51100000000E-03 0.  1.
         12    1    3    3    0    0 -0.26980561740E+02  0.13547798449E+02 -0.31227546197E+02  0.43435621282E+02  0.00000000000E+00 0. -1.
</event>
<event>
 7    1  0.4008281E-015  0.9000771E+02  0.7816164E-02  0.1186339E+00
        -11   -1    0    0    0    0  0.00000000000E+00  0.00000000000E+00  0.45593999997E+02  0.45594000000E+02  0.51100000000E-03 0.  1.
         11   -1    0    0    0    0 -0.00000000000E+00 -0.00000000000E+00 -0.45593999997E+02  0.45594000000E+02  0.51100000000E-03 0. -1.
    9900012    2    1    2    0    0 -0.18392656383E+00 -0.43374168596E-01  0.11650690547E+01  0.90007705036E+02  0.89999965943E+02 0.  0.
         12    1    1    2    0    0  0.18392656383E+00  0.43374168596E-01 -0.11650690547E+01  0.11802949638E+01  0.00000000000E+00 0. -1.
         11    1    3    3    0    0 -0.56687191607E+01  0.59231373895E+01 -0.12035144113E+01  0.82865180056E+01  0.51100000000E-03 0. -1.
        -11    1    3    3    0    0 -0.25202689856E+02 -0.10213023857E-01  0.30570309355E+02  0.39619685696E+02  0.51100000000E-03 0.  1.
         12    1    3    3    0    0  0.30687482453E+02 -0.59562985343E+01 -0.28201725889E+02  0.42101501335E+02  0.00000000000E+00 0. -1.
</event>
<event>
 7    1  0.4008281E-015  0.9000710E+02  0.7816164E-02  0.1186340E+00
        -11   -1    0    0    0    0  0.00000000000E+00  0.00000000000E+00  0.45593999997E+02  0.45594000000E+02  0.51100000000E-03 0.  1.
         11   -1    0    0    0    0 -0.00000000000E+00 -0.00000000000E+00 -0.45593999997E+02  0.45594000000E+02  0.51100000000E-03 0. -1.
    9900012    2    1    2    0    0  0.52283919131E+00 -0.27431854397E+00  0.10226993173E+01  0.90007099760E+02  0.89999352674E+02 0.  0.
         12    1    1    2    0    0 -0.52283919131E+00  0.27431854397E+00 -0.10226993173E+01  0.11809002402E+01  0.00000000000E+00 0. -1.
         11    1    3    3    0    0 -0.29094157255E+01 -0.36297787411E+02  0.70846622952E+01  0.37096987896E+02  0.51100000000E-03 0. -1.
        -11    1    3    3    0    0 -0.98697804767E+01 -0.37727513330E+01 -0.19952133325E+01  0.10753004035E+02  0.51100000000E-03 0.  1.
        -12    1    3    3    0    0  0.13302035393E+02  0.39796220200E+02 -0.40667496455E+01  0.42157107829E+02  0.00000000000E+00 0.  1.
</event>
<event>
 7    1  0.4008281E-015  0.9000775E+02  0.7816164E-02  0.1186339E+00
        -11   -1    0    0    0    0  0.00000000000E+00  0.00000000000E+00  0.45593999997E+02  0.45594000000E+02  0.51100000000E-03 0.  1.
         11   -1    0    0    0    0 -0.00000000000E+00 -0.00000000000E+00 -0.45593999997E+02  0.45594000000E+02  0.51100000000E-03 0. -1.
    9900012    2    1    2    0    0  0.33358087374E+00  0.10365417147E+01  0.45529162768E+00  0.90007751979E+02  0.90000013505E+02 0.  0.
         12    1    1    2    0    0 -0.33358087374E+00 -0.10365417147E+01 -0.45529162768E+00  0.11802480213E+01  0.00000000000E+00 0. -1.
         11    1    3    3    0    0 -0.94382456521E+01  0.76844649856E+00 -0.31852744336E+01  0.99908440329E+01  0.51100000000E-03 0. -1.
        -11    1    3    3    0    0 -0.29317750897E+02 -0.20389175976E+02  0.96001495866E+00  0.35723530671E+02  0.51100000000E-03 0.  1.
         12    1    3    3    0    0  0.39089577423E+02  0.20657271192E+02  0.26805511026E+01  0.44293377275E+02  0.00000000000E+00 0. -1.
</event>
<event>
 7    1  0.4008281E-015  0.9000774E+02  0.7816164E-02  0.1186339E+00
        -11   -1    0    0    0    0  0.00000000000E+00  0.00000000000E+00  0.45593999997E+02  0.45594000000E+02  0.51100000000E-03 0.  1.
         11   -1    0    0    0    0 -0.00000000000E+00 -0.00000000000E+00 -0.45593999997E+02  0.45594000000E+02  0.51100000000E-03 0. -1.
    9900012    2    1    2    0    0 -0.74484814558E+00 -0.84607162428E+00 -0.34984082422E+00  0.90007735387E+02  0.89999996695E+02 0.  0.
         12    1    1    2    0    0  0.74484814558E+00  0.84607162428E+00  0.34984082422E+00  0.11802646126E+01  0.00000000000E+00 0. -1.
         11    1    3    3    0    0 -0.60458286004E+01  0.11189886251E+01 -0.71255581133E+01  0.94115757286E+01  0.51100000000E-03 0. -1.
        -11    1    3    3    0    0  0.11387877198E+02  0.36192813907E+02 -0.87757431588E+01  0.38943769641E+02  0.51100000000E-03 0.  1.
         12    1    3    3    0    0 -0.60868967427E+01 -0.38157874157E+02  0.15551460448E+02  0.41652390018E+02  0.00000000000E+00 0. -1.
</event>
<event>
 7    1  0.4008281E-015  0.9000849E+02  0.7816164E-02  0.1186338E+00
        -11   -1    0    0    0    0  0.00000000000E+00  0.00000000000E+00  0.45593999997E+02  0.45594000000E+02  0.51100000000E-03 0.  1.
         11   -1    0    0    0    0 -0.00000000000E+00 -0.00000000000E+00 -0.45593999997E+02  0.45594000000E+02  0.51100000000E-03 0. -1.
    9900012    2    1    2    0    0 -0.91868993996E+00 -0.66613942350E+00 -0.32172568298E+00  0.90008491478E+02  0.90000762763E+02 0.  0.
         12    1    1    2    0    0  0.91868993996E+00  0.66613942350E+00  0.32172568298E+00  0.11795085216E+01  0.00000000000E+00 0. -1.
         11    1    3    3    0    0  0.36784923750E+02 -0.69819162505E+01  0.53560864621E+01  0.37822816292E+02  0.51100000000E-03 0. -1.
        -11    1    3    3    0    0 -0.51869839707E+00 -0.76107644722E+01  0.71523815672E+01  0.10457023775E+02  0.51100000000E-03 0.  1.
        -12    1    3    3    0    0 -0.37184915293E+02  0.13926541299E+02 -0.12830193712E+02  0.41728651411E+02  0.00000000000E+00 0.  1.
</event>
<event>
 7    1  0.4008281E-015  0.9000720E+02  0.7816164E-02  0.1186340E+00
        -11   -1    0    0    0    0  0.00000000000E+00  0.00000000000E+00  0.45593999997E+02  0.45594000000E+02  0.51100000000E-03 0.  1.
         11   -1    0    0    0    0 -0.00000000000E+00 -0.00000000000E+00 -0.45593999997E+02  0.45594000000E+02  0.51100000000E-03 0. -1.
    9900012    2    1    2    0    0  0.58144413314E+00  0.97563074134E+00 -0.32303943451E+00  0.90007200652E+02  0.89999454899E+02 0.  0.
         12    1    1    2    0    0 -0.58144413314E+00 -0.97563074134E+00  0.32303943451E+00  0.11807993478E+01  0.00000000000E+00 0. -1.
         11    1    3    3    0    0 -0.25273977924E+02 -0.21086890427E+02 -0.24110454099E+02  0.40801285581E+02  0.51100000000E-03 0. -1.
        -11    1    3    3    0    0 -0.92031764766E+00 -0.38693563432E+01  0.75799880161E+01  0.85600888820E+01  0.51100000000E-03 0.  1.
        -12    1    3    3    0    0  0.26775739705E+02  0.25931877511E+02  0.16207426648E+02  0.40645826189E+02  0.00000000000E+00 0.  1.
</event>
<event>
 7    1  0.4008281E-015  0.9000779E+02  0.7816164E-02  0.1186339E+00
        -11   -1    0    0    0    0  0.00000000000E+00  0.00000000000E+00  0.45593999997E+02  0.45594000000E+02  0.51100000000E-03 0.  1.
         11   -1    0    0    0    0 -0.00000000000E+00 -0.00000000000E+00 -0.45593999997E+02  0.45594000000E+02  0.51100000000E-03 0. -1.
    9900012    2    1    2    0    0  0.10708908391E+01  0.49508778210E+00  0.31331561009E-01  0.90007787829E+02  0.90000049829E+02 0.  0.
         12    1    1    2    0    0 -0.10708908391E+01 -0.49508778210E+00 -0.31331561009E-01  0.11802121708E+01  0.00000000000E+00 0. -1.
         11    1    3    3    0    0 -0.81424173711E+01 -0.12277215673E+02 -0.28906040908E+01  0.15012813780E+02  0.51100000000E-03 0. -1.
        -11    1    3    3    0    0 -0.22814737815E+02 -0.18570820058E+02  0.61953832329E+01  0.30062774205E+02  0.51100000000E-03 0.  1.
         12    1    3    3    0    0  0.32028046026E+02  0.31343123513E+02 -0.32734475810E+01  0.44932199844E+02  0.00000000000E+00 0. -1.
</event>
<event>
 7    1  0.4008281E-015  0.9000773E+02  0.7816164E-02  0.1186339E+00
        -11   -1    0    0    0    0  0.00000000000E+00  0.00000000000E+00  0.45593999997E+02  0.45594000000E+02  0.51100000000E-03 0.  1.
         11   -1    0    0    0    0 -0.00000000000E+00 -0.00000000000E+00 -0.45593999997E+02  0.45594000000E+02  0.51100000000E-03 0. -1.
    9900012    2    1    2    0    0  0.33152077837E+00 -0.40543271690E+00  0.10577092242E+01  0.90007732862E+02  0.89999994136E+02 0.  0.
         12    1    1    2    0    0 -0.33152077837E+00  0.40543271690E+00 -0.10577092242E+01  0.11802671382E+01  0.00000000000E+00 0. -1.
         11    1    3    3    0    0 -0.12464464369E+00 -0.21404646651E+01  0.10565408338E+02  0.10780768937E+02  0.51100000000E-03 0. -1.
        -11    1    3    3    0    0 -0.14972359026E+02 -0.35399161154E+02 -0.51868571973E+01  0.38783703189E+02  0.51100000000E-03 0.  1.
         12    1    3    3    0    0  0.15428524448E+02  0.37134193102E+02 -0.43208419165E+01  0.40443260735E+02  0.00000000000E+00 0. -1.
</event>
<event>
 7    1  0.4008281E-015  0.9000759E+02  0.7816164E-02  0.1186339E+00
        -11   -1    0    0    0    0  0.00000000000E+00  0.00000000000E+00  0.45593999997E+02  0.45594000000E+02  0.51100000000E-03 0.  1.
         11   -1    0    0    0    0 -0.00000000000E+00 -0.00000000000E+00 -0.45593999997E+02  0.45594000000E+02  0.51100000000E-03 0. -1.
    9900012    2    1    2    0    0 -0.23640843155E-01 -0.60212188930E+00 -0.10150150355E+01  0.90007591096E+02  0.89999850498E+02 0.  0.
         12    1    1    2    0    0  0.23640843155E-01  0.60212188930E+00  0.10150150355E+01  0.11804089043E+01  0.00000000000E+00 0. -1.
         11    1    3    3    0    0 -0.15837022567E+02  0.27299194986E+02  0.23080046580E+01  0.31644655416E+02  0.51100000000E-03 0. -1.
        -11    1    3    3    0    0  0.26673550084E+01 -0.35632132269E+01  0.21037862213E+02  0.21503555939E+02  0.51100000000E-03 0.  1.
        -12    1    3    3    0    0  0.13146026715E+02 -0.24338103648E+02 -0.24360881907E+02  0.36859379741E+02  0.00000000000E+00 0.  1.
</event>
<event>
 7    1  0.4008281E-015  0.9000778E+02  0.7816164E-02  0.1186339E+00
        -11   -1    0    0    0    0  0.00000000000E+00  0.00000000000E+00  0.45593999997E+02  0.45594000000E+02  0.51100000000E-03 0.  1.
         11   -1    0    0    0    0 -0.00000000000E+00 -0.00000000000E+00 -0.45593999997E+02  0.45594000000E+02  0.51100000000E-03 0. -1.
    9900012    2    1    2    0    0  0.30648653827E-01  0.82532297494E+00  0.84310436231E+00  0.90007778699E+02  0.90000040578E+02 0.  0.
         12    1    1    2    0    0 -0.30648653827E-01 -0.82532297494E+00 -0.84310436231E+00  0.11802213007E+01  0.00000000000E+00 0. -1.
         11    1    3    3    0    0  0.82644297388E+01 -0.58339755372E+01  0.26646164031E+01  0.10461178247E+02  0.51100000000E-03 0. -1.
        -11    1    3    3    0    0 -0.11340125609E+02 -0.30980573637E+02  0.17258977261E+02  0.37232602488E+02  0.51100000000E-03 0.  1.
         12    1    3    3    0    0  0.31063445242E+01  0.37639872149E+02 -0.19080489302E+02  0.42313997964E+02  0.00000000000E+00 0. -1.
</event>
<event>
 7    1  0.4008281E-015  0.9000769E+02  0.7816164E-02  0.1186339E+00
        -11   -1    0    0    0    0  0.00000000000E+00  0.00000000000E+00  0.45593999997E+02  0.45594000000E+02  0.51100000000E-03 0. -1.
         11   -1    0    0    0    0 -0.00000000000E+00 -0.00000000000E+00 -0.45593999997E+02  0.45594000000E+02  0.51100000000E-03 0.  1.
    9900012    2    1    2    0    0  0.96698184750E-01  0.90293154797E+00 -0.75399099177E+00  0.90007687188E+02  0.89999947859E+02 0.  0.
         12    1    1    2    0    0 -0.96698184750E-01 -0.90293154797E+00  0.75399099177E+00  0.11803128123E+01  0.00000000000E+00 0. -1.
         11    1    3    3    0    0 -0.33989365031E+01 -0.18136655781E+00  0.16115483857E+01  0.37659994213E+01  0.51100000000E-03 0. -1.
        -11    1    3    3    0    0 -0.40669182850E+02  0.39031266408E+01  0.57197423718E+01  0.41254481991E+02  0.51100000000E-03 0.  1.
         12    1    3    3    0    0  0.44164817538E+02 -0.28188285351E+01 -0.80852817492E+01  0.44987205775E+02  0.00000000000E+00 0. -1.
</event>
<event>
 7    1  0.4008281E-015  0.9000767E+02  0.7816164E-02  0.1186339E+00
        -11   -1    0    0    0    0  0.00000000000E+00  0.00000000000E+00  0.45593999997E+02  0.45594000000E+02  0.51100000000E-03 0. -1.
         11   -1    0    0    0    0 -0.00000000000E+00 -0.00000000000E+00 -0.45593999997E+02  0.45594000000E+02  0.51100000000E-03 0.  1.
    9900012    2    1    2    0    0  0.89799303142E+00  0.56495137361E+00 -0.51730862132E+00  0.90007673880E+02  0.89999934376E+02 0.  0.
         12    1    1    2    0    0 -0.89799303142E+00 -0.56495137361E+00  0.51730862132E+00  0.11803261196E+01  0.00000000000E+00 0. -1.
         11    1    3    3    0    0 -0.36317318628E+02  0.20371341974E+02 -0.83505497549E+00  0.41648967853E+02  0.51100000000E-03 0. -1.
        -11    1    3    3    0    0  0.10581744552E+02 -0.35492557511E+00 -0.92064731652E+01  0.14030625016E+02  0.51100000000E-03 0.  1.
        -12    1    3    3    0    0  0.26633567107E+02 -0.19451465025E+02  0.95242195194E+01  0.34328081012E+02  0.00000000000E+00 0.  1.
</event>
<event>
 7    1  0.4008281E-015  0.9000831E+02  0.7816164E-02  0.1186338E+00
        -11   -1    0    0    0    0  0.00000000000E+00  0.00000000000E+00  0.45593999997E+02  0.45594000000E+02  0.51100000000E-03 0. -1.
         11   -1    0    0    0    0 -0.00000000000E+00 -0.00000000000E+00 -0.45593999997E+02  0.45594000000E+02  0.51100000000E-03 0.  1.
    9900012    2    1    2    0    0  0.58763947005E-01  0.23656068314E+00 -0.11542287279E+01  0.90008314400E+02  0.90000583348E+02 0.  0.
         12    1    1    2    0    0 -0.58763947005E-01 -0.23656068314E+00  0.11542287279E+01  0.11796855999E+01  0.00000000000E+00 0. -1.
         11    1    3    3    0    0 -0.29586712225E+02  0.56169352622E+01  0.18197127295E+02  0.35186061787E+02  0.51100000000E-03 0. -1.
        -11    1    3    3    0    0 -0.60963660572E+01  0.94451736109E+01  0.65651238490E+00  0.11260905488E+02  0.51100000000E-03 0.  1.
        -12    1    3    3    0    0  0.35741842229E+02 -0.14825548190E+02 -0.20007868408E+02  0.43561347125E+02  0.00000000000E+00 0.  1.
</event>
<event>
 7    1  0.4008281E-015  0.9000800E+02  0.7816164E-02  0.1186339E+00
        -11   -1    0    0    0    0  0.00000000000E+00  0.00000000000E+00  0.45593999997E+02  0.45594000000E+02  0.51100000000E-03 0. -1.
         11   -1    0    0    0    0 -0.00000000000E+00 -0.00000000000E+00 -0.45593999997E+02  0.45594000000E+02  0.51100000000E-03 0.  1.
    9900012    2    1    2    0    0 -0.59494375508E-01 -0.84042092686E+00 -0.82616339837E+00  0.90008003019E+02  0.90000267858E+02 0.  0.
         12    1    1    2    0    0  0.59494375508E-01  0.84042092686E+00  0.82616339837E+00  0.11799969813E+01  0.00000000000E+00 0. -1.
         11    1    3    3    0    0  0.18328331760E-01  0.56281107088E+01 -0.97533625968E+01  0.11260730362E+02  0.51100000000E-03 0. -1.
        -11    1    3    3    0    0 -0.12573345212E+02  0.33611792431E+02  0.79311554597E+01  0.36752480562E+02  0.51100000000E-03 0.  1.
         12    1    3    3    0    0  0.12495522505E+02 -0.40080324067E+02  0.99604373874E+00  0.41994792095E+02  0.00000000000E+00 0. -1.
</event>
<event>
 7    1  0.4008281E-015  0.9000777E+02  0.7816164E-02  0.1186339E+00
        -11   -1    0    0    0    0  0.00000000000E+00  0.00000000000E+00  0.45593999997E+02  0.45594000000E+02  0.51100000000E-03 0.  1.
         11   -1    0    0    0    0 -0.00000000000E+00 -0.00000000000E+00 -0.45593999997E+02  0.45594000000E+02  0.51100000000E-03 0. -1.
    9900012    2    1    2    0    0  0.10396454427E+01  0.20005818533E+00  0.52159986508E+00  0.90007765979E+02  0.90000027690E+02 0.  0.
         12    1    1    2    0    0 -0.10396454427E+01 -0.20005818533E+00 -0.52159986508E+00  0.11802340206E+01  0.00000000000E+00 0. -1.
         11    1    3    3    0    0 -0.30803837852E+01  0.28161218594E+01  0.99809748999E+01  0.10818464161E+02  0.51100000000E-03 0. -1.
        -11    1    3    3    0    0 -0.26917310960E+02  0.13343796883E+02  0.17786179998E+02  0.34913417818E+02  0.51100000000E-03 0.  1.
         12    1    3    3    0    0  0.31037340188E+02 -0.15959860557E+02 -0.27245555033E+02  0.44275884000E+02  0.00000000000E+00 0. -1.
</event>
<event>
 7    1  0.4008281E-015  0.9000777E+02  0.7816164E-02  0.1186339E+00
        -11   -1    0    0    0    0  0.00000000000E+00  0.00000000000E+00  0.45593999997E+02  0.45594000000E+02  0.51100000000E-03 0.  1.
         11   -1    0    0    0    0 -0.00000000000E+00 -0.00000000000E+00 -0.45593999997E+02  0.45594000000E+02  0.51100000000E-03 0. -1.
    9900012    2    1    2    0    0  0.63986827678E+00 -0.20946514037E+00  0.96934425708E+00  0.90007773181E+02  0.90000034987E+02 0.  0.
         12    1    1    2    0    0 -0.63986827678E+00  0.20946514037E+00 -0.96934425708E+00  0.11802268195E+01  0.00000000000E+00 0. -1.
         11    1    3    3    0    0  0.10490696263E+02  0.46057835209E+01  0.49392474405E+00  0.11467864310E+02  0.51100000000E-03 0. -1.
        -11    1    3    3    0    0  0.25071576942E+02 -0.21375579210E+02  0.16321058402E+02  0.36767870547E+02  0.51100000000E-03 0.  1.
         12    1    3    3    0    0 -0.34922404929E+02  0.16560330549E+02 -0.15845638889E+02  0.41772038323E+02  0.00000000000E+00 0. -1.
</event>
<event>
 7    1  0.4008281E-015  0.9000777E+02  0.7816164E-02  0.1186339E+00
        -11   -1    0    0    0    0  0.00000000000E+00  0.00000000000E+00  0.45593999997E+02  0.45594000000E+02  0.51100000000E-03 0.  1.
         11   -1    0    0    0    0 -0.00000000000E+00 -0.00000000000E+00 -0.45593999997E+02  0.45594000000E+02  0.51100000000E-03 0. -1.
    9900012    2    1    2    0    0  0.50464701125E+00  0.20334517025E+00  0.10473368235E+01  0.90007774477E+02  0.90000036300E+02 0.  0.
         12    1    1    2    0    0 -0.50464701125E+00 -0.20334517025E+00 -0.10473368235E+01  0.11802255234E+01  0.00000000000E+00 0. -1.
         11    1    3    3    0    0 -0.72566259254E+01  0.32597843281E+01  0.48699360042E+01  0.93274375170E+01  0.51100000000E-03 0. -1.
        -11    1    3    3    0    0 -0.30532443391E+01  0.26037170082E+02  0.26508802710E+02  0.37282343652E+02  0.51100000000E-03 0.  1.
         12    1    3    3    0    0  0.10814517276E+02 -0.29093609239E+02 -0.30331401890E+02  0.43397993307E+02  0.00000000000E+00 0. -1.
</event>
<event>
 7    1  0.4008281E-015  0.9000780E+02  0.7816164E-02  0.1186339E+00
        -11   -1    0    0    0    0  0.00000000000E+00  0.00000000000E+00  0.45593999997E+02  0.45594000000E+02  0.51100000000E-03 0.  1.
         11   -1    0    0    0    0 -0.00000000000E+00 -0.00000000000E+00 -0.45593999997E+02  0.45594000000E+02  0.51100000000E-03 0. -1.
    9900012    2    1    2    0    0  0.27541581841E+00 -0.30140121740E+00  0.11073302051E+01  0.90007798005E+02  0.90000060138E+02 0.  0.
         12    1    1    2    0    0 -0.27541581841E+00  0.30140121740E+00 -0.11073302051E+01  0.11802019954E+01  0.00000000000E+00 0. -1.
         11    1    3    3    0    0  0.37624768873E+01  0.38626814701E+02 -0.10723296013E+02  0.40263831461E+02  0.51100000000E-03 0. -1.
        -11    1    3    3    0    0  0.10022370046E+02 -0.39865754437E+01  0.37556769918E+01  0.11421286925E+02  0.51100000000E-03 0.  1.
        -12    1    3    3    0    0 -0.13509431114E+02 -0.34941640475E+02  0.80749492262E+01  0.38322679618E+02  0.00000000000E+00 0.  1.
</event>
<event>
 7    1  0.4008281E-015  0.9000791E+02  0.7816164E-02  0.1186339E+00
        -11   -1    0    0    0    0  0.00000000000E+00  0.00000000000E+00  0.45593999997E+02  0.45594000000E+02  0.51100000000E-03 0. -1.
         11   -1    0    0    0    0 -0.00000000000E+00 -0.00000000000E+00 -0.45593999997E+02  0.45594000000E+02  0.51100000000E-03 0.  1.
    9900012    2    1    2    0    0 -0.82145012184E+00 -0.84115845256E+00  0.10143312528E+00  0.90007908256E+02  0.90000171845E+02 0.  0.
         12    1    1    2    0    0  0.82145012184E+00  0.84115845256E+00 -0.10143312528E+00  0.11800917438E+01  0.00000000000E+00 0. -1.
         11    1    3    3    0    0 -0.16282052070E+02  0.27199825919E+02  0.26617976663E+02  0.41393869492E+02  0.51100000000E-03 0. -1.
        -11    1    3    3    0    0  0.96297337808E+01 -0.11008534776E+01  0.90337389419E+00  0.97344612446E+01  0.51100000000E-03 0.  1.
        -12    1    3    3    0    0  0.58308681670E+01 -0.26940130894E+02 -0.27419917432E+02  0.38879577520E+02  0.00000000000E+00 0.  1.
</event>
<event>
 7    1  0.4008281E-015  0.9000775E+02  0.7816164E-02  0.1186339E+00
        -11   -1    0    0    0    0  0.00000000000E+00  0.00000000000E+00  0.45593999997E+02  0.45594000000E+02  0.51100000000E-03 0.  1.
         11   -1    0    0    0    0 -0.00000000000E+00 -0.00000000000E+00 -0.45593999997E+02  0.45594000000E+02  0.51100000000E-03 0. -1.
    9900012    2    1    2    0    0 -0.61452068798E+00 -0.97280135381E-01  0.10029399587E+01  0.90007751017E+02  0.90000012531E+02 0.  0.
         12    1    1    2    0    0  0.61452068798E+00  0.97280135381E-01 -0.10029399587E+01  0.11802489828E+01  0.00000000000E+00 0. -1.
         11    1    3    3    0    0 -0.11532958290E+02  0.89084509962E+01 -0.34065778135E+02  0.37051948211E+02  0.51100000000E-03 0. -1.
        -11    1    3    3    0    0  0.56562850152E+01  0.52117654468E+01 -0.56257881015E+01  0.95291946811E+01  0.51100000000E-03 0.  1.
        -12    1    3    3    0    0  0.52621525866E+01 -0.14217496578E+02  0.40694506195E+02  0.43426608125E+02  0.00000000000E+00 0.  1.
</event>
