<event>
 7    1  0.6065977E-013  0.5930193E+02  0.7816164E-02  0.1266605E+00
        -11   -1    0    0    0    0  0.00000000000E+00  0.00000000000E+00  0.45593999997E+02  0.45594000000E+02  0.51100000000E-03 0. -1.
         11   -1    0    0    0    0 -0.00000000000E+00 -0.00000000000E+00 -0.45593999997E+02  0.45594000000E+02  0.51100000000E-03 0.  1.
    9900012    2    1    2    0    0 -0.28396322511E+02  0.90429410135E+01 -0.11339990674E+02  0.59301932466E+02  0.49999978913E+02 0.  0.
        -12    1    1    2    0    0  0.28396322511E+02 -0.90429410135E+01  0.11339990674E+02  0.31886067534E+02  0.00000000000E+00 0.  1.
         11    1    3    3    0    0 -0.17239841072E+02  0.14846829071E+01  0.87357408237E+01  0.19383745033E+02  0.51100000000E-03 0. -1.
        -11    1    3    3    0    0  0.93062166478E+01  0.93740636696E+01 -0.11996012891E+02  0.17843291836E+02  0.51100000000E-03 0.  1.
        -12    1    3    3    0    0 -0.20462698087E+02 -0.18158055632E+01 -0.80797186063E+01  0.22074895597E+02  0.00000000000E+00 0.  1.
</event>
<event>
 7    1  0.6065977E-013  0.5930200E+02  0.7816164E-02  0.1266605E+00
        -11   -1    0    0    0    0  0.00000000000E+00  0.00000000000E+00  0.45593999997E+02  0.45594000000E+02  0.51100000000E-03 0.  1.
         11   -1    0    0    0    0 -0.00000000000E+00 -0.00000000000E+00 -0.45593999997E+02  0.45594000000E+02  0.51100000000E-03 0. -1.
    9900012    2    1    2    0    0  0.16636444287E+02  0.18812664062E+02 -0.19647636765E+02  0.59301996204E+02  0.50000095157E+02 0.  0.
        -12    1    1    2    0    0 -0.16636444287E+02 -0.18812664062E+02  0.19647636765E+02  0.31886003796E+02  0.00000000000E+00 0.  1.
         11    1    3    3    0    0  0.55566949831E+01  0.25418384116E+02 -0.28655262380E+02  0.38705234433E+02  0.51100000000E-03 0. -1.
        -11    1    3    3    0    0 -0.13726881473E+01  0.57948420031E+00  0.56364585378E+01  0.58300720234E+01  0.51100000000E-03 0.  1.
         12    1    3    3    0    0  0.12452437451E+02 -0.71852042542E+01  0.33711670771E+01  0.14766689748E+02  0.00000000000E+00 0. -1.
</event>
<event>
 7    1  0.6065977E-013  0.5930203E+02  0.7816164E-02  0.1266604E+00
        -11   -1    0    0    0    0  0.00000000000E+00  0.00000000000E+00  0.45593999997E+02  0.45594000000E+02  0.51100000000E-03 0.  1.
         11   -1    0    0    0    0 -0.00000000000E+00 -0.00000000000E+00 -0.45593999997E+02  0.45594000000E+02  0.51100000000E-03 0. -1.
    9900012    2    1    2    0    0 -0.14585795860E+02  0.28308739735E+02  0.16076992995E+01  0.59302033129E+02  0.50000162499E+02 0.  0.
        -12    1    1    2    0    0  0.14585795860E+02 -0.28308739735E+02 -0.16076992995E+01  0.31885966871E+02  0.00000000000E+00 0.  1.
         11    1    3    3    0    0 -0.60971079115E+01  0.59392442772E+01 -0.16963891181E+01  0.86791176838E+01  0.51100000000E-03 0. -1.
        -11    1    3    3    0    0  0.17613863377E+02  0.12443776875E+02  0.64757602300E+01  0.22517354125E+02  0.51100000000E-03 0.  1.
        -12    1    3    3    0    0 -0.26102551325E+02  0.99257185831E+01 -0.31716718124E+01  0.28105561320E+02  0.00000000000E+00 0.  1.
</event>
<event>
 7    1  0.6065977E-013  0.5930193E+02  0.7816164E-02  0.1266605E+00
        -11   -1    0    0    0    0  0.00000000000E+00  0.00000000000E+00  0.45593999997E+02  0.45594000000E+02  0.51100000000E-03 0.  1.
         11   -1    0    0    0    0 -0.00000000000E+00 -0.00000000000E+00 -0.45593999997E+02  0.45594000000E+02  0.51100000000E-03 0. -1.
    9900012    2    1    2    0    0  0.10774775149E+02 -0.21016847113E+01 -0.29936740244E+02  0.59301932909E+02  0.49999979722E+02 0.  0.
        -12    1    1    2    0    0 -0.10774775149E+02  0.21016847113E+01  0.29936740244E+02  0.31886067091E+02  0.00000000000E+00 0.  1.
         11    1    3    3    0    0 -0.83943006370E+01  0.14396660744E+02 -0.26397590162E+02  0.31217957819E+02  0.51100000000E-03 0. -1.
        -11    1    3    3    0    0  0.85079382294E+01 -0.94703539840E+01 -0.74234726847E+01  0.14737047345E+02  0.51100000000E-03 0.  1.
         12    1    3    3    0    0  0.10661137556E+02 -0.70279914715E+01  0.38843226034E+01  0.13346927744E+02  0.00000000000E+00 0. -1.
</event>
<event>
 7    1  0.6065977E-013  0.5930196E+02  0.7816164E-02  0.1266605E+00
        -11   -1    0    0    0    0  0.00000000000E+00  0.00000000000E+00  0.45593999997E+02  0.45594000000E+02  0.51100000000E-03 0.  1.
         11   -1    0    0    0    0 -0.00000000000E+00 -0.00000000000E+00 -0.45593999997E+02  0.45594000000E+02  0.51100000000E-03 0. -1.
    9900012    2    1    2    0    0  0.43919427853E+01  0.21379992664E+02 -0.23244915301E+02  0.59301963322E+02  0.50000035187E+02 0.  0.
        -12    1    1    2    0    0 -0.43919427853E+01 -0.21379992664E+02  0.23244915301E+02  0.31886036678E+02  0.00000000000E+00 0.  1.
         11    1    3    3    0    0 -0.30615699470E+01  0.11048770223E+02 -0.10410532367E+02  0.15486372022E+02  0.51100000000E-03 0. -1.
        -11    1    3    3    0    0  0.18338672680E+02  0.19204907542E+02 -0.13433615464E+02  0.29758988794E+02  0.51100000000E-03 0.  1.
        -12    1    3    3    0    0 -0.10885159948E+02 -0.88736851014E+01  0.59923252993E+00  0.14056602505E+02  0.00000000000E+00 0.  1.
</event>
<event>
 7    1  0.6065977E-013  0.5930191E+02  0.7816164E-02  0.1266605E+00
        -11   -1    0    0    0    0  0.00000000000E+00  0.00000000000E+00  0.45593999997E+02  0.45594000000E+02  0.51100000000E-03 0.  1.
         11   -1    0    0    0    0 -0.00000000000E+00 -0.00000000000E+00 -0.45593999997E+02  0.45594000000E+02  0.51100000000E-03 0. -1.
    9900012    2    1    2    0    0 -0.45307011389E+01  0.23828330128E+01 -0.31472486806E+02  0.59301912568E+02  0.49999942625E+02 0.  0.
        -12    1    1    2    0    0  0.45307011389E+01 -0.23828330128E+01  0.31472486806E+02  0.31886087432E+02  0.00000000000E+00 0.  1.
         11    1    3    3    0    0  0.13612839403E+02 -0.14592220424E+02 -0.83363932876E+01  0.21627245475E+02  0.51100000000E-03 0.  1.
        -11    1    3    3    0    0 -0.21168913939E+02  0.13597592850E+02 -0.20282522821E+02  0.32317149951E+02  0.51100000000E-03 0. -1.
        -12    1    3    3    0    0  0.30253733971E+01  0.33774605869E+01 -0.28535706967E+01  0.53575171422E+01  0.00000000000E+00 0.  1.
</event>
<event>
 7    1  0.6065977E-013  0.5930196E+02  0.7816164E-02  0.1266605E+00
        -11   -1    0    0    0    0  0.00000000000E+00  0.00000000000E+00  0.45593999997E+02  0.45594000000E+02  0.51100000000E-03 0. -1.
         11   -1    0    0    0    0 -0.00000000000E+00 -0.00000000000E+00 -0.45593999997E+02  0.45594000000E+02  0.51100000000E-03 0.  1.
    9900012    2    1    2    0    0  0.10585947467E+02 -0.27674837757E+02 -0.11779660109E+02  0.59301963544E+02  0.50000035592E+02 0.  0.
        -12    1    1    2    0    0 -0.10585947467E+02  0.27674837757E+02  0.11779660109E+02  0.31886036456E+02  0.00000000000E+00 0.  1.
         11    1    3    3    0    0 -0.30181284890E+01  0.36941327574E+01  0.11482178595E+02  0.12433669690E+02  0.51100000000E-03 0. -1.
        -11    1    3    3    0    0  0.17198286858E+02 -0.12451187042E+02 -0.14508522476E+02  0.25715955248E+02  0.51100000000E-03 0.  1.
        -12    1    3    3    0    0 -0.35942109027E+01 -0.18917783472E+02 -0.87533162277E+01  0.21152338605E+02  0.00000000000E+00 0.  1.
</event>
<event>
 7    1  0.6065977E-013  0.5930190E+02  0.7816164E-02  0.1266605E+00
        -11   -1    0    0    0    0  0.00000000000E+00  0.00000000000E+00  0.45593999997E+02  0.45594000000E+02  0.51100000000E-03 0. -1.
         11   -1    0    0    0    0 -0.00000000000E+00 -0.00000000000E+00 -0.45593999997E+02  0.45594000000E+02  0.51100000000E-03 0.  1.
    9900012    2    1    2    0    0 -0.52806682621E+00  0.31190111117E+02  0.66046557198E+01  0.59301900156E+02  0.49999919989E+02 0.  0.
        -12    1    1    2    0    0  0.52806682621E+00 -0.31190111117E+02 -0.66046557198E+01  0.31886099844E+02  0.00000000000E+00 0.  1.
         11    1    3    3    0    0  0.92032981152E+01  0.45097549672E+01  0.23001274569E+01  0.10503769449E+02  0.51100000000E-03 0. -1.
        -11    1    3    3    0    0 -0.28970666062E+01  0.20316172516E+02 -0.16279538625E+02  0.26194717764E+02  0.51100000000E-03 0.  1.
        -12    1    3    3    0    0 -0.68342983351E+01  0.63641836339E+01  0.20584066888E+02  0.22603412944E+02  0.00000000000E+00 0.  1.
</event>
<event>
 7    1  0.6065977E-013  0.5930206E+02  0.7816164E-02  0.1266604E+00
        -11   -1    0    0    0    0  0.00000000000E+00  0.00000000000E+00  0.45593999997E+02  0.45594000000E+02  0.51100000000E-03 0.  1.
         11   -1    0    0    0    0 -0.00000000000E+00 -0.00000000000E+00 -0.45593999997E+02  0.45594000000E+02  0.51100000000E-03 0. -1.
    9900012    2    1    2    0    0  0.24299028258E+02 -0.11925661241E+02  0.16853761782E+02  0.59302055502E+02  0.50000203301E+02 0.  0.
        -12    1    1    2    0    0 -0.24299028258E+02  0.11925661241E+02 -0.16853761782E+02  0.31885944498E+02  0.00000000000E+00 0.  1.
         11    1    3    3    0    0  0.24861859566E+02  0.44810671730E+00 -0.80932637961E+00  0.24879064898E+02  0.51100000000E-03 0. -1.
        -11    1    3    3    0    0 -0.12910631188E+02 -0.93451610612E+01  0.55889208371E+01  0.16889418857E+02  0.51100000000E-03 0.  1.
        -12    1    3    3    0    0  0.12347799880E+02 -0.30286068971E+01  0.12074167325E+02  0.17533571747E+02  0.00000000000E+00 0.  1.
</event>
<event>
 7    1  0.6065977E-013  0.5930194E+02  0.7816164E-02  0.1266605E+00
        -11   -1    0    0    0    0  0.00000000000E+00  0.00000000000E+00  0.45593999997E+02  0.45594000000E+02  0.51100000000E-03 0.  1.
         11   -1    0    0    0    0 -0.00000000000E+00 -0.00000000000E+00 -0.45593999997E+02  0.45594000000E+02  0.51100000000E-03 0. -1.
    9900012    2    1    2    0    0  0.21190899978E+02 -0.84933483273E+01 -0.22260494336E+02  0.59301940103E+02  0.49999992842E+02 0.  0.
        -12    1    1    2    0    0 -0.21190899978E+02  0.84933483273E+01  0.22260494336E+02  0.31886059897E+02  0.00000000000E+00 0.  1.
         11    1    3    3    0    0 -0.26635174598E+00  0.58293930702E+01 -0.96080257457E+01  0.11241304453E+02  0.51100000000E-03 0. -1.
        -11    1    3    3    0    0  0.32070421404E+02 -0.15510324971E+02 -0.86805916064E+01  0.36666534887E+02  0.51100000000E-03 0.  1.
        -12    1    3    3    0    0 -0.10613169680E+02  0.11875835739E+01 -0.39718769841E+01  0.11394100762E+02  0.00000000000E+00 0.  1.
</event>
<event>
 7    1  0.6065977E-013  0.5930193E+02  0.7816164E-02  0.1266605E+00
        -11   -1    0    0    0    0  0.00000000000E+00  0.00000000000E+00  0.45593999997E+02  0.45594000000E+02  0.51100000000E-03 0. -1.
         11   -1    0    0    0    0 -0.00000000000E+00 -0.00000000000E+00 -0.45593999997E+02  0.45594000000E+02  0.51100000000E-03 0.  1.
    9900012    2    1    2    0    0  0.95551470760E+01 -0.29299448848E+02  0.81830975174E+01  0.59301927438E+02  0.49999969745E+02 0.  0.
        -12    1    1    2    0    0 -0.95551470760E+01  0.29299448848E+02 -0.81830975174E+01  0.31886072562E+02  0.00000000000E+00 0.  1.
         11    1    3    3    0    0 -0.43483843478E+00 -0.14912100640E+01  0.72552791716E+01  0.74196946055E+01  0.51100000000E-03 0. -1.
        -11    1    3    3    0    0 -0.86283775971E+01 -0.29602699940E+02 -0.69141435790E+01  0.31600223502E+02  0.51100000000E-03 0.  1.
        -12    1    3    3    0    0  0.18618363108E+02  0.17944611563E+01  0.78419619247E+01  0.20282009331E+02  0.00000000000E+00 0.  1.
</event>
<event>
 7    1  0.6065977E-013  0.5930189E+02  0.7816164E-02  0.1266605E+00
        -11   -1    0    0    0    0  0.00000000000E+00  0.00000000000E+00  0.45593999997E+02  0.45594000000E+02  0.51100000000E-03 0. -1.
         11   -1    0    0    0    0 -0.00000000000E+00 -0.00000000000E+00 -0.45593999997E+02  0.45594000000E+02  0.51100000000E-03 0.  1.
    9900012    2    1    2    0    0 -0.96590587277E+01 -0.19157353779E+02  0.23588604465E+02  0.59301892054E+02  0.49999905213E+02 0.  0.
        -12    1    1    2    0    0  0.96590587277E+01  0.19157353779E+02 -0.23588604465E+02  0.31886107946E+02  0.00000000000E+00 0.  1.
         11    1    3    3    0    0 -0.16154047035E+02 -0.16096192380E+02  0.26258756915E+02  0.34778771682E+02  0.51100000000E-03 0. -1.
        -11    1    3    3    0    0  0.14424378874E+02 -0.62343408034E+01 -0.28996726533E+01  0.15979293255E+02  0.51100000000E-03 0.  1.
        -12    1    3    3    0    0 -0.79293905665E+01  0.31731794040E+01  0.22952020341E+00  0.85438271173E+01  0.00000000000E+00 0.  1.
</event>
<event>
 7    1  0.6065977E-013  0.5930194E+02  0.7816164E-02  0.1266605E+00
        -11   -1    0    0    0    0  0.00000000000E+00  0.00000000000E+00  0.45593999997E+02  0.45594000000E+02  0.51100000000E-03 0.  1.
         11   -1    0    0    0    0 -0.00000000000E+00 -0.00000000000E+00 -0.45593999997E+02  0.45594000000E+02  0.51100000000E-03 0. -1.
    9900012    2    1    2    0    0 -0.72868270591E+01  0.21410338077E+02 -0.22477111318E+02  0.59301937866E+02  0.49999988763E+02 0.  0.
        -12    1    1    2    0    0  0.72868270591E+01 -0.21410338077E+02  0.22477111318E+02  0.31886062134E+02  0.00000000000E+00 0.  1.
         11    1    3    3    0    0 -0.51223729006E+01  0.35284637968E+01  0.11481659284E+02  0.13058225801E+02  0.51100000000E-03 0.  1.
        -11    1    3    3    0    0  0.12761337989E+01 -0.21563049618E+01 -0.23020883814E+02  0.23156840467E+02  0.51100000000E-03 0. -1.
        -12    1    3    3    0    0 -0.34405879575E+01  0.20038179242E+02 -0.10937886788E+02  0.23086871599E+02  0.00000000000E+00 0.  1.
</event>
<event>
 7    1  0.6065977E-013  0.5930195E+02  0.7816164E-02  0.1266605E+00
        -11   -1    0    0    0    0  0.00000000000E+00  0.00000000000E+00  0.45593999997E+02  0.45594000000E+02  0.51100000000E-03 0.  1.
         11   -1    0    0    0    0 -0.00000000000E+00 -0.00000000000E+00 -0.45593999997E+02  0.45594000000E+02  0.51100000000E-03 0. -1.
    9900012    2    1    2    0    0 -0.29855054731E+02 -0.10811335784E+02 -0.29173910018E+01  0.59301945922E+02  0.50000003454E+02 0.  0.
        -12    1    1    2    0    0  0.29855054731E+02  0.10811335784E+02  0.29173910018E+01  0.31886054078E+02  0.00000000000E+00 0.  1.
         11    1    3    3    0    0  0.10103443094E+02 -0.92988032554E+01 -0.58112885828E+01  0.14910344717E+02  0.51100000000E-03 0.  1.
        -11    1    3    3    0    0 -0.30314641878E+02 -0.14263097478E+01 -0.63803818696E+01  0.31011629185E+02  0.51100000000E-03 0. -1.
         12    1    3    3    0    0 -0.96438559473E+01 -0.86222781072E-01  0.92742794506E+01  0.13379972019E+02  0.00000000000E+00 0. -1.
</event>
<event>
 7    1  0.6065977E-013  0.5930195E+02  0.7816164E-02  0.1266605E+00
        -11   -1    0    0    0    0  0.00000000000E+00  0.00000000000E+00  0.45593999997E+02  0.45594000000E+02  0.51100000000E-03 0. -1.
         11   -1    0    0    0    0 -0.00000000000E+00 -0.00000000000E+00 -0.45593999997E+02  0.45594000000E+02  0.51100000000E-03 0.  1.
    9900012    2    1    2    0    0  0.21804522844E+02  0.20857811587E+02  0.10307011663E+02  0.59301952736E+02  0.50000015882E+02 0.  0.
        -12    1    1    2    0    0 -0.21804522844E+02 -0.20857811587E+02 -0.10307011663E+02  0.31886047264E+02  0.00000000000E+00 0.  1.
         11    1    3    3    0    0  0.31761203781E+02  0.45224751696E+01  0.12182718733E+02  0.34316839646E+02  0.51100000000E-03 0. -1.
        -11    1    3    3    0    0 -0.66456165592E+01 -0.51102120736E+00 -0.38598279088E+01  0.77021837081E+01  0.51100000000E-03 0.  1.
         12    1    3    3    0    0 -0.33110643775E+01  0.16846357625E+02  0.19841208388E+01  0.17282929383E+02  0.00000000000E+00 0. -1.
</event>
<event>
 7    1  0.6065977E-013  0.5930194E+02  0.7816164E-02  0.1266605E+00
        -11   -1    0    0    0    0  0.00000000000E+00  0.00000000000E+00  0.45593999997E+02  0.45594000000E+02  0.51100000000E-03 0.  1.
         11   -1    0    0    0    0 -0.00000000000E+00 -0.00000000000E+00 -0.45593999997E+02  0.45594000000E+02  0.51100000000E-03 0. -1.
    9900012    2    1    2    0    0  0.23795888484E+02  0.92294723552E+00 -0.21204351892E+02  0.59301942240E+02  0.49999996739E+02 0.  0.
        -12    1    1    2    0    0 -0.23795888484E+02 -0.92294723552E+00  0.21204351892E+02  0.31886057760E+02  0.00000000000E+00 0.  1.
         11    1    3    3    0    0 -0.33006115375E+01 -0.10833223185E+02 -0.20678990501E+02  0.23576967776E+02  0.51100000000E-03 0. -1.
        -11    1    3    3    0    0  0.58168041127E+01  0.16856135721E+01  0.85639595584E+01  0.10488942119E+02  0.51100000000E-03 0.  1.
         12    1    3    3    0    0  0.21279695909E+02  0.10070556848E+02 -0.90893209491E+01  0.25236032345E+02  0.00000000000E+00 0. -1.
</event>
<event>
 7    1  0.6065977E-013  0.5930194E+02  0.7816164E-02  0.1266605E+00
        -11   -1    0    0    0    0  0.00000000000E+00  0.00000000000E+00  0.45593999997E+02  0.45594000000E+02  0.51100000000E-03 0. -1.
         11   -1    0    0    0    0 -0.00000000000E+00 -0.00000000000E+00 -0.45593999997E+02  0.45594000000E+02  0.51100000000E-03 0.  1.
    9900012    2    1    2    0    0 -0.68768282322E+01 -0.94768804076E+01  0.29658365533E+02  0.59301942312E+02  0.49999996871E+02 0.  0.
        -12    1    1    2    0    0  0.68768282322E+01  0.94768804076E+01 -0.29658365533E+02  0.31886057688E+02  0.00000000000E+00 0.  1.
         11    1    3    3    0    0 -0.18688620812E+02 -0.68770645978E+01 -0.12798021325E+01  0.19954860539E+02  0.51100000000E-03 0. -1.
        -11    1    3    3    0    0  0.17456168059E+02 -0.16263512068E+01  0.17651735276E+02  0.24878637022E+02  0.51100000000E-03 0.  1.
        -12    1    3    3    0    0 -0.56443754789E+01 -0.97346460298E+00  0.13286432390E+02  0.14468444752E+02  0.00000000000E+00 0.  1.
</event>
<event>
 7    1  0.6065977E-013  0.5930196E+02  0.7816164E-02  0.1266605E+00
        -11   -1    0    0    0    0  0.00000000000E+00  0.00000000000E+00  0.45593999997E+02  0.45594000000E+02  0.51100000000E-03 0. -1.
         11   -1    0    0    0    0 -0.00000000000E+00 -0.00000000000E+00 -0.45593999997E+02  0.45594000000E+02  0.51100000000E-03 0.  1.
    9900012    2    1    2    0    0  0.20400478272E+02 -0.22610723282E+02 -0.94496250868E+01  0.59301957045E+02  0.50000023741E+02 0.  0.
        -12    1    1    2    0    0 -0.20400478272E+02  0.22610723282E+02  0.94496250868E+01  0.31886042955E+02  0.00000000000E+00 0.  1.
         11    1    3    3    0    0  0.90026575919E+01 -0.19783016811E+02 -0.17477722649E+01  0.21805281608E+02  0.51100000000E-03 0. -1.
        -11    1    3    3    0    0 -0.57540678005E+01  0.12455819766E+02 -0.31188561616E+01  0.14070678958E+02  0.51100000000E-03 0.  1.
         12    1    3    3    0    0  0.17151888480E+02 -0.15283526237E+02 -0.45829966603E+01  0.23425996480E+02  0.00000000000E+00 0. -1.
</event>
<event>
 7    1  0.6065977E-013  0.5930197E+02  0.7816164E-02  0.1266605E+00
        -11   -1    0    0    0    0  0.00000000000E+00  0.00000000000E+00  0.45593999997E+02  0.45594000000E+02  0.51100000000E-03 0. -1.
         11   -1    0    0    0    0 -0.00000000000E+00 -0.00000000000E+00 -0.45593999997E+02  0.45594000000E+02  0.51100000000E-03 0.  1.
    9900012    2    1    2    0    0 -0.81258909312E+01  0.25114370784E+02  0.17887345979E+02  0.59301970622E+02  0.50000048502E+02 0.  0.
        -12    1    1    2    0    0  0.81258909312E+01 -0.25114370784E+02 -0.17887345979E+02  0.31886029378E+02  0.00000000000E+00 0.  1.
         11    1    3    3    0    0  0.16284517598E+01  0.37736447989E+02  0.17515998293E+02  0.41635340258E+02  0.51100000000E-03 0. -1.
        -11    1    3    3    0    0 -0.80183969410E+00 -0.41039044025E+01 -0.26431146875E+01  0.49468205700E+01  0.51100000000E-03 0.  1.
         12    1    3    3    0    0 -0.89525029969E+01 -0.85181728025E+01  0.30144623734E+01  0.12719809794E+02  0.00000000000E+00 0. -1.
</event>
<event>
 7    1  0.6065977E-013  0.5930190E+02  0.7816164E-02  0.1266605E+00
        -11   -1    0    0    0    0  0.00000000000E+00  0.00000000000E+00  0.45593999997E+02  0.45594000000E+02  0.51100000000E-03 0. -1.
         11   -1    0    0    0    0 -0.00000000000E+00 -0.00000000000E+00 -0.45593999997E+02  0.45594000000E+02  0.51100000000E-03 0.  1.
    9900012    2    1    2    0    0 -0.28253959353E+01  0.29213199707E+02  0.12463125239E+02  0.59301899736E+02  0.49999919223E+02 0.  0.
        -12    1    1    2    0    0  0.28253959353E+01 -0.29213199707E+02 -0.12463125239E+02  0.31886100264E+02  0.00000000000E+00 0.  1.
         11    1    3    3    0    0  0.54200358240E+01 -0.13220319234E+02  0.10784400754E+01  0.14328875122E+02  0.51100000000E-03 0.  1.
        -11    1    3    3    0    0 -0.14375841198E+01  0.19765008439E+02  0.59048442573E+01  0.20678234757E+02  0.51100000000E-03 0. -1.
         12    1    3    3    0    0 -0.68078476395E+01  0.22668510503E+02  0.54798409059E+01  0.24294789858E+02  0.00000000000E+00 0. -1.
</event>
<event>
 7    1  0.6065977E-013  0.5930194E+02  0.7816164E-02  0.1266605E+00
        -11   -1    0    0    0    0  0.00000000000E+00  0.00000000000E+00  0.45593999997E+02  0.45594000000E+02  0.51100000000E-03 0.  1.
         11   -1    0    0    0    0 -0.00000000000E+00 -0.00000000000E+00 -0.45593999997E+02  0.45594000000E+02  0.51100000000E-03 0. -1.
    9900012    2    1    2    0    0 -0.79238308807E+01  0.55965122229E+01 -0.30374543056E+02  0.59301938614E+02  0.49999990126E+02 0.  0.
        -12    1    1    2    0    0  0.79238308807E+01 -0.55965122229E+01  0.30374543056E+02  0.31886061386E+02  0.00000000000E+00 0.  1.
         11    1    3    3    0    0 -0.81673020269E+00  0.41353152858E+00 -0.16300977871E+02  0.16326663357E+02  0.51100000000E-03 0. -1.
        -11    1    3    3    0    0 -0.94876210600E+01  0.11410847993E+01  0.12644081867E+02  0.15848969506E+02  0.51100000000E-03 0.  1.
        -12    1    3    3    0    0  0.23805203820E+01  0.40418958950E+01 -0.26717647051E+02  0.27126305750E+02  0.00000000000E+00 0.  1.
</event>
<event>
 7    1  0.6065977E-013  0.5930196E+02  0.7816164E-02  0.1266605E+00
        -11   -1    0    0    0    0  0.00000000000E+00  0.00000000000E+00  0.45593999997E+02  0.45594000000E+02  0.51100000000E-03 0.  1.
         11   -1    0    0    0    0 -0.00000000000E+00 -0.00000000000E+00 -0.45593999997E+02  0.45594000000E+02  0.51100000000E-03 0. -1.
    9900012    2    1    2    0    0 -0.23990682994E+02 -0.17813898845E+02 -0.11127978924E+02  0.59301956383E+02  0.50000022534E+02 0.  0.
        -12    1    1    2    0    0  0.23990682994E+02  0.17813898845E+02  0.11127978924E+02  0.31886043617E+02  0.00000000000E+00 0.  1.
         11    1    3    3    0    0 -0.19486337811E+02 -0.91838066580E+01  0.17164613582E+02  0.27544212200E+02  0.51100000000E-03 0. -1.
        -11    1    3    3    0    0  0.18369447102E+01 -0.77264581216E+01 -0.14006000457E+02  0.16100949352E+02  0.51100000000E-03 0.  1.
         12    1    3    3    0    0 -0.63412898932E+01 -0.90363406554E+00 -0.14286592049E+02  0.15656794831E+02  0.00000000000E+00 0. -1.
</event>
<event>
 7    1  0.6065977E-013  0.5930195E+02  0.7816164E-02  0.1266605E+00
        -11   -1    0    0    0    0  0.00000000000E+00  0.00000000000E+00  0.45593999997E+02  0.45594000000E+02  0.51100000000E-03 0. -1.
         11   -1    0    0    0    0 -0.00000000000E+00 -0.00000000000E+00 -0.45593999997E+02  0.45594000000E+02  0.51100000000E-03 0.  1.
    9900012    2    1    2    0    0 -0.26502823338E+02  0.86092642489E+01  0.15498426485E+02  0.59301948201E+02  0.50000007611E+02 0.  0.
        -12    1    1    2    0    0  0.26502823338E+02 -0.86092642489E+01 -0.15498426485E+02  0.31886051799E+02  0.00000000000E+00 0.  1.
         11    1    3    3    0    0 -0.28968089192E+02  0.86504198644E+01  0.26064161274E+02  0.39916418407E+02  0.51100000000E-03 0. -1.
        -11    1    3    3    0    0 -0.26388012561E+01 -0.70719139225E+01 -0.44728428202E+01  0.87739137078E+01  0.51100000000E-03 0.  1.
         12    1    3    3    0    0  0.51040671094E+01  0.70307583070E+01 -0.60928919684E+01  0.10611616087E+02  0.00000000000E+00 0. -1.
</event>
<event>
 7    1  0.6065977E-013  0.5930195E+02  0.7816164E-02  0.1266605E+00
        -11   -1    0    0    0    0  0.00000000000E+00  0.00000000000E+00  0.45593999997E+02  0.45594000000E+02  0.51100000000E-03 0.  1.
         11   -1    0    0    0    0 -0.00000000000E+00 -0.00000000000E+00 -0.45593999997E+02  0.45594000000E+02  0.51100000000E-03 0. -1.
    9900012    2    1    2    0    0  0.11653931459E+02  0.26783811090E+00 -0.29678851132E+02  0.59301951950E+02  0.50000014448E+02 0.  0.
        -12    1    1    2    0    0 -0.11653931459E+02 -0.26783811090E+00  0.29678851132E+02  0.31886048050E+02  0.00000000000E+00 0.  1.
         11    1    3    3    0    0  0.25169532940E+02  0.41030168027E+01 -0.31305288953E+02  0.40377732130E+02  0.51100000000E-03 0. -1.
        -11    1    3    3    0    0 -0.10842169689E+02 -0.57650476964E+01  0.58205413731E+01  0.13589228111E+02  0.51100000000E-03 0.  1.
         12    1    3    3    0    0 -0.26734317914E+01  0.19298690046E+01 -0.41941035530E+01  0.53349917086E+01  0.00000000000E+00 0. -1.
</event>
<event>
 7    1  0.6065977E-013  0.5930194E+02  0.7816164E-02  0.1266605E+00
        -11   -1    0    0    0    0  0.00000000000E+00  0.00000000000E+00  0.45593999997E+02  0.45594000000E+02  0.51100000000E-03 0. -1.
         11   -1    0    0    0    0 -0.00000000000E+00 -0.00000000000E+00 -0.45593999997E+02  0.45594000000E+02  0.51100000000E-03 0.  1.
    9900012    2    1    2    0    0  0.73328348364E+01 -0.30950225899E+02 -0.22435667648E+01  0.59301944400E+02  0.50000000678E+02 0.  0.
        -12    1    1    2    0    0 -0.73328348364E+01  0.30950225899E+02  0.22435667648E+01  0.31886055600E+02  0.00000000000E+00 0.  1.
         11    1    3    3    0    0 -0.59643666029E+01 -0.29927695281E+02  0.12630468248E+02  0.33026797336E+02  0.51100000000E-03 0. -1.
        -11    1    3    3    0    0  0.56064637328E+01  0.76849151995E+01 -0.96057272431E+01  0.13518888761E+02  0.51100000000E-03 0.  1.
         12    1    3    3    0    0  0.76907377064E+01 -0.87074458168E+01 -0.52683077699E+01  0.12756258303E+02  0.00000000000E+00 0. -1.
</event>
<event>
 7    1  0.6065977E-013  0.5930194E+02  0.7816164E-02  0.1266605E+00
        -11   -1    0    0    0    0  0.00000000000E+00  0.00000000000E+00  0.45593999997E+02  0.45594000000E+02  0.51100000000E-03 0.  1.
         11   -1    0    0    0    0 -0.00000000000E+00 -0.00000000000E+00 -0.45593999997E+02  0.45594000000E+02  0.51100000000E-03 0. -1.
    9900012    2    1    2    0    0  0.25338401062E+02 -0.43983929512E+01 -0.18850479430E+02  0.59301937157E+02  0.49999987469E+02 0.  0.
        -12    1    1    2    0    0 -0.25338401062E+02  0.43983929512E+01  0.18850479430E+02  0.31886062843E+02  0.00000000000E+00 0.  1.
         11    1    3    3    0    0  0.31677876044E+02 -0.18696625451E+01 -0.15203960246E+02  0.35187268665E+02  0.51100000000E-03 0. -1.
        -11    1    3    3    0    0 -0.92967202428E+01 -0.11265646729E+02 -0.25244389042E+01  0.14822840333E+02  0.51100000000E-03 0.  1.
        -12    1    3    3    0    0  0.29572452602E+01  0.87369163230E+01 -0.11220802797E+01  0.92918281581E+01  0.00000000000E+00 0.  1.
</event>
<event>
 7    1  0.6065977E-013  0.5930193E+02  0.7816164E-02  0.1266605E+00
        -11   -1    0    0    0    0  0.00000000000E+00  0.00000000000E+00  0.45593999997E+02  0.45594000000E+02  0.51100000000E-03 0.  1.
         11   -1    0    0    0    0 -0.00000000000E+00 -0.00000000000E+00 -0.45593999997E+02  0.45594000000E+02  0.51100000000E-03 0. -1.
    9900012    2    1    2    0    0  0.95609824661E+01 -0.16394947954E+02 -0.25622543436E+02  0.59301930373E+02  0.49999975097E+02 0.  0.
        -12    1    1    2    0    0 -0.95609824661E+01  0.16394947954E+02  0.25622543436E+02  0.31886069627E+02  0.00000000000E+00 0.  1.
         11    1    3    3    0    0 -0.55134727874E+01 -0.20740005073E+02 -0.26245734362E+02  0.33902577558E+02  0.51100000000E-03 0. -1.
        -11    1    3    3    0    0  0.16238186308E+02  0.73023988060E+01 -0.53860886362E+01  0.18601442792E+02  0.51100000000E-03 0.  1.
         12    1    3    3    0    0 -0.11637310546E+01 -0.29573416872E+01  0.60092795624E+01  0.67979100231E+01  0.00000000000E+00 0. -1.
</event>
<event>
 7    1  0.6065977E-013  0.5930192E+02  0.7816164E-02  0.1266605E+00
        -11   -1    0    0    0    0  0.00000000000E+00  0.00000000000E+00  0.45593999997E+02  0.45594000000E+02  0.51100000000E-03 0.  1.
         11   -1    0    0    0    0 -0.00000000000E+00 -0.00000000000E+00 -0.45593999997E+02  0.45594000000E+02  0.51100000000E-03 0. -1.
    9900012    2    1    2    0    0  0.27506741347E+02 -0.15998441833E+02 -0.20373707743E+01  0.59301924038E+02  0.49999963543E+02 0.  0.
        -12    1    1    2    0    0 -0.27506741347E+02  0.15998441833E+02  0.20373707743E+01  0.31886075962E+02  0.00000000000E+00 0.  1.
         11    1    3    3    0    0  0.10982623427E+02 -0.71516915551E+00 -0.83516727715E+01  0.13815930031E+02  0.51100000000E-03 0. -1.
        -11    1    3    3    0    0  0.57190428853E+01 -0.29150974790E+01  0.21914054400E+02  0.22834864250E+02  0.51100000000E-03 0.  1.
        -12    1    3    3    0    0  0.10805075034E+02 -0.12368175198E+02 -0.15599752403E+02  0.22651129757E+02  0.00000000000E+00 0.  1.
</event>
<event>
 7    1  0.6065977E-013  0.5930195E+02  0.7816164E-02  0.1266605E+00
        -11   -1    0    0    0    0  0.00000000000E+00  0.00000000000E+00  0.45593999997E+02  0.45594000000E+02  0.51100000000E-03 0.  1.
         11   -1    0    0    0    0 -0.00000000000E+00 -0.00000000000E+00 -0.45593999997E+02  0.45594000000E+02  0.51100000000E-03 0. -1.
    9900012    2    1    2    0    0 -0.15088101857E+02  0.26849018171E+02 -0.82583230089E+01  0.59301945159E+02  0.50000002064E+02 0.  0.
        -12    1    1    2    0    0  0.15088101857E+02 -0.26849018171E+02  0.82583230089E+01  0.31886054841E+02  0.00000000000E+00 0.  1.
         11    1    3    3    0    0 -0.77769339913E+00  0.21343012033E+02 -0.24594258570E+02  0.32573095102E+02  0.51100000000E-03 0. -1.
        -11    1    3    3    0    0 -0.15090678894E+02  0.50735134397E+01  0.70697701293E+01  0.17419838634E+02  0.51100000000E-03 0.  1.
         12    1    3    3    0    0  0.78027043558E+00  0.43249269784E+00  0.92661654313E+01  0.93090114237E+01  0.00000000000E+00 0. -1.
</event>
<event>
 7    1  0.6065977E-013  0.5930193E+02  0.7816164E-02  0.1266605E+00
        -11   -1    0    0    0    0  0.00000000000E+00  0.00000000000E+00  0.45593999997E+02  0.45594000000E+02  0.51100000000E-03 0. -1.
         11   -1    0    0    0    0 -0.00000000000E+00 -0.00000000000E+00 -0.45593999997E+02  0.45594000000E+02  0.51100000000E-03 0.  1.
    9900012    2    1    2    0    0  0.22660555043E+02  0.21034636558E+02 -0.77951631787E+01  0.59301933154E+02  0.49999980168E+02 0.  0.
        -12    1    1    2    0    0 -0.22660555043E+02 -0.21034636558E+02  0.77951631787E+01  0.31886066846E+02  0.00000000000E+00 0.  1.
         11    1    3    3    0    0  0.14435497443E+02 -0.69468079759E+01  0.66806322883E+01  0.17357205291E+02  0.51100000000E-03 0. -1.
        -11    1    3    3    0    0 -0.36702770679E+01  0.27036958899E+02 -0.11733558223E+02  0.29700916974E+02  0.51100000000E-03 0.  1.
        -12    1    3    3    0    0  0.11895334668E+02  0.94448563439E+00 -0.27422372439E+01  0.12243810888E+02  0.00000000000E+00 0.  1.
</event>
<event>
 7    1  0.6065977E-013  0.5930194E+02  0.7816164E-02  0.1266605E+00
        -11   -1    0    0    0    0  0.00000000000E+00  0.00000000000E+00  0.45593999997E+02  0.45594000000E+02  0.51100000000E-03 0. -1.
         11   -1    0    0    0    0 -0.00000000000E+00 -0.00000000000E+00 -0.45593999997E+02  0.45594000000E+02  0.51100000000E-03 0.  1.
    9900012    2    1    2    0    0 -0.43708397557E+01  0.20047595863E+02  0.24407179460E+02  0.59301941146E+02  0.49999994744E+02 0.  0.
        -12    1    1    2    0    0  0.43708397557E+01 -0.20047595863E+02 -0.24407179460E+02  0.31886058854E+02  0.00000000000E+00 0.  1.
         11    1    3    3    0    0 -0.10164355137E+02 -0.62052036105E+01 -0.84120403466E+01  0.14580160844E+02  0.51100000000E-03 0. -1.
        -11    1    3    3    0    0  0.97548109478E+01  0.11458395801E+02  0.16991352963E+02  0.22697075731E+02  0.51100000000E-03 0.  1.
         12    1    3    3    0    0 -0.39612955668E+01  0.14794403672E+02  0.15827866844E+02  0.22024704571E+02  0.00000000000E+00 0. -1.
</event>
<event>
 7    1  0.6065977E-013  0.5930195E+02  0.7816164E-02  0.1266605E+00
        -11   -1    0    0    0    0  0.00000000000E+00  0.00000000000E+00  0.45593999997E+02  0.45594000000E+02  0.51100000000E-03 0.  1.
         11   -1    0    0    0    0 -0.00000000000E+00 -0.00000000000E+00 -0.45593999997E+02  0.45594000000E+02  0.51100000000E-03 0. -1.
    9900012    2    1    2    0    0  0.55572676991E+01  0.12084809068E+02 -0.28979210462E+02  0.59301945470E+02  0.50000002630E+02 0.  0.
        -12    1    1    2    0    0 -0.55572676991E+01 -0.12084809068E+02  0.28979210462E+02  0.31886054530E+02  0.00000000000E+00 0.  1.
         11    1    3    3    0    0  0.11832980466E+02 -0.25281914593E+01 -0.21332783955E+02  0.24525473498E+02  0.51100000000E-03 0. -1.
        -11    1    3    3    0    0 -0.11211537259E+02  0.22070919255E+02 -0.38171809469E+01  0.25047852505E+02  0.51100000000E-03 0.  1.
        -12    1    3    3    0    0  0.49358244922E+01 -0.74579187279E+01 -0.38292455604E+01  0.97286194669E+01  0.00000000000E+00 0.  1.
</event>
<event>
 7    1  0.6065977E-013  0.5930197E+02  0.7816164E-02  0.1266605E+00
        -11   -1    0    0    0    0  0.00000000000E+00  0.00000000000E+00  0.45593999997E+02  0.45594000000E+02  0.51100000000E-03 0. -1.
         11   -1    0    0    0    0 -0.00000000000E+00 -0.00000000000E+00 -0.45593999997E+02  0.45594000000E+02  0.51100000000E-03 0.  1.
    9900012    2    1    2    0    0  0.15296145850E+01  0.21356468503E+02  0.23627964767E+02  0.59301965647E+02  0.50000039429E+02 0.  0.
        -12    1    1    2    0    0 -0.15296145850E+01 -0.21356468503E+02 -0.23627964767E+02  0.31886034353E+02  0.00000000000E+00 0.  1.
         11    1    3    3    0    0  0.14739634875E+01  0.14254789991E+02  0.27565935548E+02  0.31068511534E+02  0.51100000000E-03 0. -1.
        -11    1    3    3    0    0  0.14751545383E+01 -0.82190609967E+01 -0.87666905255E+01  0.12107184132E+02  0.51100000000E-03 0.  1.
         12    1    3    3    0    0 -0.14195034408E+01  0.15320739510E+02  0.48287197446E+01  0.16126269981E+02  0.00000000000E+00 0. -1.
</event>
<event>
 7    1  0.6065977E-013  0.5930193E+02  0.7816164E-02  0.1266605E+00
        -11   -1    0    0    0    0  0.00000000000E+00  0.00000000000E+00  0.45593999997E+02  0.45594000000E+02  0.51100000000E-03 0. -1.
         11   -1    0    0    0    0 -0.00000000000E+00 -0.00000000000E+00 -0.45593999997E+02  0.45594000000E+02  0.51100000000E-03 0.  1.
    9900012    2    1    2    0    0 -0.67026844385E+01 -0.29940257644E+02 -0.86819661419E+01  0.59301928706E+02  0.49999972057E+02 0.  0.
        -12    1    1    2    0    0  0.67026844385E+01  0.29940257644E+02  0.86819661419E+01  0.31886071294E+02  0.00000000000E+00 0.  1.
         11    1    3    3    0    0  0.32030457359E+01  0.92248670537E+01  0.32663248991E+01  0.10296919576E+02  0.51100000000E-03 0. -1.
        -11    1    3    3    0    0 -0.12535404106E+02 -0.38218847532E+02 -0.38122534839E+01  0.40402350670E+02  0.51100000000E-03 0.  1.
        -12    1    3    3    0    0  0.26296739318E+01 -0.94627716571E+00 -0.81360375571E+01  0.86026584607E+01  0.00000000000E+00 0.  1.
</event>
<event>
 7    1  0.6065977E-013  0.5930193E+02  0.7816164E-02  0.1266605E+00
        -11   -1    0    0    0    0  0.00000000000E+00  0.00000000000E+00  0.45593999997E+02  0.45594000000E+02  0.51100000000E-03 0. -1.
         11   -1    0    0    0    0 -0.00000000000E+00 -0.00000000000E+00 -0.45593999997E+02  0.45594000000E+02  0.51100000000E-03 0.  1.
    9900012    2    1    2    0    0  0.12081289038E+02  0.30989931527E+01  0.29345529945E+02  0.59301930454E+02  0.49999975244E+02 0.  0.
        -12    1    1    2    0    0 -0.12081289038E+02 -0.30989931527E+01 -0.29345529945E+02  0.31886069546E+02  0.00000000000E+00 0.  1.
         11    1    3    3    0    0 -0.12294330826E+02  0.16809678630E+02  0.90407392891E+01  0.22703542306E+02  0.51100000000E-03 0. -1.
        -11    1    3    3    0    0  0.16613050827E+02 -0.84518135322E+01  0.61652539725E+01  0.19632548652E+02  0.51100000000E-03 0.  1.
         12    1    3    3    0    0  0.77625690360E+01 -0.52588719450E+01  0.14139536683E+02  0.16965839495E+02  0.00000000000E+00 0. -1.
</event>
<event>
 7    1  0.6065977E-013  0.5930194E+02  0.7816164E-02  0.1266605E+00
        -11   -1    0    0    0    0  0.00000000000E+00  0.00000000000E+00  0.45593999997E+02  0.45594000000E+02  0.51100000000E-03 0.  1.
         11   -1    0    0    0    0 -0.00000000000E+00 -0.00000000000E+00 -0.45593999997E+02  0.45594000000E+02  0.51100000000E-03 0. -1.
    9900012    2    1    2    0    0 -0.64809222005E+01 -0.75978296276E+01 -0.30281865456E+02  0.59301941242E+02  0.49999994920E+02 0.  0.
        -12    1    1    2    0    0  0.64809222005E+01  0.75978296276E+01  0.30281865456E+02  0.31886058758E+02  0.00000000000E+00 0.  1.
         11    1    3    3    0    0  0.67436352294E+00  0.14419240963E+02  0.21038631424E+01  0.14587512347E+02  0.51100000000E-03 0. -1.
        -11    1    3    3    0    0 -0.73370647771E+01 -0.21676816114E+02 -0.15084955186E+02  0.27409355148E+02  0.51100000000E-03 0.  1.
         12    1    3    3    0    0  0.18177905367E+00 -0.34025447591E+00 -0.17300773412E+02  0.17305073747E+02  0.00000000000E+00 0. -1.
</event>
<event>
 7    1  0.6065977E-013  0.5930194E+02  0.7816164E-02  0.1266605E+00
        -11   -1    0    0    0    0  0.00000000000E+00  0.00000000000E+00  0.45593999997E+02  0.45594000000E+02  0.51100000000E-03 0.  1.
         11   -1    0    0    0    0 -0.00000000000E+00 -0.00000000000E+00 -0.45593999997E+02  0.45594000000E+02  0.51100000000E-03 0. -1.
    9900012    2    1    2    0    0  0.13575524830E+02  0.28850267742E+02  0.29623594152E+00  0.59301943816E+02  0.49999999614E+02 0.  0.
        -12    1    1    2    0    0 -0.13575524830E+02 -0.28850267742E+02 -0.29623594152E+00  0.31886056184E+02  0.00000000000E+00 0.  1.
         11    1    3    3    0    0  0.43807782274E+01  0.10489147821E+02  0.19228020195E+02  0.22336745528E+02  0.51100000000E-03 0.  1.
        -11    1    3    3    0    0  0.13045450391E+02  0.22302503744E+02 -0.13199492753E+02  0.29013997628E+02  0.51100000000E-03 0. -1.
        -12    1    3    3    0    0 -0.38507037883E+01 -0.39413838223E+01 -0.57322915003E+01  0.79512006605E+01  0.00000000000E+00 0.  1.
</event>
<event>
 7    1  0.6065977E-013  0.5930197E+02  0.7816164E-02  0.1266605E+00
        -11   -1    0    0    0    0  0.00000000000E+00  0.00000000000E+00  0.45593999997E+02  0.45594000000E+02  0.51100000000E-03 0. -1.
         11   -1    0    0    0    0 -0.00000000000E+00 -0.00000000000E+00 -0.45593999997E+02  0.45594000000E+02  0.51100000000E-03 0.  1.
    9900012    2    1    2    0    0 -0.11946184077E+02 -0.27465261961E+02 -0.10939247817E+02  0.59301967456E+02  0.50000042728E+02 0.  0.
        -12    1    1    2    0    0  0.11946184077E+02  0.27465261961E+02  0.10939247817E+02  0.31886032544E+02  0.00000000000E+00 0.  1.
         11    1    3    3    0    0  0.33930176439E+01 -0.19020454984E+02  0.16448312819E+02  0.25373948675E+02  0.51100000000E-03 0. -1.
        -11    1    3    3    0    0 -0.15822639743E+02 -0.50947186675E+01 -0.23282490132E+02  0.28607454164E+02  0.51100000000E-03 0.  1.
         12    1    3    3    0    0  0.48343802218E+00 -0.33500883095E+01 -0.41050705044E+01  0.53205646175E+01  0.00000000000E+00 0. -1.
</event>
<event>
 7    1  0.6065977E-013  0.5930197E+02  0.7816164E-02  0.1266605E+00
        -11   -1    0    0    0    0  0.00000000000E+00  0.00000000000E+00  0.45593999997E+02  0.45594000000E+02  0.51100000000E-03 0.  1.
         11   -1    0    0    0    0 -0.00000000000E+00 -0.00000000000E+00 -0.45593999997E+02  0.45594000000E+02  0.51100000000E-03 0. -1.
    9900012    2    1    2    0    0  0.16413756958E+02  0.18103910677E+02 -0.20483057643E+02  0.59301974069E+02  0.50000054789E+02 0.  0.
        -12    1    1    2    0    0 -0.16413756958E+02 -0.18103910677E+02  0.20483057643E+02  0.31886025931E+02  0.00000000000E+00 0.  1.
         11    1    3    3    0    0  0.10055277527E+02  0.31171983052E+02 -0.17215119466E+01  0.32798852681E+02  0.51100000000E-03 0. -1.
        -11    1    3    3    0    0  0.52061117939E+01 -0.88564947652E+01 -0.38591951889E+01  0.10974264773E+02  0.51100000000E-03 0.  1.
         12    1    3    3    0    0  0.11523676365E+01 -0.42115776104E+01 -0.14902350507E+02  0.15528856615E+02  0.00000000000E+00 0. -1.
</event>
<event>
 7    1  0.6065977E-013  0.5930188E+02  0.7816164E-02  0.1266605E+00
        -11   -1    0    0    0    0  0.00000000000E+00  0.00000000000E+00  0.45593999997E+02  0.45594000000E+02  0.51100000000E-03 0. -1.
         11   -1    0    0    0    0 -0.00000000000E+00 -0.00000000000E+00 -0.45593999997E+02  0.45594000000E+02  0.51100000000E-03 0.  1.
    9900012    2    1    2    0    0 -0.30709689890E+02 -0.85784344908E+01 -0.22344397849E+00  0.59301882039E+02  0.49999886947E+02 0.  0.
        -12    1    1    2    0    0  0.30709689890E+02  0.85784344908E+01  0.22344397849E+00  0.31886117961E+02  0.00000000000E+00 0.  1.
         11    1    3    3    0    0 -0.17886236498E+02 -0.12576278091E+02  0.22435054638E+02  0.31327494371E+02  0.51100000000E-03 0. -1.
        -11    1    3    3    0    0 -0.27307566040E+01  0.24623365802E+01 -0.14344929392E+02  0.14808684364E+02  0.51100000000E-03 0.  1.
         12    1    3    3    0    0 -0.10092696787E+02  0.15355070199E+01 -0.83135692237E+01  0.13165703304E+02  0.00000000000E+00 0. -1.
</event>
<event>
 7    1  0.6065977E-013  0.5930195E+02  0.7816164E-02  0.1266605E+00
        -11   -1    0    0    0    0  0.00000000000E+00  0.00000000000E+00  0.45593999997E+02  0.45594000000E+02  0.51100000000E-03 0.  1.
         11   -1    0    0    0    0 -0.00000000000E+00 -0.00000000000E+00 -0.45593999997E+02  0.45594000000E+02  0.51100000000E-03 0. -1.
    9900012    2    1    2    0    0  0.13738803260E+02 -0.27836673988E+02 -0.72859597285E+01  0.59301947518E+02  0.50000006365E+02 0.  0.
        -12    1    1    2    0    0 -0.13738803260E+02  0.27836673988E+02  0.72859597285E+01  0.31886052482E+02  0.00000000000E+00 0.  1.
         11    1    3    3    0    0 -0.52903243169E+00 -0.72452729132E+01 -0.75690497622E+01  0.10491156727E+02  0.51100000000E-03 0. -1.
        -11    1    3    3    0    0  0.26294861236E+02 -0.24705919163E+02 -0.37444092086E+00  0.36082438600E+02  0.51100000000E-03 0.  1.
        -12    1    3    3    0    0 -0.12027025544E+02  0.41145180884E+01  0.65753095465E+00  0.12728352191E+02  0.00000000000E+00 0.  1.
</event>
<event>
 7    1  0.6065977E-013  0.5930195E+02  0.7816164E-02  0.1266605E+00
        -11   -1    0    0    0    0  0.00000000000E+00  0.00000000000E+00  0.45593999997E+02  0.45594000000E+02  0.51100000000E-03 0. -1.
         11   -1    0    0    0    0 -0.00000000000E+00 -0.00000000000E+00 -0.45593999997E+02  0.45594000000E+02  0.51100000000E-03 0.  1.
    9900012    2    1    2    0    0  0.22422021609E+02 -0.16375810664E+02  0.15678193932E+02  0.59301953006E+02  0.50000016374E+02 0.  0.
        -12    1    1    2    0    0 -0.22422021609E+02  0.16375810664E+02 -0.15678193932E+02  0.31886046994E+02  0.00000000000E+00 0.  1.
         11    1    3    3    0    0  0.24939810776E+02  0.39902755469E+01  0.21918918694E+01  0.25351939782E+02  0.51100000000E-03 0. -1.
        -11    1    3    3    0    0 -0.34809867150E+00 -0.21765840869E+02  0.16452429348E+01  0.21830708325E+02  0.51100000000E-03 0.  1.
        -12    1    3    3    0    0 -0.21696904954E+01  0.13997546576E+01  0.11841059128E+02  0.12119304899E+02  0.00000000000E+00 0.  1.
</event>
<event>
 7    1  0.6065977E-013  0.5930195E+02  0.7816164E-02  0.1266605E+00
        -11   -1    0    0    0    0  0.00000000000E+00  0.00000000000E+00  0.45593999997E+02  0.45594000000E+02  0.51100000000E-03 0.  1.
         11   -1    0    0    0    0 -0.00000000000E+00 -0.00000000000E+00 -0.45593999997E+02  0.45594000000E+02  0.51100000000E-03 0. -1.
    9900012    2    1    2    0    0  0.57424819159E+01  0.16538336537E+02 -0.26650098708E+02  0.59301946072E+02  0.50000003728E+02 0.  0.
        -12    1    1    2    0    0 -0.57424819159E+01 -0.16538336537E+02  0.26650098708E+02  0.31886053928E+02  0.00000000000E+00 0.  1.
         11    1    3    3    0    0 -0.13155196860E+01 -0.94258576137E+01 -0.28286079486E+02  0.29844257015E+02  0.51100000000E-03 0. -1.
        -11    1    3    3    0    0 -0.17470640368E+01  0.14027795293E+02  0.33461396317E+01  0.14526800206E+02  0.51100000000E-03 0.  1.
         12    1    3    3    0    0  0.88050656386E+01  0.11936398858E+02 -0.17101588532E+01  0.14930888852E+02  0.00000000000E+00 0. -1.
</event>
<event>
 7    1  0.6065977E-013  0.5930205E+02  0.7816164E-02  0.1266604E+00
        -11   -1    0    0    0    0  0.00000000000E+00  0.00000000000E+00  0.45593999997E+02  0.45594000000E+02  0.51100000000E-03 0. -1.
         11   -1    0    0    0    0 -0.00000000000E+00 -0.00000000000E+00 -0.45593999997E+02  0.45594000000E+02  0.51100000000E-03 0.  1.
    9900012    2    1    2    0    0  0.29264131958E+02 -0.72011161670E+01  0.10414824851E+02  0.59302045882E+02  0.50000185758E+02 0.  0.
        -12    1    1    2    0    0 -0.29264131958E+02  0.72011161670E+01 -0.10414824851E+02  0.31885954118E+02  0.00000000000E+00 0.  1.
         11    1    3    3    0    0  0.45225571708E+01 -0.25391429555E+02  0.11971463662E+02  0.28434031735E+02  0.51100000000E-03 0. -1.
        -11    1    3    3    0    0  0.10894346850E+02  0.69204157765E+01 -0.16682613960E+01  0.13013917325E+02  0.51100000000E-03 0.  1.
         12    1    3    3    0    0  0.13847227938E+02  0.11269897612E+02  0.11162258477E+00  0.17854096823E+02  0.00000000000E+00 0. -1.
</event>
<event>
 7    1  0.6065977E-013  0.5930196E+02  0.7816164E-02  0.1266605E+00
        -11   -1    0    0    0    0  0.00000000000E+00  0.00000000000E+00  0.45593999997E+02  0.45594000000E+02  0.51100000000E-03 0.  1.
         11   -1    0    0    0    0 -0.00000000000E+00 -0.00000000000E+00 -0.45593999997E+02  0.45594000000E+02  0.51100000000E-03 0. -1.
    9900012    2    1    2    0    0 -0.19437399513E+02 -0.22240240174E+02  0.12011611405E+02  0.59301959302E+02  0.50000027857E+02 0.  0.
        -12    1    1    2    0    0  0.19437399513E+02  0.22240240174E+02 -0.12011611405E+02  0.31886040698E+02  0.00000000000E+00 0.  1.
         11    1    3    3    0    0 -0.11103176928E+02 -0.16808767056E+02 -0.10843501224E+02  0.22877864999E+02  0.51100000000E-03 0. -1.
        -11    1    3    3    0    0 -0.50934060555E+01  0.44692681106E+01  0.24901791932E+02  0.25807293240E+02  0.51100000000E-03 0.  1.
         12    1    3    3    0    0 -0.32408165298E+01 -0.99007412286E+01 -0.20466793031E+01  0.10616801064E+02  0.00000000000E+00 0. -1.
</event>
<event>
 7    1  0.6065977E-013  0.5930194E+02  0.7816164E-02  0.1266605E+00
        -11   -1    0    0    0    0  0.00000000000E+00  0.00000000000E+00  0.45593999997E+02  0.45594000000E+02  0.51100000000E-03 0.  1.
         11   -1    0    0    0    0 -0.00000000000E+00 -0.00000000000E+00 -0.45593999997E+02  0.45594000000E+02  0.51100000000E-03 0. -1.
    9900012    2    1    2    0    0  0.25773230509E+02  0.30209189313E+00  0.18771521824E+02  0.59301941887E+02  0.49999996096E+02 0.  0.
        -12    1    1    2    0    0 -0.25773230509E+02 -0.30209189313E+00 -0.18771521824E+02  0.31886058113E+02  0.00000000000E+00 0.  1.
         11    1    3    3    0    0  0.11530323164E+02  0.80259739045E+01 -0.23531538720E+01  0.14244365300E+02  0.51100000000E-03 0. -1.
        -11    1    3    3    0    0  0.35869425117E+00 -0.15249882985E+02  0.24544800378E+02  0.28898699252E+02  0.51100000000E-03 0.  1.
        -12    1    3    3    0    0  0.13884213094E+02  0.75260009734E+01 -0.34201246823E+01  0.16158877335E+02  0.00000000000E+00 0.  1.
</event>
<event>
 7    1  0.6065977E-013  0.5930196E+02  0.7816164E-02  0.1266605E+00
        -11   -1    0    0    0    0  0.00000000000E+00  0.00000000000E+00  0.45593999997E+02  0.45594000000E+02  0.51100000000E-03 0. -1.
         11   -1    0    0    0    0 -0.00000000000E+00 -0.00000000000E+00 -0.45593999997E+02  0.45594000000E+02  0.51100000000E-03 0.  1.
    9900012    2    1    2    0    0  0.26499358147E+02  0.67651524488E+01  0.16393184539E+02  0.59301956514E+02  0.50000022772E+02 0.  0.
        -12    1    1    2    0    0 -0.26499358147E+02 -0.67651524488E+01 -0.16393184539E+02  0.31886043486E+02  0.00000000000E+00 0.  1.
         11    1    3    3    0    0  0.61196639290E+01 -0.38323062125E+01  0.13790225586E+02  0.15566219177E+02  0.51100000000E-03 0. -1.
        -11    1    3    3    0    0  0.17703896080E+02  0.17905330234E+02 -0.11458362849E+02  0.27664469390E+02  0.51100000000E-03 0.  1.
        -12    1    3    3    0    0  0.26757981374E+01 -0.73078715723E+01  0.14061321802E+02  0.16071267947E+02  0.00000000000E+00 0.  1.
</event>
<event>
 7    1  0.6065977E-013  0.5930194E+02  0.7816164E-02  0.1266605E+00
        -11   -1    0    0    0    0  0.00000000000E+00  0.00000000000E+00  0.45593999997E+02  0.45594000000E+02  0.51100000000E-03 0. -1.
         11   -1    0    0    0    0 -0.00000000000E+00 -0.00000000000E+00 -0.45593999997E+02  0.45594000000E+02  0.51100000000E-03 0.  1.
    9900012    2    1    2    0    0 -0.26328885604E+02  0.98115810260E+01  0.15074603216E+02  0.59301937190E+02  0.49999987530E+02 0.  0.
        -12    1    1    2    0    0  0.26328885604E+02 -0.98115810260E+01 -0.15074603216E+02  0.31886062810E+02  0.00000000000E+00 0.  1.
         11    1    3    3    0    0 -0.24841986749E+02  0.20404496452E+02  0.15882618271E+02  0.35857012487E+02  0.51100000000E-03 0. -1.
        -11    1    3    3    0    0 -0.85259266517E+01 -0.11550524811E+02 -0.49931358490E+01  0.15199916268E+02  0.51100000000E-03 0.  1.
         12    1    3    3    0    0  0.70390277961E+01  0.95760938518E+00  0.41851207937E+01  0.82450084358E+01  0.00000000000E+00 0. -1.
</event>
<event>
 7    1  0.6065977E-013  0.5930194E+02  0.7816164E-02  0.1266605E+00
        -11   -1    0    0    0    0  0.00000000000E+00  0.00000000000E+00  0.45593999997E+02  0.45594000000E+02  0.51100000000E-03 0. -1.
         11   -1    0    0    0    0 -0.00000000000E+00 -0.00000000000E+00 -0.45593999997E+02  0.45594000000E+02  0.51100000000E-03 0.  1.
    9900012    2    1    2    0    0 -0.12401254735E+02 -0.13033665474E+02  0.26325904644E+02  0.59301940193E+02  0.49999993006E+02 0.  0.
        -12    1    1    2    0    0  0.12401254735E+02  0.13033665474E+02 -0.26325904644E+02  0.31886059807E+02  0.00000000000E+00 0.  1.
         11    1    3    3    0    0 -0.38300122946E+01  0.87973830703E+01  0.93533031371E+01  0.13399523234E+02  0.51100000000E-03 0. -1.
        -11    1    3    3    0    0 -0.17218944347E+02 -0.21616117556E+02  0.90098710977E+00  0.27650684633E+02  0.51100000000E-03 0.  1.
         12    1    3    3    0    0  0.86477019061E+01 -0.21493098790E+00  0.16071614397E+02  0.18251732327E+02  0.00000000000E+00 0. -1.
</event>
<event>
 7    1  0.6065977E-013  0.5930190E+02  0.7816164E-02  0.1266605E+00
        -11   -1    0    0    0    0  0.00000000000E+00  0.00000000000E+00  0.45593999997E+02  0.45594000000E+02  0.51100000000E-03 0. -1.
         11   -1    0    0    0    0 -0.00000000000E+00 -0.00000000000E+00 -0.45593999997E+02  0.45594000000E+02  0.51100000000E-03 0.  1.
    9900012    2    1    2    0    0 -0.18868594054E+02 -0.23816292410E+02  0.96686891125E+01  0.59301903110E+02  0.49999925376E+02 0.  0.
        -12    1    1    2    0    0  0.18868594054E+02  0.23816292410E+02 -0.96686891125E+01  0.31886096890E+02  0.00000000000E+00 0.  1.
         11    1    3    3    0    0  0.87251630248E+01  0.59276894497E+01  0.66935518282E+01  0.12492782251E+02  0.51100000000E-03 0. -1.
        -11    1    3    3    0    0 -0.15887909359E+02 -0.15818966963E+02 -0.99138759351E+01  0.24514287994E+02  0.51100000000E-03 0.  1.
         12    1    3    3    0    0 -0.11705847720E+02 -0.13925014896E+02  0.12889013219E+02  0.22294832865E+02  0.00000000000E+00 0. -1.
</event>
<event>
 7    1  0.6065977E-013  0.5930194E+02  0.7816164E-02  0.1266605E+00
        -11   -1    0    0    0    0  0.00000000000E+00  0.00000000000E+00  0.45593999997E+02  0.45594000000E+02  0.51100000000E-03 0.  1.
         11   -1    0    0    0    0 -0.00000000000E+00 -0.00000000000E+00 -0.45593999997E+02  0.45594000000E+02  0.51100000000E-03 0. -1.
    9900012    2    1    2    0    0  0.24276759103E+02 -0.16958984183E+02 -0.11821703049E+02  0.59301939722E+02  0.49999992147E+02 0.  0.
        -12    1    1    2    0    0 -0.24276759103E+02  0.16958984183E+02  0.11821703049E+02  0.31886060278E+02  0.00000000000E+00 0.  1.
         11    1    3    3    0    0  0.65172179878E+01 -0.20976016284E+02 -0.24373258772E+02  0.32810411958E+02  0.51100000000E-03 0. -1.
        -11    1    3    3    0    0 -0.19737908789E+01  0.19193088576E+01 -0.41804402516E+00  0.27846647900E+01  0.51100000000E-03 0.  1.
         12    1    3    3    0    0  0.19733331994E+02  0.20977232428E+01  0.12969599748E+02  0.23706862973E+02  0.00000000000E+00 0. -1.
</event>
<event>
 7    1  0.6065977E-013  0.5930195E+02  0.7816164E-02  0.1266605E+00
        -11   -1    0    0    0    0  0.00000000000E+00  0.00000000000E+00  0.45593999997E+02  0.45594000000E+02  0.51100000000E-03 0. -1.
         11   -1    0    0    0    0 -0.00000000000E+00 -0.00000000000E+00 -0.45593999997E+02  0.45594000000E+02  0.51100000000E-03 0.  1.
    9900012    2    1    2    0    0  0.17531601876E+02 -0.25884467849E+02  0.62735652804E+01  0.59301947226E+02  0.50000005833E+02 0.  0.
        -12    1    1    2    0    0 -0.17531601876E+02  0.25884467849E+02 -0.62735652804E+01  0.31886052774E+02  0.00000000000E+00 0.  1.
         11    1    3    3    0    0  0.26253571012E+01 -0.35716482917E+01  0.23275527020E+02  0.23693866923E+02  0.51100000000E-03 0. -1.
        -11    1    3    3    0    0  0.43153756011E+01  0.18765151855E+01 -0.12834406701E+01  0.48776014633E+01  0.51100000000E-03 0.  1.
         12    1    3    3    0    0  0.10590869174E+02 -0.24189334743E+02 -0.15718521069E+02  0.30730478840E+02  0.00000000000E+00 0. -1.
</event>
<event>
 7    1  0.6065977E-013  0.5930199E+02  0.7816164E-02  0.1266605E+00
        -11   -1    0    0    0    0  0.00000000000E+00  0.00000000000E+00  0.45593999997E+02  0.45594000000E+02  0.51100000000E-03 0.  1.
         11   -1    0    0    0    0 -0.00000000000E+00 -0.00000000000E+00 -0.45593999997E+02  0.45594000000E+02  0.51100000000E-03 0. -1.
    9900012    2    1    2    0    0  0.14153809101E+02 -0.19217418713E+02 -0.21144229588E+02  0.59301985214E+02  0.50000075114E+02 0.  0.
        -12    1    1    2    0    0 -0.14153809101E+02  0.19217418713E+02  0.21144229588E+02  0.31886014786E+02  0.00000000000E+00 0.  1.
         11    1    3    3    0    0  0.27549034552E+02 -0.25518021235E+02 -0.18116168274E+02  0.41693096140E+02  0.51100000000E-03 0. -1.
        -11    1    3    3    0    0 -0.52001597769E+01  0.66122148253E+01 -0.40647139549E+01  0.93426412966E+01  0.51100000000E-03 0.  1.
         12    1    3    3    0    0 -0.81950656738E+01 -0.31161230307E+00  0.10366526411E+01  0.82662477778E+01  0.00000000000E+00 0. -1.
</event>
<event>
 7    1  0.6065977E-013  0.5930195E+02  0.7816164E-02  0.1266605E+00
        -11   -1    0    0    0    0  0.00000000000E+00  0.00000000000E+00  0.45593999997E+02  0.45594000000E+02  0.51100000000E-03 0.  1.
         11   -1    0    0    0    0 -0.00000000000E+00 -0.00000000000E+00 -0.45593999997E+02  0.45594000000E+02  0.51100000000E-03 0. -1.
    9900012    2    1    2    0    0  0.39071372764E+01  0.14251345573E+02 -0.28255146323E+02  0.59301954995E+02  0.50000020002E+02 0.  0.
        -12    1    1    2    0    0 -0.39071372764E+01 -0.14251345573E+02  0.28255146323E+02  0.31886045005E+02  0.00000000000E+00 0.  1.
         11    1    3    3    0    0  0.91773492406E+01  0.21420008157E+00 -0.17460047984E+02  0.19726198231E+02  0.51100000000E-03 0. -1.
        -11    1    3    3    0    0 -0.16028401969E+02 -0.41367833637E+01 -0.19101407483E+01  0.16663471554E+02  0.51100000000E-03 0.  1.
        -12    1    3    3    0    0  0.10758190005E+02  0.18173928855E+02 -0.88849575901E+01  0.22912285211E+02  0.00000000000E+00 0.  1.
</event>
<event>
 7    1  0.6065977E-013  0.5930207E+02  0.7816164E-02  0.1266604E+00
        -11   -1    0    0    0    0  0.00000000000E+00  0.00000000000E+00  0.45593999997E+02  0.45594000000E+02  0.51100000000E-03 0.  1.
         11   -1    0    0    0    0 -0.00000000000E+00 -0.00000000000E+00 -0.45593999997E+02  0.45594000000E+02  0.51100000000E-03 0. -1.
    9900012    2    1    2    0    0  0.10290466510E+01  0.31401423414E+02 -0.54409570652E+01  0.59302072959E+02  0.50000235140E+02 0.  0.
        -12    1    1    2    0    0 -0.10290466510E+01 -0.31401423414E+02  0.54409570652E+01  0.31885927041E+02  0.00000000000E+00 0.  1.
         11    1    3    3    0    0 -0.13932825728E+02  0.18728230961E+02  0.12553329008E+02  0.26503892868E+02  0.51100000000E-03 0. -1.
        -11    1    3    3    0    0 -0.34912664538E+01 -0.10602755042E+01 -0.55585550580E+01  0.66491097292E+01  0.51100000000E-03 0.  1.
         12    1    3    3    0    0  0.18453138833E+02  0.13733467957E+02 -0.12435731015E+02  0.26149070362E+02  0.00000000000E+00 0. -1.
</event>
<event>
 7    1  0.6065977E-013  0.5930185E+02  0.7816164E-02  0.1266605E+00
        -11   -1    0    0    0    0  0.00000000000E+00  0.00000000000E+00  0.45593999997E+02  0.45594000000E+02  0.51100000000E-03 0.  1.
         11   -1    0    0    0    0 -0.00000000000E+00 -0.00000000000E+00 -0.45593999997E+02  0.45594000000E+02  0.51100000000E-03 0. -1.
    9900012    2    1    2    0    0  0.23433736780E+02  0.36715497690E+01 -0.21309764274E+02  0.59301853312E+02  0.49999834557E+02 0.  0.
        -12    1    1    2    0    0 -0.23433736780E+02 -0.36715497690E+01  0.21309764274E+02  0.31886146688E+02  0.00000000000E+00 0.  1.
         11    1    3    3    0    0 -0.77793355420E+01  0.14961470920E+01 -0.18995076583E+02  0.20580803003E+02  0.51100000000E-03 0. -1.
        -11    1    3    3    0    0  0.29112174824E+01  0.40852610918E+01  0.72231765925E+01  0.87942495851E+01  0.51100000000E-03 0.  1.
         12    1    3    3    0    0  0.28301854839E+02 -0.19098584148E+01 -0.95378642838E+01  0.29926800724E+02  0.00000000000E+00 0. -1.
</event>
<event>
 7    1  0.6065977E-013  0.5930195E+02  0.7816164E-02  0.1266605E+00
        -11   -1    0    0    0    0  0.00000000000E+00  0.00000000000E+00  0.45593999997E+02  0.45594000000E+02  0.51100000000E-03 0.  1.
         11   -1    0    0    0    0 -0.00000000000E+00 -0.00000000000E+00 -0.45593999997E+02  0.45594000000E+02  0.51100000000E-03 0. -1.
    9900012    2    1    2    0    0  0.10498982521E+02  0.88937408020E+01 -0.28764438969E+02  0.59301949623E+02  0.50000010204E+02 0.  0.
        -12    1    1    2    0    0 -0.10498982521E+02 -0.88937408020E+01  0.28764438969E+02  0.31886050377E+02  0.00000000000E+00 0.  1.
         11    1    3    3    0    0  0.63368582487E+00 -0.19009331977E+02 -0.13192178669E+02  0.23147134557E+02  0.51100000000E-03 0. -1.
        -11    1    3    3    0    0 -0.29354345889E+01  0.10893959319E+02 -0.64380352599E+01  0.12990127949E+02  0.51100000000E-03 0.  1.
         12    1    3    3    0    0  0.12800731285E+02  0.17009113460E+02 -0.91342250408E+01  0.23164687117E+02  0.00000000000E+00 0. -1.
</event>
<event>
 7    1  0.6065977E-013  0.5930194E+02  0.7816164E-02  0.1266605E+00
        -11   -1    0    0    0    0  0.00000000000E+00  0.00000000000E+00  0.45593999997E+02  0.45594000000E+02  0.51100000000E-03 0.  1.
         11   -1    0    0    0    0 -0.00000000000E+00 -0.00000000000E+00 -0.45593999997E+02  0.45594000000E+02  0.51100000000E-03 0. -1.
    9900012    2    1    2    0    0 -0.21760772616E+02 -0.21240802068E+02 -0.95925833501E+01  0.59301944229E+02  0.50000000367E+02 0.  0.
        -12    1    1    2    0    0  0.21760772616E+02  0.21240802068E+02  0.95925833501E+01  0.31886055771E+02  0.00000000000E+00 0.  1.
         11    1    3    3    0    0 -0.12521698207E+02 -0.14882894500E+02 -0.26294716224E+02  0.32706353759E+02  0.51100000000E-03 0. -1.
        -11    1    3    3    0    0 -0.13747653367E+01 -0.92289408780E+01  0.15563903190E+02  0.18146581282E+02  0.51100000000E-03 0.  1.
         12    1    3    3    0    0 -0.78643090722E+01  0.28710333096E+01  0.11382296840E+01  0.84490091882E+01  0.00000000000E+00 0. -1.
</event>
<event>
 7    1  0.6065977E-013  0.5930193E+02  0.7816164E-02  0.1266605E+00
        -11   -1    0    0    0    0  0.00000000000E+00  0.00000000000E+00  0.45593999997E+02  0.45594000000E+02  0.51100000000E-03 0. -1.
         11   -1    0    0    0    0 -0.00000000000E+00 -0.00000000000E+00 -0.45593999997E+02  0.45594000000E+02  0.51100000000E-03 0.  1.
    9900012    2    1    2    0    0 -0.31101471330E+02  0.73075380493E+00  0.69918475964E+01  0.59301930113E+02  0.49999974624E+02 0.  0.
        -12    1    1    2    0    0  0.31101471330E+02 -0.73075380493E+00 -0.69918475964E+01  0.31886069887E+02  0.00000000000E+00 0.  1.
         11    1    3    3    0    0 -0.73524005224E+01  0.21735516392E+01  0.85013284796E+01  0.11447912751E+02  0.51100000000E-03 0. -1.
        -11    1    3    3    0    0 -0.99765926255E+01  0.19217804147E+02 -0.63316784984E+01  0.22559843738E+02  0.51100000000E-03 0.  1.
        -12    1    3    3    0    0 -0.13772478182E+02 -0.20660601981E+02  0.48221976152E+01  0.25294173624E+02  0.00000000000E+00 0.  1.
</event>
<event>
 7    1  0.6065977E-013  0.5930194E+02  0.7816164E-02  0.1266605E+00
        -11   -1    0    0    0    0  0.00000000000E+00  0.00000000000E+00  0.45593999997E+02  0.45594000000E+02  0.51100000000E-03 0. -1.
         11   -1    0    0    0    0 -0.00000000000E+00 -0.00000000000E+00 -0.45593999997E+02  0.45594000000E+02  0.51100000000E-03 0.  1.
    9900012    2    1    2    0    0  0.98885537114E+01  0.25521735826E+02  0.16357814806E+02  0.59301943497E+02  0.49999999032E+02 0.  0.
        -12    1    1    2    0    0 -0.98885537114E+01 -0.25521735826E+02 -0.16357814806E+02  0.31886056503E+02  0.00000000000E+00 0.  1.
         11    1    3    3    0    0 -0.42078915292E+01 -0.12102436804E+01  0.14696780417E+01  0.46185489815E+01  0.51100000000E-03 0. -1.
        -11    1    3    3    0    0  0.11407887894E+02  0.21368761497E+02 -0.12071386577E+02  0.27064409254E+02  0.51100000000E-03 0.  1.
        -12    1    3    3    0    0  0.26885573467E+01  0.53632180099E+01  0.26959523342E+02  0.27618985261E+02  0.00000000000E+00 0.  1.
</event>
<event>
 7    1  0.6065977E-013  0.5930194E+02  0.7816164E-02  0.1266605E+00
        -11   -1    0    0    0    0  0.00000000000E+00  0.00000000000E+00  0.45593999997E+02  0.45594000000E+02  0.51100000000E-03 0. -1.
         11   -1    0    0    0    0 -0.00000000000E+00 -0.00000000000E+00 -0.45593999997E+02  0.45594000000E+02  0.51100000000E-03 0.  1.
    9900012    2    1    2    0    0 -0.26700907627E+02 -0.17025157054E+02  0.37317812811E+01  0.59301942979E+02  0.49999998088E+02 0.  0.
        -12    1    1    2    0    0  0.26700907627E+02  0.17025157054E+02 -0.37317812811E+01  0.31886057021E+02  0.00000000000E+00 0.  1.
         11    1    3    3    0    0 -0.22993607707E+02 -0.27180716185E+01 -0.65692225330E+01  0.24067583876E+02  0.51100000000E-03 0. -1.
        -11    1    3    3    0    0  0.39669337221E+01 -0.21571789619E+02  0.11202215293E+02  0.24628607315E+02  0.51100000000E-03 0.  1.
        -12    1    3    3    0    0 -0.76742336424E+01  0.72647041835E+01 -0.90121147926E+00  0.10605751789E+02  0.00000000000E+00 0.  1.
</event>
<event>
 7    1  0.6065977E-013  0.5930196E+02  0.7816164E-02  0.1266605E+00
        -11   -1    0    0    0    0  0.00000000000E+00  0.00000000000E+00  0.45593999997E+02  0.45594000000E+02  0.51100000000E-03 0.  1.
         11   -1    0    0    0    0 -0.00000000000E+00 -0.00000000000E+00 -0.45593999997E+02  0.45594000000E+02  0.51100000000E-03 0. -1.
    9900012    2    1    2    0    0  0.17003582310E+02 -0.10051466165E+02 -0.25031289349E+02  0.59301964970E+02  0.50000038194E+02 0.  0.
        -12    1    1    2    0    0 -0.17003582310E+02  0.10051466165E+02  0.25031289349E+02  0.31886035030E+02  0.00000000000E+00 0.  1.
         11    1    3    3    0    0  0.61880389831E+01 -0.20008221836E+02 -0.34906425124E+02  0.40707238701E+02  0.51100000000E-03 0. -1.
        -11    1    3    3    0    0  0.26706554972E+01  0.62664712096E+01  0.41202004931E+01  0.79609744736E+01  0.51100000000E-03 0.  1.
         12    1    3    3    0    0  0.81448878292E+01  0.36902844614E+01  0.57549352814E+01  0.10633751796E+02  0.00000000000E+00 0. -1.
</event>
<event>
 7    1  0.6065977E-013  0.5930197E+02  0.7816164E-02  0.1266605E+00
        -11   -1    0    0    0    0  0.00000000000E+00  0.00000000000E+00  0.45593999997E+02  0.45594000000E+02  0.51100000000E-03 0.  1.
         11   -1    0    0    0    0 -0.00000000000E+00 -0.00000000000E+00 -0.45593999997E+02  0.45594000000E+02  0.51100000000E-03 0. -1.
    9900012    2    1    2    0    0 -0.27267660246E+02 -0.41993005908E+01 -0.15986237481E+02  0.59301965290E+02  0.50000038778E+02 0.  0.
        -12    1    1    2    0    0  0.27267660246E+02  0.41993005908E+01  0.15986237481E+02  0.31886034710E+02  0.00000000000E+00 0.  1.
         11    1    3    3    0    0 -0.22819757211E+02 -0.51041397659E+00 -0.29163256233E+02  0.37033732677E+02  0.51100000000E-03 0. -1.
        -11    1    3    3    0    0 -0.99103715493E+01  0.14740160295E+01  0.98441151990E+01  0.14046166445E+02  0.51100000000E-03 0.  1.
        -12    1    3    3    0    0  0.54624685141E+01 -0.51629026438E+01  0.33329035536E+01  0.82220661682E+01  0.00000000000E+00 0.  1.
</event>
<event>
 7    1  0.6065977E-013  0.5930199E+02  0.7816164E-02  0.1266605E+00
        -11   -1    0    0    0    0  0.00000000000E+00  0.00000000000E+00  0.45593999997E+02  0.45594000000E+02  0.51100000000E-03 0. -1.
         11   -1    0    0    0    0 -0.00000000000E+00 -0.00000000000E+00 -0.45593999997E+02  0.45594000000E+02  0.51100000000E-03 0.  1.
    9900012    2    1    2    0    0  0.24050559851E+02  0.20023070190E+02 -0.61126621721E+01  0.59301993543E+02  0.50000090303E+02 0.  0.
        -12    1    1    2    0    0 -0.24050559851E+02 -0.20023070190E+02  0.61126621721E+01  0.31886006457E+02  0.00000000000E+00 0.  1.
         11    1    3    3    0    0  0.86396798629E+01  0.26354939859E+02 -0.20509606442E+02  0.34494505066E+02  0.51100000000E-03 0. -1.
        -11    1    3    3    0    0  0.69882229508E+00 -0.48086683762E+01  0.12474886173E+01  0.50167591395E+01  0.51100000000E-03 0.  1.
         12    1    3    3    0    0  0.14712057693E+02 -0.15232012924E+01  0.13149455653E+02  0.19790729337E+02  0.00000000000E+00 0. -1.
</event>
<event>
 7    1  0.6065977E-013  0.5930182E+02  0.7816164E-02  0.1266605E+00
        -11   -1    0    0    0    0  0.00000000000E+00  0.00000000000E+00  0.45593999997E+02  0.45594000000E+02  0.51100000000E-03 0. -1.
         11   -1    0    0    0    0 -0.00000000000E+00 -0.00000000000E+00 -0.45593999997E+02  0.45594000000E+02  0.51100000000E-03 0.  1.
    9900012    2    1    2    0    0  0.72679362543E+01 -0.20813832817E+02  0.23036713920E+02  0.59301816124E+02  0.49999766734E+02 0.  0.
        -12    1    1    2    0    0 -0.72679362543E+01  0.20813832817E+02 -0.23036713920E+02  0.31886183876E+02  0.00000000000E+00 0.  1.
         11    1    3    3    0    0  0.42250992053E+00 -0.74099863071E+01  0.35286683717E+02  0.36058791711E+02  0.51100000000E-03 0. -1.
        -11    1    3    3    0    0  0.58768002061E+01 -0.15930646325E+02 -0.98763369382E+01  0.19643429043E+02  0.51100000000E-03 0.  1.
        -12    1    3    3    0    0  0.96862612774E+00  0.25267998150E+01 -0.23736328585E+01  0.35995953700E+01  0.00000000000E+00 0.  1.
</event>
<event>
 7    1  0.6065977E-013  0.5930181E+02  0.7816164E-02  0.1266605E+00
        -11   -1    0    0    0    0  0.00000000000E+00  0.00000000000E+00  0.45593999997E+02  0.45594000000E+02  0.51100000000E-03 0.  1.
         11   -1    0    0    0    0 -0.00000000000E+00 -0.00000000000E+00 -0.45593999997E+02  0.45594000000E+02  0.51100000000E-03 0. -1.
    9900012    2    1    2    0    0  0.86456747603E+01 -0.30332025451E+02  0.46850380128E+01  0.59301811121E+02  0.49999757610E+02 0.  0.
        -12    1    1    2    0    0 -0.86456747603E+01  0.30332025451E+02 -0.46850380128E+01  0.31886188879E+02  0.00000000000E+00 0.  1.
         11    1    3    3    0    0 -0.60346746223E+01  0.44030009787E-01 -0.99282419353E+01  0.11618486331E+02  0.51100000000E-03 0. -1.
        -11    1    3    3    0    0  0.23832774355E+02 -0.25410794996E+02  0.96607389859E+01  0.36153001450E+02  0.51100000000E-03 0.  1.
         12    1    3    3    0    0 -0.91524249722E+01 -0.49652604646E+01  0.49525409622E+01  0.11530323340E+02  0.00000000000E+00 0. -1.
</event>
<event>
 7    1  0.6065977E-013  0.5930196E+02  0.7816164E-02  0.1266605E+00
        -11   -1    0    0    0    0  0.00000000000E+00  0.00000000000E+00  0.45593999997E+02  0.45594000000E+02  0.51100000000E-03 0.  1.
         11   -1    0    0    0    0 -0.00000000000E+00 -0.00000000000E+00 -0.45593999997E+02  0.45594000000E+02  0.51100000000E-03 0. -1.
    9900012    2    1    2    0    0  0.19525033153E+02 -0.24803825011E+02 -0.45014466253E+01  0.59301957968E+02  0.50000025423E+02 0.  0.
        -12    1    1    2    0    0 -0.19525033153E+02  0.24803825011E+02  0.45014466253E+01  0.31886042032E+02  0.00000000000E+00 0.  1.
         11    1    3    3    0    0  0.56775629614E+01 -0.91801461337E+01  0.13098407984E+01  0.10873154436E+02  0.51100000000E-03 0. -1.
        -11    1    3    3    0    0  0.11744448848E+02  0.86863388226E+01  0.11432789116E+02  0.18549750082E+02  0.51100000000E-03 0.  1.
        -12    1    3    3    0    0  0.21030213427E+01 -0.24310017699E+02 -0.17244076539E+02  0.29879053449E+02  0.00000000000E+00 0.  1.
</event>
<event>
 7    1  0.6065977E-013  0.5930193E+02  0.7816164E-02  0.1266605E+00
        -11   -1    0    0    0    0  0.00000000000E+00  0.00000000000E+00  0.45593999997E+02  0.45594000000E+02  0.51100000000E-03 0. -1.
         11   -1    0    0    0    0 -0.00000000000E+00 -0.00000000000E+00 -0.45593999997E+02  0.45594000000E+02  0.51100000000E-03 0.  1.
    9900012    2    1    2    0    0  0.16715017698E+02 -0.21648720823E+02  0.16390930103E+02  0.59301929067E+02  0.49999972715E+02 0.  0.
        -12    1    1    2    0    0 -0.16715017698E+02  0.21648720823E+02 -0.16390930103E+02  0.31886070933E+02  0.00000000000E+00 0.  1.
         11    1    3    3    0    0  0.15155362510E+02 -0.29796484832E+02  0.23061273581E+02  0.40612040833E+02  0.51100000000E-03 0. -1.
        -11    1    3    3    0    0  0.84763372914E+01  0.39607195617E+01 -0.31578743001E+01  0.98746019505E+01  0.51100000000E-03 0.  1.
         12    1    3    3    0    0 -0.69166821038E+01  0.41870444473E+01 -0.35124691779E+01  0.88152862831E+01  0.00000000000E+00 0. -1.
</event>
<event>
 7    1  0.6065977E-013  0.5930194E+02  0.7816164E-02  0.1266605E+00
        -11   -1    0    0    0    0  0.00000000000E+00  0.00000000000E+00  0.45593999997E+02  0.45594000000E+02  0.51100000000E-03 0.  1.
         11   -1    0    0    0    0 -0.00000000000E+00 -0.00000000000E+00 -0.45593999997E+02  0.45594000000E+02  0.51100000000E-03 0. -1.
    9900012    2    1    2    0    0 -0.17961215279E+02 -0.20026736884E+02  0.17118576773E+02  0.59301935407E+02  0.49999984277E+02 0.  0.
        -12    1    1    2    0    0  0.17961215279E+02  0.20026736884E+02 -0.17118576773E+02  0.31886064593E+02  0.00000000000E+00 0.  1.
         11    1    3    3    0    0 -0.21880802925E+02 -0.10829582520E+02 -0.11908994452E+02  0.27163827847E+02  0.51100000000E-03 0. -1.
        -11    1    3    3    0    0  0.23213378543E+01  0.10028860919E+01  0.20595443628E+01  0.32613054427E+01  0.51100000000E-03 0.  1.
         12    1    3    3    0    0  0.15982497912E+01 -0.10200040456E+02  0.26968026862E+02  0.28876802117E+02  0.00000000000E+00 0. -1.
</event>
<event>
 7    1  0.6764911E-013  0.5930184E+02  0.7816164E-02  0.1266605E+00
        -11   -1    0    0    0    0  0.00000000000E+00  0.00000000000E+00  0.45593999997E+02  0.45594000000E+02  0.51100000000E-03 0.  1.
         11   -1    0    0    0    0 -0.00000000000E+00 -0.00000000000E+00 -0.45593999997E+02  0.45594000000E+02  0.51100000000E-03 0. -1.
    9900012    2    1    2    0    0  0.28357222102E+02  0.14527541712E+02 -0.12431900632E+01  0.59301842579E+02  0.49999814982E+02 0.  0.
        -12    1    1    2    0    0 -0.28357222102E+02 -0.14527541712E+02  0.12431900632E+01  0.31886157421E+02  0.00000000000E+00 0.  1.
         11    1    3    3    0    0  0.31794784718E+02 -0.12079865042E+01  0.10955491002E+02  0.33651008158E+02  0.51100000000E-03 0. -1.
        -11    1    3    3    0    0 -0.40129994070E+01 -0.96689955614E+00 -0.70391338584E+01  0.81601755330E+01  0.51100000000E-03 0.  1.
         12    1    3    3    0    0  0.57543679056E+00  0.16702427772E+02 -0.51595472064E+01  0.17490658889E+02  0.00000000000E+00 0. -1.
</event>
<event>
 7    1  0.6065977E-013  0.5930194E+02  0.7816164E-02  0.1266605E+00
        -11   -1    0    0    0    0  0.00000000000E+00  0.00000000000E+00  0.45593999997E+02  0.45594000000E+02  0.51100000000E-03 0.  1.
         11   -1    0    0    0    0 -0.00000000000E+00 -0.00000000000E+00 -0.45593999997E+02  0.45594000000E+02  0.51100000000E-03 0. -1.
    9900012    2    1    2    0    0 -0.26667522384E+02  0.40016617236E+01  0.17016190649E+02  0.59301940493E+02  0.49999993554E+02 0.  0.
        -12    1    1    2    0    0  0.26667522384E+02 -0.40016617236E+01 -0.17016190649E+02  0.31886059507E+02  0.00000000000E+00 0.  1.
         11    1    3    3    0    0 -0.32606257177E+01  0.19223977440E+02 -0.93329425468E+00  0.19520861332E+02  0.51100000000E-03 0. -1.
        -11    1    3    3    0    0 -0.22219653570E+02 -0.23413398628E+01  0.91907505271E+01  0.24159155048E+02  0.51100000000E-03 0.  1.
         12    1    3    3    0    0 -0.11872430965E+01 -0.12880975854E+02  0.87587343767E+01  0.15621924113E+02  0.00000000000E+00 0. -1.
</event>
<event>
 7    1  0.6065977E-013  0.5930195E+02  0.7816164E-02  0.1266605E+00
        -11   -1    0    0    0    0  0.00000000000E+00  0.00000000000E+00  0.45593999997E+02  0.45594000000E+02  0.51100000000E-03 0. -1.
         11   -1    0    0    0    0 -0.00000000000E+00 -0.00000000000E+00 -0.45593999997E+02  0.45594000000E+02  0.51100000000E-03 0.  1.
    9900012    2    1    2    0    0 -0.15008108299E+02 -0.27768942779E+02 -0.45125317797E+01  0.59301945982E+02  0.50000003563E+02 0.  0.
        -12    1    1    2    0    0  0.15008108299E+02  0.27768942779E+02  0.45125317797E+01  0.31886054018E+02  0.00000000000E+00 0.  1.
         11    1    3    3    0    0 -0.28166454857E+02 -0.57708674553E+01 -0.75887856889E+01  0.29736202832E+02  0.51100000000E-03 0. -1.
        -11    1    3    3    0    0 -0.11775922177E+01 -0.11251410777E+02 -0.37741309303E+00  0.11319161135E+02  0.51100000000E-03 0.  1.
         12    1    3    3    0    0  0.14335938775E+02 -0.10746664547E+02  0.34536670022E+01  0.18246582014E+02  0.00000000000E+00 0. -1.
</event>
<event>
 7    1  0.6065977E-013  0.5930197E+02  0.7816164E-02  0.1266605E+00
        -11   -1    0    0    0    0  0.00000000000E+00  0.00000000000E+00  0.45593999997E+02  0.45594000000E+02  0.51100000000E-03 0.  1.
         11   -1    0    0    0    0 -0.00000000000E+00 -0.00000000000E+00 -0.45593999997E+02  0.45594000000E+02  0.51100000000E-03 0. -1.
    9900012    2    1    2    0    0 -0.22765070706E+02 -0.17403713657E+02 -0.13985025131E+02  0.59301974516E+02  0.50000055602E+02 0.  0.
        -12    1    1    2    0    0  0.22765070706E+02  0.17403713657E+02  0.13985025131E+02  0.31886025484E+02  0.00000000000E+00 0.  1.
         11    1    3    3    0    0 -0.29832995220E+02 -0.17356531614E+02 -0.18574105749E+02  0.39195078749E+02  0.51100000000E-03 0. -1.
        -11    1    3    3    0    0  0.35893029412E+01  0.81295534878E+01  0.65095998993E+01  0.11015789877E+02  0.51100000000E-03 0.  1.
         12    1    3    3    0    0  0.34786215731E+01 -0.81767355304E+01 -0.19205192811E+01  0.90911058894E+01  0.00000000000E+00 0. -1.
</event>
<event>
 7    1  0.6065977E-013  0.5930189E+02  0.7816164E-02  0.1266605E+00
        -11   -1    0    0    0    0  0.00000000000E+00  0.00000000000E+00  0.45593999997E+02  0.45594000000E+02  0.51100000000E-03 0. -1.
         11   -1    0    0    0    0 -0.00000000000E+00 -0.00000000000E+00 -0.45593999997E+02  0.45594000000E+02  0.51100000000E-03 0.  1.
    9900012    2    1    2    0    0  0.22629705773E+02  0.40544806094E+01 -0.22094829207E+02  0.59301892145E+02  0.49999905379E+02 0.  0.
        -12    1    1    2    0    0 -0.22629705773E+02 -0.40544806094E+01  0.22094829207E+02  0.31886107855E+02  0.00000000000E+00 0.  1.
         11    1    3    3    0    0  0.10715048502E+01 -0.18518984206E+01 -0.20605713751E+02  0.20716493184E+02  0.51100000000E-03 0.  1.
        -11    1    3    3    0    0  0.18758645583E+02  0.13315133431E+02  0.96264212501E+01  0.24936871270E+02  0.51100000000E-03 0. -1.
        -12    1    3    3    0    0  0.27995553405E+01 -0.74087544006E+01 -0.11115536707E+02  0.13648527692E+02  0.00000000000E+00 0.  1.
</event>
<event>
 7    1  0.6065977E-013  0.5930200E+02  0.7816164E-02  0.1266605E+00
        -11   -1    0    0    0    0  0.00000000000E+00  0.00000000000E+00  0.45593999997E+02  0.45594000000E+02  0.51100000000E-03 0.  1.
         11   -1    0    0    0    0 -0.00000000000E+00 -0.00000000000E+00 -0.45593999997E+02  0.45594000000E+02  0.51100000000E-03 0. -1.
    9900012    2    1    2    0    0  0.19787776589E+02  0.24171256468E+01 -0.24886108390E+02  0.59302000101E+02  0.50000102265E+02 0.  0.
        -12    1    1    2    0    0 -0.19787776589E+02 -0.24171256468E+01  0.24886108390E+02  0.31885999899E+02  0.00000000000E+00 0.  1.
         11    1    3    3    0    0  0.23946442597E+02  0.12674266075E+02 -0.20487385206E+02  0.33967662363E+02  0.51100000000E-03 0. -1.
        -11    1    3    3    0    0  0.19347725007E+01 -0.10130389010E+02  0.69610534831E+01  0.12442845011E+02  0.51100000000E-03 0.  1.
        -12    1    3    3    0    0 -0.60934385088E+01 -0.12675141813E+00 -0.11359776668E+02  0.12891492727E+02  0.00000000000E+00 0.  1.
</event>
<event>
 7    1  0.6065977E-013  0.5930178E+02  0.7816164E-02  0.1266605E+00
        -11   -1    0    0    0    0  0.00000000000E+00  0.00000000000E+00  0.45593999997E+02  0.45594000000E+02  0.51100000000E-03 0. -1.
         11   -1    0    0    0    0 -0.00000000000E+00 -0.00000000000E+00 -0.45593999997E+02  0.45594000000E+02  0.51100000000E-03 0.  1.
    9900012    2    1    2    0    0  0.16807379396E+02 -0.27059349733E+02 -0.14264671183E+01  0.59301776979E+02  0.49999695341E+02 0.  0.
        -12    1    1    2    0    0 -0.16807379396E+02  0.27059349733E+02  0.14264671183E+01  0.31886223021E+02  0.00000000000E+00 0.  1.
         11    1    3    3    0    0  0.18959155412E+02 -0.17243555757E+02 -0.23461621229E+02  0.34745322851E+02  0.51100000000E-03 0. -1.
        -11    1    3    3    0    0 -0.29698539488E+01 -0.66688952365E+01  0.12422432933E+02  0.14408713905E+02  0.51100000000E-03 0.  1.
         12    1    3    3    0    0  0.81807793280E+00 -0.31468987402E+01  0.96127211780E+01  0.10147740223E+02  0.00000000000E+00 0. -1.
</event>
<event>
 7    1  0.6065977E-013  0.5930195E+02  0.7816164E-02  0.1266605E+00
        -11   -1    0    0    0    0  0.00000000000E+00  0.00000000000E+00  0.45593999997E+02  0.45594000000E+02  0.51100000000E-03 0. -1.
         11   -1    0    0    0    0 -0.00000000000E+00 -0.00000000000E+00 -0.45593999997E+02  0.45594000000E+02  0.51100000000E-03 0.  1.
    9900012    2    1    2    0    0 -0.91717517105E+01 -0.18912240294E+02  0.23977622723E+02  0.59301948915E+02  0.50000008913E+02 0.  0.
        -12    1    1    2    0    0  0.91717517105E+01  0.18912240294E+02 -0.23977622723E+02  0.31886051085E+02  0.00000000000E+00 0.  1.
         11    1    3    3    0    0 -0.70324562863E+01 -0.90696585502E+01  0.32060687129E+02  0.34052926556E+02  0.51100000000E-03 0. -1.
        -11    1    3    3    0    0 -0.97974634040E+00 -0.16770311068E+02 -0.46485740660E+01  0.17430217363E+02  0.51100000000E-03 0.  1.
         12    1    3    3    0    0 -0.11595490838E+01  0.69277293242E+01 -0.34344903399E+01  0.78188049957E+01  0.00000000000E+00 0. -1.
</event>
<event>
 7    1  0.6065977E-013  0.5930191E+02  0.7816164E-02  0.1266605E+00
        -11   -1    0    0    0    0  0.00000000000E+00  0.00000000000E+00  0.45593999997E+02  0.45594000000E+02  0.51100000000E-03 0.  1.
         11   -1    0    0    0    0 -0.00000000000E+00 -0.00000000000E+00 -0.45593999997E+02  0.45594000000E+02  0.51100000000E-03 0. -1.
    9900012    2    1    2    0    0 -0.29154842585E+02 -0.89668021963E+01  0.92905658731E+01  0.59301905821E+02  0.49999930320E+02 0.  0.
        -12    1    1    2    0    0  0.29154842585E+02  0.89668021963E+01 -0.92905658731E+01  0.31886094179E+02  0.00000000000E+00 0.  1.
         11    1    3    3    0    0 -0.10780298205E+02 -0.71460112407E+01  0.10745222125E+02  0.16814877485E+02  0.51100000000E-03 0. -1.
        -11    1    3    3    0    0  0.44341644782E+01  0.10926081340E+02  0.84895961920E+01  0.14529773289E+02  0.51100000000E-03 0.  1.
        -12    1    3    3    0    0 -0.22808708858E+02 -0.12746872296E+02 -0.99442524442E+01  0.27957255047E+02  0.00000000000E+00 0.  1.
</event>
<event>
 7    1  0.6065977E-013  0.5930197E+02  0.7816164E-02  0.1266605E+00
        -11   -1    0    0    0    0  0.00000000000E+00  0.00000000000E+00  0.45593999997E+02  0.45594000000E+02  0.51100000000E-03 0.  1.
         11   -1    0    0    0    0 -0.00000000000E+00 -0.00000000000E+00 -0.45593999997E+02  0.45594000000E+02  0.51100000000E-03 0. -1.
    9900012    2    1    2    0    0 -0.48574443001E+01 -0.24133686529E+02 -0.20265470242E+02  0.59301970539E+02  0.50000048351E+02 0.  0.
        -12    1    1    2    0    0  0.48574443001E+01  0.24133686529E+02  0.20265470242E+02  0.31886029461E+02  0.00000000000E+00 0.  1.
         11    1    3    3    0    0 -0.12235225735E+01  0.87518673372E+01  0.50220789418E+01  0.10164323221E+02  0.51100000000E-03 0.  1.
        -11    1    3    3    0    0 -0.72980639714E+01 -0.25398064531E+02 -0.45860143907E+01  0.26820793200E+02  0.51100000000E-03 0. -1.
         12    1    3    3    0    0  0.36641422448E+01 -0.74874893361E+01 -0.20701534793E+02  0.22316854118E+02  0.00000000000E+00 0. -1.
</event>
<event>
 7    1  0.6065977E-013  0.5930194E+02  0.7816164E-02  0.1266605E+00
        -11   -1    0    0    0    0  0.00000000000E+00  0.00000000000E+00  0.45593999997E+02  0.45594000000E+02  0.51100000000E-03 0.  1.
         11   -1    0    0    0    0 -0.00000000000E+00 -0.00000000000E+00 -0.45593999997E+02  0.45594000000E+02  0.51100000000E-03 0. -1.
    9900012    2    1    2    0    0  0.17711894660E+02  0.43446022279E+01 -0.26155951364E+02  0.59301943914E+02  0.49999999792E+02 0.  0.
        -12    1    1    2    0    0 -0.17711894660E+02 -0.43446022279E+01  0.26155951364E+02  0.31886056086E+02  0.00000000000E+00 0.  1.
         11    1    3    3    0    0  0.65480477021E+01  0.58118021177E+01 -0.28014379972E+02  0.29350629602E+02  0.51100000000E-03 0. -1.
        -11    1    3    3    0    0  0.19856735921E+02 -0.43405995253E+01  0.35713223342E+01  0.20636984013E+02  0.51100000000E-03 0.  1.
        -12    1    3    3    0    0 -0.86928889636E+01  0.28733996355E+01 -0.17128937268E+01  0.93143302990E+01  0.00000000000E+00 0.  1.
</event>
<event>
 7    1  0.6065977E-013  0.5930186E+02  0.7816164E-02  0.1266605E+00
        -11   -1    0    0    0    0  0.00000000000E+00  0.00000000000E+00  0.45593999997E+02  0.45594000000E+02  0.51100000000E-03 0.  1.
         11   -1    0    0    0    0 -0.00000000000E+00 -0.00000000000E+00 -0.45593999997E+02  0.45594000000E+02  0.51100000000E-03 0. -1.
    9900012    2    1    2    0    0  0.27974208290E+02  0.49451670543E+01 -0.14481542092E+02  0.59301857744E+02  0.49999842638E+02 0.  0.
        -12    1    1    2    0    0 -0.27974208290E+02 -0.49451670543E+01  0.14481542092E+02  0.31886142256E+02  0.00000000000E+00 0.  1.
         11    1    3    3    0    0  0.12754173411E+02  0.10147074075E+02  0.10831906589E+02  0.19569421358E+02  0.51100000000E-03 0. -1.
        -11    1    3    3    0    0  0.19009664634E+02  0.66611295596E+00 -0.26527590030E+02  0.32642366474E+02  0.51100000000E-03 0.  1.
        -12    1    3    3    0    0 -0.37896297555E+01 -0.58680199765E+01  0.12141413496E+01  0.70900699111E+01  0.00000000000E+00 0.  1.
</event>
<event>
 7    1  0.6065977E-013  0.5930194E+02  0.7816164E-02  0.1266605E+00
        -11   -1    0    0    0    0  0.00000000000E+00  0.00000000000E+00  0.45593999997E+02  0.45594000000E+02  0.51100000000E-03 0. -1.
         11   -1    0    0    0    0 -0.00000000000E+00 -0.00000000000E+00 -0.45593999997E+02  0.45594000000E+02  0.51100000000E-03 0.  1.
    9900012    2    1    2    0    0 -0.18373065207E+02  0.22362145847E+02  0.13382295960E+02  0.59301938199E+02  0.49999989371E+02 0.  0.
        -12    1    1    2    0    0  0.18373065207E+02 -0.22362145847E+02 -0.13382295960E+02  0.31886061801E+02  0.00000000000E+00 0.  1.
         11    1    3    3    0    0 -0.15909539280E+02  0.20079204364E+02  0.75725833339E+01  0.26713889769E+02  0.51100000000E-03 0. -1.
        -11    1    3    3    0    0  0.14492904131E+02  0.24321084204E+01  0.10130196719E+00  0.14695907045E+02  0.51100000000E-03 0.  1.
        -12    1    3    3    0    0 -0.16956430059E+02 -0.14916693728E+00  0.57084106587E+01  0.17892141386E+02  0.00000000000E+00 0.  1.
</event>
<event>
 7    1  0.6065977E-013  0.5930193E+02  0.7816164E-02  0.1266605E+00
        -11   -1    0    0    0    0  0.00000000000E+00  0.00000000000E+00  0.45593999997E+02  0.45594000000E+02  0.51100000000E-03 0.  1.
         11   -1    0    0    0    0 -0.00000000000E+00 -0.00000000000E+00 -0.45593999997E+02  0.45594000000E+02  0.51100000000E-03 0. -1.
    9900012    2    1    2    0    0 -0.29214831656E+02 -0.12758881963E+02  0.65247668960E+00  0.59301934337E+02  0.49999982327E+02 0.  0.
        -12    1    1    2    0    0  0.29214831656E+02  0.12758881963E+02 -0.65247668960E+00  0.31886065663E+02  0.00000000000E+00 0.  1.
         11    1    3    3    0    0 -0.18154745499E+02 -0.19069618114E+02 -0.15851089216E+02  0.30732753680E+02  0.51100000000E-03 0. -1.
        -11    1    3    3    0    0  0.50651097473E+01  0.48955249794E+01  0.61741960407E+01  0.93670805796E+01  0.51100000000E-03 0.  1.
         12    1    3    3    0    0 -0.16125195904E+02  0.14152111709E+01  0.10329369865E+02  0.19202100078E+02  0.00000000000E+00 0. -1.
</event>
<event>
 7    1  0.6065977E-013  0.5930208E+02  0.7816164E-02  0.1266604E+00
        -11   -1    0    0    0    0  0.00000000000E+00  0.00000000000E+00  0.45593999997E+02  0.45594000000E+02  0.51100000000E-03 0.  1.
         11   -1    0    0    0    0 -0.00000000000E+00 -0.00000000000E+00 -0.45593999997E+02  0.45594000000E+02  0.51100000000E-03 0. -1.
    9900012    2    1    2    0    0 -0.26878377700E+02  0.15025970637E+02  0.82755745408E+01  0.59302076533E+02  0.50000241657E+02 0.  0.
        -12    1    1    2    0    0  0.26878377700E+02 -0.15025970637E+02 -0.82755745408E+01  0.31885923467E+02  0.00000000000E+00 0.  1.
         11    1    3    3    0    0 -0.21550130391E+02 -0.16185144311E+02  0.20360322625E+01  0.27027993708E+02  0.51100000000E-03 0. -1.
        -11    1    3    3    0    0 -0.20714889986E+01  0.12729537452E+02  0.27143080814E+01  0.13179516647E+02  0.51100000000E-03 0.  1.
         12    1    3    3    0    0 -0.32567583107E+01  0.18481577495E+02  0.35252341968E+01  0.19094566179E+02  0.00000000000E+00 0. -1.
</event>
<event>
 7    1  0.6065977E-013  0.5930195E+02  0.7816164E-02  0.1266605E+00
        -11   -1    0    0    0    0  0.00000000000E+00  0.00000000000E+00  0.45593999997E+02  0.45594000000E+02  0.51100000000E-03 0. -1.
         11   -1    0    0    0    0 -0.00000000000E+00 -0.00000000000E+00 -0.45593999997E+02  0.45594000000E+02  0.51100000000E-03 0.  1.
    9900012    2    1    2    0    0 -0.18011495673E+02  0.10065721362E+02  0.24310235124E+02  0.59301948901E+02  0.50000008887E+02 0.  0.
        -12    1    1    2    0    0  0.18011495673E+02 -0.10065721362E+02 -0.24310235124E+02  0.31886051099E+02  0.00000000000E+00 0.  1.
         11    1    3    3    0    0 -0.21452506679E+02  0.67707436332E+01  0.79499177353E+01  0.23859048691E+02  0.51100000000E-03 0. -1.
        -11    1    3    3    0    0  0.16431671821E+02  0.71063306771E+01  0.93929591825E+01  0.20217009101E+02  0.51100000000E-03 0.  1.
        -12    1    3    3    0    0 -0.12990660814E+02 -0.38113529482E+01  0.69673582065E+01  0.15225891109E+02  0.00000000000E+00 0.  1.
</event>
<event>
 7    1  0.6065977E-013  0.5930195E+02  0.7816164E-02  0.1266605E+00
        -11   -1    0    0    0    0  0.00000000000E+00  0.00000000000E+00  0.45593999997E+02  0.45594000000E+02  0.51100000000E-03 0. -1.
         11   -1    0    0    0    0 -0.00000000000E+00 -0.00000000000E+00 -0.45593999997E+02  0.45594000000E+02  0.51100000000E-03 0.  1.
    9900012    2    1    2    0    0  0.14089027754E+02  0.24733296987E+01  0.28497402047E+02  0.59301953110E+02  0.50000016564E+02 0.  0.
        -12    1    1    2    0    0 -0.14089027754E+02 -0.24733296987E+01 -0.28497402047E+02  0.31886046890E+02  0.00000000000E+00 0.  1.
         11    1    3    3    0    0 -0.74038985549E+01  0.10261226812E+02  0.79359321644E+01  0.14936181208E+02  0.51100000000E-03 0. -1.
        -11    1    3    3    0    0  0.16697161667E+02 -0.13601629193E+02  0.26941614969E+02  0.34491305308E+02  0.51100000000E-03 0.  1.
        -12    1    3    3    0    0  0.47957646424E+01  0.58137320798E+01 -0.63801450865E+01  0.98744665945E+01  0.00000000000E+00 0.  1.
</event>
<event>
 7    1  0.6065977E-013  0.5930200E+02  0.7816164E-02  0.1266605E+00
        -11   -1    0    0    0    0  0.00000000000E+00  0.00000000000E+00  0.45593999997E+02  0.45594000000E+02  0.51100000000E-03 0. -1.
         11   -1    0    0    0    0 -0.00000000000E+00 -0.00000000000E+00 -0.45593999997E+02  0.45594000000E+02  0.51100000000E-03 0.  1.
    9900012    2    1    2    0    0  0.29513145133E+02 -0.86793984699E+01  0.83880273441E+01  0.59302004702E+02  0.50000110655E+02 0.  0.
        -12    1    1    2    0    0 -0.29513145133E+02  0.86793984699E+01 -0.83880273441E+01  0.31885995298E+02  0.00000000000E+00 0.  1.
         11    1    3    3    0    0  0.22575779194E+02 -0.89746182337E+01  0.78447330035E+01  0.25529383361E+02  0.51100000000E-03 0. -1.
        -11    1    3    3    0    0  0.71449513107E+00 -0.13398304762E+02 -0.88185861398E+01  0.16055919019E+02  0.51100000000E-03 0.  1.
        -12    1    3    3    0    0  0.62228708081E+01  0.13693524526E+02  0.93618804804E+01  0.17716702322E+02  0.00000000000E+00 0.  1.
</event>
<event>
 7    1  0.6065977E-013  0.5930193E+02  0.7816164E-02  0.1266605E+00
        -11   -1    0    0    0    0  0.00000000000E+00  0.00000000000E+00  0.45593999997E+02  0.45594000000E+02  0.51100000000E-03 0. -1.
         11   -1    0    0    0    0 -0.00000000000E+00 -0.00000000000E+00 -0.45593999997E+02  0.45594000000E+02  0.51100000000E-03 0.  1.
    9900012    2    1    2    0    0  0.29395028838E+02  0.10777152582E+01  0.12308213795E+02  0.59301932237E+02  0.49999978497E+02 0.  0.
        -12    1    1    2    0    0 -0.29395028838E+02 -0.10777152582E+01 -0.12308213795E+02  0.31886067763E+02  0.00000000000E+00 0.  1.
         11    1    3    3    0    0  0.26847625820E+01  0.79034307733E+00  0.28319124731E+01  0.39814973085E+01  0.51100000000E-03 0. -1.
        -11    1    3    3    0    0  0.24124610524E+02  0.68949895182E+01 -0.15408254615E+02  0.29444049041E+02  0.51100000000E-03 0.  1.
        -12    1    3    3    0    0  0.25856557319E+01 -0.66076173373E+01  0.24884555937E+02  0.25876385888E+02  0.00000000000E+00 0.  1.
</event>
<event>
 7    1  0.6065977E-013  0.5930195E+02  0.7816164E-02  0.1266605E+00
        -11   -1    0    0    0    0  0.00000000000E+00  0.00000000000E+00  0.45593999997E+02  0.45594000000E+02  0.51100000000E-03 0.  1.
         11   -1    0    0    0    0 -0.00000000000E+00 -0.00000000000E+00 -0.45593999997E+02  0.45594000000E+02  0.51100000000E-03 0. -1.
    9900012    2    1    2    0    0 -0.17172714372E+02  0.14029778173E+02  0.22912522779E+02  0.59301945139E+02  0.50000002027E+02 0.  0.
        -12    1    1    2    0    0  0.17172714372E+02 -0.14029778173E+02 -0.22912522779E+02  0.31886054861E+02  0.00000000000E+00 0.  1.
         11    1    3    3    0    0  0.15203259477E+02 -0.21180873341E+01  0.15012139951E+00  0.15350828296E+02  0.51100000000E-03 0. -1.
        -11    1    3    3    0    0 -0.20801456619E+02  0.15419476779E+02  0.17227666588E+02  0.31100697065E+02  0.51100000000E-03 0.  1.
         12    1    3    3    0    0 -0.11574517230E+02  0.72838872733E+00  0.55347347920E+01  0.12850419778E+02  0.00000000000E+00 0. -1.
</event>
<event>
 7    1  0.6065977E-013  0.5930202E+02  0.7816164E-02  0.1266605E+00
        -11   -1    0    0    0    0  0.00000000000E+00  0.00000000000E+00  0.45593999997E+02  0.45594000000E+02  0.51100000000E-03 0. -1.
         11   -1    0    0    0    0 -0.00000000000E+00 -0.00000000000E+00 -0.45593999997E+02  0.45594000000E+02  0.51100000000E-03 0.  1.
    9900012    2    1    2    0    0 -0.94095374549E+01  0.30169574362E+02 -0.42394864394E+01  0.59302017851E+02  0.50000134636E+02 0.  0.
        -12    1    1    2    0    0  0.94095374549E+01 -0.30169574362E+02  0.42394864394E+01  0.31885982149E+02  0.00000000000E+00 0.  1.
         11    1    3    3    0    0  0.53201060145E+00  0.11685819444E+02  0.45144065759E+01  0.12538790945E+02  0.51100000000E-03 0. -1.
        -11    1    3    3    0    0 -0.37206035958E+01 -0.10491266386E+02  0.70510925320E+01  0.13176777590E+02  0.51100000000E-03 0.  1.
        -12    1    3    3    0    0 -0.62209444606E+01  0.28975021304E+02 -0.15804985547E+02  0.33586449317E+02  0.00000000000E+00 0.  1.
</event>
<event>
 7    1  0.6065977E-013  0.5930195E+02  0.7816164E-02  0.1266605E+00
        -11   -1    0    0    0    0  0.00000000000E+00  0.00000000000E+00  0.45593999997E+02  0.45594000000E+02  0.51100000000E-03 0.  1.
         11   -1    0    0    0    0 -0.00000000000E+00 -0.00000000000E+00 -0.45593999997E+02  0.45594000000E+02  0.51100000000E-03 0. -1.
    9900012    2    1    2    0    0  0.12706622261E+02  0.28582553025E+02 -0.61886646961E+01  0.59301950426E+02  0.50000011669E+02 0.  0.
        -12    1    1    2    0    0 -0.12706622261E+02 -0.28582553025E+02  0.61886646961E+01  0.31886049574E+02  0.00000000000E+00 0.  1.
         11    1    3    3    0    0  0.28369409606E+02  0.27245320735E+02 -0.91196384777E+01  0.40376957656E+02  0.51100000000E-03 0. -1.
        -11    1    3    3    0    0 -0.82958997704E+01 -0.17746167816E+01 -0.29677609304E+01  0.89877039850E+01  0.51100000000E-03 0.  1.
         12    1    3    3    0    0 -0.73668875747E+01  0.31118490721E+01  0.58987347121E+01  0.99372887846E+01  0.00000000000E+00 0. -1.
</event>
<event>
 7    1  0.6065977E-013  0.5930194E+02  0.7816164E-02  0.1266605E+00
        -11   -1    0    0    0    0  0.00000000000E+00  0.00000000000E+00  0.45593999997E+02  0.45594000000E+02  0.51100000000E-03 0. -1.
         11   -1    0    0    0    0 -0.00000000000E+00 -0.00000000000E+00 -0.45593999997E+02  0.45594000000E+02  0.51100000000E-03 0.  1.
    9900012    2    1    2    0    0 -0.10270455664E+02 -0.20795253793E+02  0.21881400456E+02  0.59301944650E+02  0.50000001134E+02 0.  0.
        -12    1    1    2    0    0  0.10270455664E+02  0.20795253793E+02 -0.21881400456E+02  0.31886055350E+02  0.00000000000E+00 0.  1.
         11    1    3    3    0    0 -0.86224585033E+01 -0.14678649630E+02 -0.49812286929E+01  0.17737592429E+02  0.51100000000E-03 0. -1.
        -11    1    3    3    0    0 -0.36172414027E-01 -0.10130293371E+00  0.32894431776E+02  0.32894607656E+02  0.51100000000E-03 0.  1.
        -12    1    3    3    0    0 -0.16118247470E+01 -0.60153012291E+01 -0.60318026268E+01  0.86697445649E+01  0.00000000000E+00 0.  1.
</event>
<event>
 7    1  0.6065977E-013  0.5930194E+02  0.7816164E-02  0.1266605E+00
        -11   -1    0    0    0    0  0.00000000000E+00  0.00000000000E+00  0.45593999997E+02  0.45594000000E+02  0.51100000000E-03 0.  1.
         11   -1    0    0    0    0 -0.00000000000E+00 -0.00000000000E+00 -0.45593999997E+02  0.45594000000E+02  0.51100000000E-03 0. -1.
    9900012    2    1    2    0    0 -0.90822129432E+01  0.19521776692E+02 -0.23518804213E+02  0.59301944917E+02  0.50000001621E+02 0.  0.
        -12    1    1    2    0    0  0.90822129432E+01 -0.19521776692E+02  0.23518804213E+02  0.31886055083E+02  0.00000000000E+00 0.  1.
         11    1    3    3    0    0 -0.49528872396E+01  0.11981258203E+02 -0.28316201645E+02  0.31143039607E+02  0.51100000000E-03 0. -1.
        -11    1    3    3    0    0 -0.14185197431E+00 -0.98760982011E+01  0.15141250310E+01  0.99924978124E+01  0.51100000000E-03 0.  1.
        -12    1    3    3    0    0 -0.39874737292E+01  0.17416616691E+02  0.32832724005E+01  0.18166407497E+02  0.00000000000E+00 0.  1.
</event>
<event>
 7    1  0.6065977E-013  0.5930195E+02  0.7816164E-02  0.1266605E+00
        -11   -1    0    0    0    0  0.00000000000E+00  0.00000000000E+00  0.45593999997E+02  0.45594000000E+02  0.51100000000E-03 0.  1.
         11   -1    0    0    0    0 -0.00000000000E+00 -0.00000000000E+00 -0.45593999997E+02  0.45594000000E+02  0.51100000000E-03 0. -1.
    9900012    2    1    2    0    0 -0.27057560021E+02  0.11514111172E+02 -0.12330210153E+02  0.59301946735E+02  0.50000004938E+02 0.  0.
        -12    1    1    2    0    0  0.27057560021E+02 -0.11514111172E+02  0.12330210153E+02  0.31886053265E+02  0.00000000000E+00 0.  1.
         11    1    3    3    0    0 -0.10204295103E+02  0.66980885030E+01  0.12142925789E+02  0.17217510712E+02  0.51100000000E-03 0. -1.
        -11    1    3    3    0    0  0.17803022620E+01  0.17785515045E+01 -0.23011213064E+02  0.23148404881E+02  0.51100000000E-03 0.  1.
        -12    1    3    3    0    0 -0.18633567179E+02  0.30374711647E+01 -0.14619228781E+01  0.18936031142E+02  0.00000000000E+00 0.  1.
</event>
<event>
 7    1  0.6065977E-013  0.5930198E+02  0.7816164E-02  0.1266605E+00
        -11   -1    0    0    0    0  0.00000000000E+00  0.00000000000E+00  0.45593999997E+02  0.45594000000E+02  0.51100000000E-03 0.  1.
         11   -1    0    0    0    0 -0.00000000000E+00 -0.00000000000E+00 -0.45593999997E+02  0.45594000000E+02  0.51100000000E-03 0. -1.
    9900012    2    1    2    0    0  0.23818745379E+02 -0.78974535786E+01 -0.19672716220E+02  0.59301981623E+02  0.50000068565E+02 0.  0.
        -12    1    1    2    0    0 -0.23818745379E+02  0.78974535786E+01  0.19672716220E+02  0.31886018377E+02  0.00000000000E+00 0.  1.
         11    1    3    3    0    0  0.17109171644E+01  0.18169386961E+02  0.13227781016E+01  0.18297639254E+02  0.51100000000E-03 0. -1.
        -11    1    3    3    0    0  0.13448604419E+02 -0.17543589211E+02 -0.88094565381E+01  0.23795987224E+02  0.51100000000E-03 0.  1.
         12    1    3    3    0    0  0.86592237962E+01 -0.85232513292E+01 -0.12186037783E+02  0.17208355146E+02  0.00000000000E+00 0. -1.
</event>
<event>
 7    1  0.6065977E-013  0.5930196E+02  0.7816164E-02  0.1266605E+00
        -11   -1    0    0    0    0  0.00000000000E+00  0.00000000000E+00  0.45593999997E+02  0.45594000000E+02  0.51100000000E-03 0. -1.
         11   -1    0    0    0    0 -0.00000000000E+00 -0.00000000000E+00 -0.45593999997E+02  0.45594000000E+02  0.51100000000E-03 0.  1.
    9900012    2    1    2    0    0 -0.22253285550E+02  0.21422955020E+02  0.79099986211E+01  0.59301956067E+02  0.50000021956E+02 0.  0.
        -12    1    1    2    0    0  0.22253285550E+02 -0.21422955020E+02 -0.79099986211E+01  0.31886043933E+02  0.00000000000E+00 0.  1.
         11    1    3    3    0    0 -0.19974601117E+00  0.21467356042E+02  0.78133355284E+01  0.22845907429E+02  0.51100000000E-03 0. -1.
        -11    1    3    3    0    0 -0.28979136513E+02 -0.90411122164E+00  0.24366370298E+01  0.29095445870E+02  0.51100000000E-03 0.  1.
        -12    1    3    3    0    0  0.69255969740E+01  0.85971019908E+00 -0.23399739370E+01  0.73606027673E+01  0.00000000000E+00 0.  1.
</event>
<event>
 7    1  0.6065977E-013  0.5930190E+02  0.7816164E-02  0.1266605E+00
        -11   -1    0    0    0    0  0.00000000000E+00  0.00000000000E+00  0.45593999997E+02  0.45594000000E+02  0.51100000000E-03 0.  1.
         11   -1    0    0    0    0 -0.00000000000E+00 -0.00000000000E+00 -0.45593999997E+02  0.45594000000E+02  0.51100000000E-03 0. -1.
    9900012    2    1    2    0    0  0.21589494013E+02 -0.14769175032E+02 -0.18234266898E+02  0.59301901584E+02  0.49999922594E+02 0.  0.
        -12    1    1    2    0    0 -0.21589494013E+02  0.14769175032E+02  0.18234266898E+02  0.31886098416E+02  0.00000000000E+00 0.  1.
         11    1    3    3    0    0  0.13338840663E+02 -0.35386139425E+01  0.16164203898E+02  0.21253892510E+02  0.51100000000E-03 0. -1.
        -11    1    3    3    0    0 -0.14696530775E+01 -0.26570574529E+00 -0.46963219418E+01  0.49280746498E+01  0.51100000000E-03 0.  1.
         12    1    3    3    0    0  0.97203064274E+01 -0.10964855344E+02 -0.29702148854E+02  0.33119934425E+02  0.00000000000E+00 0. -1.
</event>
<event>
 7    1  0.6065977E-013  0.5930211E+02  0.7816164E-02  0.1266604E+00
        -11   -1    0    0    0    0  0.00000000000E+00  0.00000000000E+00  0.45593999997E+02  0.45594000000E+02  0.51100000000E-03 0. -1.
         11   -1    0    0    0    0 -0.00000000000E+00 -0.00000000000E+00 -0.45593999997E+02  0.45594000000E+02  0.51100000000E-03 0.  1.
    9900012    2    1    2    0    0 -0.20376447260E+02  0.21863129556E+02  0.11113681699E+02  0.59302110365E+02  0.50000303358E+02 0.  0.
        -12    1    1    2    0    0  0.20376447260E+02 -0.21863129556E+02 -0.11113681699E+02  0.31885889635E+02  0.00000000000E+00 0.  1.
         11    1    3    3    0    0 -0.66830560537E+01  0.17695430580E+02  0.29051784601E+02  0.34666953866E+02  0.51100000000E-03 0. -1.
        -11    1    3    3    0    0 -0.48280970810E+00  0.35820461664E+01 -0.46373770737E+01  0.58795770543E+01  0.51100000000E-03 0.  1.
         12    1    3    3    0    0 -0.13210581498E+02  0.58565281031E+00 -0.13300725828E+02  0.18755579444E+02  0.00000000000E+00 0. -1.
</event>
<event>
 7    1  0.6065977E-013  0.5930191E+02  0.7816164E-02  0.1266605E+00
        -11   -1    0    0    0    0  0.00000000000E+00  0.00000000000E+00  0.45593999997E+02  0.45594000000E+02  0.51100000000E-03 0.  1.
         11   -1    0    0    0    0 -0.00000000000E+00 -0.00000000000E+00 -0.45593999997E+02  0.45594000000E+02  0.51100000000E-03 0. -1.
    9900012    2    1    2    0    0  0.17731683996E+02  0.60040634615E+01 -0.25812042501E+02  0.59301906896E+02  0.49999932281E+02 0.  0.
        -12    1    1    2    0    0 -0.17731683996E+02 -0.60040634615E+01  0.25812042501E+02  0.31886093104E+02  0.00000000000E+00 0.  1.
         11    1    3    3    0    0  0.14094455445E+02  0.10988442577E+02 -0.27665496109E+02  0.32935986698E+02  0.51100000000E-03 0. -1.
        -11    1    3    3    0    0  0.96172412397E+01 -0.15394716180E+01  0.11139012330E+02  0.14796583994E+02  0.51100000000E-03 0.  1.
        -12    1    3    3    0    0 -0.59800126893E+01 -0.34449074971E+01 -0.92855587219E+01  0.11569336204E+02  0.00000000000E+00 0.  1.
</event>
<event>
 7    1  0.6065977E-013  0.5930193E+02  0.7816164E-02  0.1266605E+00
        -11   -1    0    0    0    0  0.00000000000E+00  0.00000000000E+00  0.45593999997E+02  0.45594000000E+02  0.51100000000E-03 0.  1.
         11   -1    0    0    0    0 -0.00000000000E+00 -0.00000000000E+00 -0.45593999997E+02  0.45594000000E+02  0.51100000000E-03 0. -1.
    9900012    2    1    2    0    0  0.11108507134E+02 -0.18126721310E+02 -0.23764347452E+02  0.59301934610E+02  0.49999982825E+02 0.  0.
        -12    1    1    2    0    0 -0.11108507134E+02  0.18126721310E+02  0.23764347452E+02  0.31886065390E+02  0.00000000000E+00 0.  1.
         11    1    3    3    0    0  0.15465943371E+00 -0.22708068577E+01 -0.16183667538E+02  0.16342936657E+02  0.51100000000E-03 0. -1.
        -11    1    3    3    0    0  0.14288233156E+02 -0.22135605681E+02  0.65428379618E+01  0.27146774660E+02  0.51100000000E-03 0.  1.
        -12    1    3    3    0    0 -0.33343854551E+01  0.62796912286E+01 -0.14123517876E+02  0.15812223293E+02  0.00000000000E+00 0.  1.
</event>
<event>
 7    1  0.6065977E-013  0.5930190E+02  0.7816164E-02  0.1266605E+00
        -11   -1    0    0    0    0  0.00000000000E+00  0.00000000000E+00  0.45593999997E+02  0.45594000000E+02  0.51100000000E-03 0.  1.
         11   -1    0    0    0    0 -0.00000000000E+00 -0.00000000000E+00 -0.45593999997E+02  0.45594000000E+02  0.51100000000E-03 0. -1.
    9900012    2    1    2    0    0  0.96034198074E+01  0.14440687816E+02 -0.26757503732E+02  0.59301903616E+02  0.49999926299E+02 0.  0.
        -12    1    1    2    0    0 -0.96034198074E+01 -0.14440687816E+02  0.26757503732E+02  0.31886096384E+02  0.00000000000E+00 0.  1.
         11    1    3    3    0    0  0.78494922564E+01 -0.78419433778E+01 -0.32386115751E+01  0.11558512440E+02  0.51100000000E-03 0. -1.
        -11    1    3    3    0    0 -0.13438645867E+02  0.13083483458E+02 -0.23391583551E+02  0.29982343528E+02  0.51100000000E-03 0.  1.
        -12    1    3    3    0    0  0.15192573418E+02  0.91991477351E+01 -0.12730860671E+00  0.17761047649E+02  0.00000000000E+00 0.  1.
</event>
<event>
 7    1  0.6065977E-013  0.5930195E+02  0.7816164E-02  0.1266605E+00
        -11   -1    0    0    0    0  0.00000000000E+00  0.00000000000E+00  0.45593999997E+02  0.45594000000E+02  0.51100000000E-03 0.  1.
         11   -1    0    0    0    0 -0.00000000000E+00 -0.00000000000E+00 -0.45593999997E+02  0.45594000000E+02  0.51100000000E-03 0. -1.
    9900012    2    1    2    0    0 -0.11061757294E+02  0.19987025817E+02 -0.22245825717E+02  0.59301946038E+02  0.50000003667E+02 0.  0.
        -12    1    1    2    0    0  0.11061757294E+02 -0.19987025817E+02  0.22245825717E+02  0.31886053962E+02  0.00000000000E+00 0.  1.
         11    1    3    3    0    0 -0.83044494145E+01  0.29699594446E+02 -0.14032097432E+02  0.33881109027E+02  0.51100000000E-03 0. -1.
        -11    1    3    3    0    0 -0.10959827952E+02 -0.11184277101E+02 -0.44664241478E+01  0.16283575405E+02  0.51100000000E-03 0.  1.
        -12    1    3    3    0    0  0.82025200727E+01  0.14717084724E+01 -0.37473041365E+01  0.91372616063E+01  0.00000000000E+00 0.  1.
</event>
<event>
 7    1  0.6065977E-013  0.5930193E+02  0.7816164E-02  0.1266605E+00
        -11   -1    0    0    0    0  0.00000000000E+00  0.00000000000E+00  0.45593999997E+02  0.45594000000E+02  0.51100000000E-03 0.  1.
         11   -1    0    0    0    0 -0.00000000000E+00 -0.00000000000E+00 -0.45593999997E+02  0.45594000000E+02  0.51100000000E-03 0. -1.
    9900012    2    1    2    0    0 -0.15793672890E+01 -0.70513637673E+01 -0.31056481322E+02  0.59301934640E+02  0.49999982879E+02 0.  0.
        -12    1    1    2    0    0  0.15793672890E+01  0.70513637673E+01  0.31056481322E+02  0.31886065360E+02  0.00000000000E+00 0.  1.
         11    1    3    3    0    0 -0.12304458216E+02 -0.17633177305E+02 -0.22918082415E+02  0.31425580913E+02  0.51100000000E-03 0. -1.
        -11    1    3    3    0    0  0.50157748515E+01  0.10734314482E+02  0.55205988494E+01  0.13071362464E+02  0.51100000000E-03 0.  1.
         12    1    3    3    0    0  0.57093160757E+01 -0.15250094465E+00 -0.13658997756E+02  0.14804991263E+02  0.00000000000E+00 0. -1.
</event>
<event>
 7    1  0.6065977E-013  0.5930195E+02  0.7816164E-02  0.1266605E+00
        -11   -1    0    0    0    0  0.00000000000E+00  0.00000000000E+00  0.45593999997E+02  0.45594000000E+02  0.51100000000E-03 0.  1.
         11   -1    0    0    0    0 -0.00000000000E+00 -0.00000000000E+00 -0.45593999997E+02  0.45594000000E+02  0.51100000000E-03 0. -1.
    9900012    2    1    2    0    0  0.29548648494E+02  0.34105118409E+01 -0.11487645988E+02  0.59301949301E+02  0.50000009617E+02 0.  0.
        -12    1    1    2    0    0 -0.29548648494E+02 -0.34105118409E+01  0.11487645988E+02  0.31886050699E+02  0.00000000000E+00 0.  1.
         11    1    3    3    0    0  0.12732266870E+02 -0.17705708666E+02  0.19222873749E+01  0.21892873910E+02  0.51100000000E-03 0. -1.
        -11    1    3    3    0    0 -0.28890123733E+01  0.13172505537E+02 -0.71281312651E+01  0.15253574998E+02  0.51100000000E-03 0.  1.
        -12    1    3    3    0    0  0.19705393997E+02  0.79437149702E+01 -0.62818020973E+01  0.22155500393E+02  0.00000000000E+00 0.  1.
</event>
<event>
 7    1  0.6065977E-013  0.5930193E+02  0.7816164E-02  0.1266605E+00
        -11   -1    0    0    0    0  0.00000000000E+00  0.00000000000E+00  0.45593999997E+02  0.45594000000E+02  0.51100000000E-03 0. -1.
         11   -1    0    0    0    0 -0.00000000000E+00 -0.00000000000E+00 -0.45593999997E+02  0.45594000000E+02  0.51100000000E-03 0.  1.
    9900012    2    1    2    0    0 -0.88886946186E+01 -0.28809209840E+02  0.10379873693E+02  0.59301933427E+02  0.49999980666E+02 0.  0.
        -12    1    1    2    0    0  0.88886946186E+01  0.28809209840E+02 -0.10379873693E+02  0.31886066573E+02  0.00000000000E+00 0.  1.
         11    1    3    3    0    0 -0.35111702606E+01  0.17550138394E+01  0.98148034802E+01  0.10570655504E+02  0.51100000000E-03 0. -1.
        -11    1    3    3    0    0  0.14791418306E+02 -0.16429411656E+02 -0.66183090843E+01  0.23076257024E+02  0.51100000000E-03 0.  1.
        -12    1    3    3    0    0 -0.20168942664E+02 -0.14134812024E+02  0.71833792975E+01  0.25655020898E+02  0.00000000000E+00 0.  1.
</event>
<event>
 7    1  0.6065977E-013  0.5930196E+02  0.7816164E-02  0.1266605E+00
        -11   -1    0    0    0    0  0.00000000000E+00  0.00000000000E+00  0.45593999997E+02  0.45594000000E+02  0.51100000000E-03 0.  1.
         11   -1    0    0    0    0 -0.00000000000E+00 -0.00000000000E+00 -0.45593999997E+02  0.45594000000E+02  0.51100000000E-03 0. -1.
    9900012    2    1    2    0    0  0.22712308914E+02 -0.90816537468E+01 -0.20454691487E+02  0.59301955798E+02  0.50000021467E+02 0.  0.
        -12    1    1    2    0    0 -0.22712308914E+02  0.90816537468E+01  0.20454691487E+02  0.31886044202E+02  0.00000000000E+00 0.  1.
         11    1    3    3    0    0  0.23145278706E+01 -0.87215998053E+01 -0.17327087973E+02  0.19535898247E+02  0.51100000000E-03 0. -1.
        -11    1    3    3    0    0  0.13194126076E+02  0.15323353798E+02  0.47857855533E+01  0.20779650578E+02  0.51100000000E-03 0.  1.
        -12    1    3    3    0    0  0.72036549675E+01 -0.15683407740E+02 -0.79133890675E+01  0.18986406973E+02  0.00000000000E+00 0.  1.
</event>
<event>
 7    1  0.6065977E-013  0.5930191E+02  0.7816164E-02  0.1266605E+00
        -11   -1    0    0    0    0  0.00000000000E+00  0.00000000000E+00  0.45593999997E+02  0.45594000000E+02  0.51100000000E-03 0.  1.
         11   -1    0    0    0    0 -0.00000000000E+00 -0.00000000000E+00 -0.45593999997E+02  0.45594000000E+02  0.51100000000E-03 0. -1.
    9900012    2    1    2    0    0  0.94475217076E-01 -0.55068055582E+01 -0.31406824194E+02  0.59301914650E+02  0.49999946422E+02 0.  0.
        -12    1    1    2    0    0 -0.94475217076E-01  0.55068055582E+01  0.31406824194E+02  0.31886085350E+02  0.00000000000E+00 0.  1.
         11    1    3    3    0    0  0.21008985625E+02  0.96440421813E+01 -0.21197959285E+02  0.31364605923E+02  0.51100000000E-03 0. -1.
        -11    1    3    3    0    0 -0.36565081410E+01 -0.27154630363E+01 -0.59182546661E+00  0.45928258110E+01  0.51100000000E-03 0.  1.
         12    1    3    3    0    0 -0.17258002267E+02 -0.12435384703E+02 -0.96170394427E+01  0.23344482916E+02  0.00000000000E+00 0. -1.
</event>
<event>
 7    1  0.6065977E-013  0.5930197E+02  0.7816164E-02  0.1266605E+00
        -11   -1    0    0    0    0  0.00000000000E+00  0.00000000000E+00  0.45593999997E+02  0.45594000000E+02  0.51100000000E-03 0. -1.
         11   -1    0    0    0    0 -0.00000000000E+00 -0.00000000000E+00 -0.45593999997E+02  0.45594000000E+02  0.51100000000E-03 0.  1.
    9900012    2    1    2    0    0  0.49931462643E-01  0.28711151590E+02 -0.13870337569E+02  0.59301968841E+02  0.50000045254E+02 0.  0.
        -12    1    1    2    0    0 -0.49931462643E-01 -0.28711151590E+02  0.13870337569E+02  0.31886031159E+02  0.00000000000E+00 0.  1.
         11    1    3    3    0    0 -0.44941209282E+01  0.26576378644E+02  0.76737291686E+01  0.28024759488E+02  0.51100000000E-03 0. -1.
        -11    1    3    3    0    0  0.95946812099E+01 -0.39096824327E+00 -0.23431767228E+02  0.25323081948E+02  0.51100000000E-03 0.  1.
         12    1    3    3    0    0 -0.50506288190E+01  0.25257411893E+01  0.18877004896E+01  0.59541274055E+01  0.00000000000E+00 0. -1.
</event>
<event>
 7    1  0.6065977E-013  0.5930196E+02  0.7816164E-02  0.1266605E+00
        -11   -1    0    0    0    0  0.00000000000E+00  0.00000000000E+00  0.45593999997E+02  0.45594000000E+02  0.51100000000E-03 0.  1.
         11   -1    0    0    0    0 -0.00000000000E+00 -0.00000000000E+00 -0.45593999997E+02  0.45594000000E+02  0.51100000000E-03 0. -1.
    9900012    2    1    2    0    0  0.21874923531E+02  0.22916346312E+02  0.36122477491E+01  0.59301960083E+02  0.50000029282E+02 0.  0.
        -12    1    1    2    0    0 -0.21874923531E+02 -0.22916346312E+02 -0.36122477491E+01  0.31886039917E+02  0.00000000000E+00 0.  1.
         11    1    3    3    0    0  0.15911694230E+01  0.16615861904E+02  0.16006036507E+02  0.23126000343E+02  0.51100000000E-03 0.  1.
        -11    1    3    3    0    0  0.22765145808E+02 -0.42411027272E+01 -0.84938804317E+01  0.24665458055E+02  0.51100000000E-03 0. -1.
         12    1    3    3    0    0 -0.24813917004E+01  0.10541587135E+02 -0.38999083262E+01  0.11510501685E+02  0.00000000000E+00 0. -1.
</event>
<event>
 7    1  0.6065977E-013  0.5930195E+02  0.7816164E-02  0.1266605E+00
        -11   -1    0    0    0    0  0.00000000000E+00  0.00000000000E+00  0.45593999997E+02  0.45594000000E+02  0.51100000000E-03 0.  1.
         11   -1    0    0    0    0 -0.00000000000E+00 -0.00000000000E+00 -0.45593999997E+02  0.45594000000E+02  0.51100000000E-03 0. -1.
    9900012    2    1    2    0    0 -0.15154011746E+02 -0.26742070616E+02 -0.84816184874E+01  0.59301948739E+02  0.50000008593E+02 0.  0.
        -12    1    1    2    0    0  0.15154011746E+02  0.26742070616E+02  0.84816184874E+01  0.31886051261E+02  0.00000000000E+00 0.  1.
         11    1    3    3    0    0  0.87525997388E+01  0.41678793288E+01  0.20957100531E+01  0.99182267152E+01  0.51100000000E-03 0. -1.
        -11    1    3    3    0    0 -0.18230658809E+02 -0.13537456477E+02 -0.18668903071E+02  0.29396387373E+02  0.51100000000E-03 0.  1.
        -12    1    3    3    0    0 -0.56759526758E+01 -0.17372493468E+02  0.80915745304E+01  0.19987334651E+02  0.00000000000E+00 0.  1.
</event>
<event>
 7    1  0.6065977E-013  0.5930194E+02  0.7816164E-02  0.1266605E+00
        -11   -1    0    0    0    0  0.00000000000E+00  0.00000000000E+00  0.45593999997E+02  0.45594000000E+02  0.51100000000E-03 0.  1.
         11   -1    0    0    0    0 -0.00000000000E+00 -0.00000000000E+00 -0.45593999997E+02  0.45594000000E+02  0.51100000000E-03 0. -1.
    9900012    2    1    2    0    0  0.10885186559E+02  0.19919349806E+02 -0.22393142171E+02  0.59301943495E+02  0.49999999029E+02 0.  0.
        -12    1    1    2    0    0 -0.10885186559E+02 -0.19919349806E+02  0.22393142171E+02  0.31886056505E+02  0.00000000000E+00 0.  1.
         11    1    3    3    0    0  0.11033057443E+02  0.30730807751E+02 -0.25929328707E+02  0.41694615828E+02  0.51100000000E-03 0. -1.
        -11    1    3    3    0    0  0.38304931608E+01 -0.20558504829E+00  0.48724839709E+01  0.62012936856E+01  0.51100000000E-03 0.  1.
         12    1    3    3    0    0 -0.39783640448E+01 -0.10605872896E+02 -0.13362974350E+01  0.11406033982E+02  0.00000000000E+00 0. -1.
</event>
<event>
 7    1  0.6065977E-013  0.5930194E+02  0.7816164E-02  0.1266605E+00
        -11   -1    0    0    0    0  0.00000000000E+00  0.00000000000E+00  0.45593999997E+02  0.45594000000E+02  0.51100000000E-03 0.  1.
         11   -1    0    0    0    0 -0.00000000000E+00 -0.00000000000E+00 -0.45593999997E+02  0.45594000000E+02  0.51100000000E-03 0. -1.
    9900012    2    1    2    0    0 -0.32585808777E+01  0.60718688881E+01 -0.31132537315E+02  0.59301940024E+02  0.49999992697E+02 0.  0.
        -12    1    1    2    0    0  0.32585808777E+01 -0.60718688881E+01  0.31132537315E+02  0.31886059976E+02  0.00000000000E+00 0.  1.
         11    1    3    3    0    0  0.40342936413E+00  0.24394795127E+01 -0.12914812506E+02  0.13149380133E+02  0.51100000000E-03 0. -1.
        -11    1    3    3    0    0  0.14890885466E+02  0.64796328952E+01  0.43374567770E+01  0.16808856117E+02  0.51100000000E-03 0.  1.
        -12    1    3    3    0    0 -0.18552895707E+02 -0.28472435198E+01 -0.22555181586E+02  0.29343703774E+02  0.00000000000E+00 0.  1.
</event>
<event>
 7    1  0.6065977E-013  0.5930194E+02  0.7816164E-02  0.1266605E+00
        -11   -1    0    0    0    0  0.00000000000E+00  0.00000000000E+00  0.45593999997E+02  0.45594000000E+02  0.51100000000E-03 0. -1.
         11   -1    0    0    0    0 -0.00000000000E+00 -0.00000000000E+00 -0.45593999997E+02  0.45594000000E+02  0.51100000000E-03 0.  1.
    9900012    2    1    2    0    0 -0.60214523761E+01 -0.27326092649E+02  0.15288798044E+02  0.59301943897E+02  0.49999999761E+02 0.  0.
        -12    1    1    2    0    0  0.60214523761E+01  0.27326092649E+02 -0.15288798044E+02  0.31886056103E+02  0.00000000000E+00 0.  1.
         11    1    3    3    0    0 -0.36523859119E+01  0.54135282417E+01  0.17760437956E+02  0.18922985164E+02  0.51100000000E-03 0. -1.
        -11    1    3    3    0    0  0.84096830826E+01 -0.24067054618E+02  0.26398022285E+01  0.25630342245E+02  0.51100000000E-03 0.  1.
        -12    1    3    3    0    0 -0.10778749547E+02 -0.86725662725E+01 -0.51114421399E+01  0.14748616487E+02  0.00000000000E+00 0.  1.
</event>
<event>
 7    1  0.6065977E-013  0.5930192E+02  0.7816164E-02  0.1266605E+00
        -11   -1    0    0    0    0  0.00000000000E+00  0.00000000000E+00  0.45593999997E+02  0.45594000000E+02  0.51100000000E-03 0.  1.
         11   -1    0    0    0    0 -0.00000000000E+00 -0.00000000000E+00 -0.45593999997E+02  0.45594000000E+02  0.51100000000E-03 0. -1.
    9900012    2    1    2    0    0  0.17518577874E+02 -0.25171009301E+02 -0.87316529790E+01  0.59301920848E+02  0.49999957725E+02 0.  0.
        -12    1    1    2    0    0 -0.17518577874E+02  0.25171009301E+02  0.87316529790E+01  0.31886079152E+02  0.00000000000E+00 0.  1.
         11    1    3    3    0    0 -0.25885269151E+01 -0.28603500851E+02  0.30900118265E+01  0.28886136915E+02  0.51100000000E-03 0.  1.
        -11    1    3    3    0    0  0.20079246691E+02 -0.95636512027E+00 -0.14928078300E+02  0.25038736068E+02  0.51100000000E-03 0. -1.
        -12    1    3    3    0    0  0.27858098692E-01  0.43888566703E+01  0.31064134940E+01  0.53770478649E+01  0.00000000000E+00 0.  1.
</event>
<event>
 7    1  0.6065977E-013  0.5930191E+02  0.7816164E-02  0.1266605E+00
        -11   -1    0    0    0    0  0.00000000000E+00  0.00000000000E+00  0.45593999997E+02  0.45594000000E+02  0.51100000000E-03 0. -1.
         11   -1    0    0    0    0 -0.00000000000E+00 -0.00000000000E+00 -0.45593999997E+02  0.45594000000E+02  0.51100000000E-03 0.  1.
    9900012    2    1    2    0    0  0.28971803004E+02  0.24195067801E+01 -0.13095929115E+02  0.59301909902E+02  0.49999937763E+02 0.  0.
        -12    1    1    2    0    0 -0.28971803004E+02 -0.24195067801E+01  0.13095929115E+02  0.31886090098E+02  0.00000000000E+00 0.  1.
         11    1    3    3    0    0  0.13243019686E+01  0.14757740700E+01  0.32610024299E+01  0.38165196080E+01  0.51100000000E-03 0. -1.
        -11    1    3    3    0    0  0.36282445659E+02 -0.74129512559E+01 -0.24599394914E+01  0.37113596051E+02  0.51100000000E-03 0.  1.
        -12    1    3    3    0    0 -0.86349446236E+01  0.83566839660E+01 -0.13896992054E+02  0.18371794243E+02  0.00000000000E+00 0.  1.
</event>
<event>
 7    1  0.6065977E-013  0.5930194E+02  0.7816164E-02  0.1266605E+00
        -11   -1    0    0    0    0  0.00000000000E+00  0.00000000000E+00  0.45593999997E+02  0.45594000000E+02  0.51100000000E-03 0.  1.
         11   -1    0    0    0    0 -0.00000000000E+00 -0.00000000000E+00 -0.45593999997E+02  0.45594000000E+02  0.51100000000E-03 0. -1.
    9900012    2    1    2    0    0 -0.13302861390E+02 -0.20512096983E+02 -0.20469697569E+02  0.59301940940E+02  0.49999994369E+02 0.  0.
        -12    1    1    2    0    0  0.13302861390E+02  0.20512096983E+02  0.20469697569E+02  0.31886059060E+02  0.00000000000E+00 0.  1.
         11    1    3    3    0    0  0.14946968187E+02 -0.10899143889E+02 -0.62913376801E+01  0.19539296957E+02  0.51100000000E-03 0. -1.
        -11    1    3    3    0    0 -0.12691538995E+02  0.66988497714E+01 -0.78100252797E+01  0.16338489693E+02  0.51100000000E-03 0.  1.
         12    1    3    3    0    0 -0.15558290582E+02 -0.16311802865E+02 -0.63683346088E+01  0.23424154290E+02  0.00000000000E+00 0. -1.
</event>
<event>
 7    1  0.6065977E-013  0.5930195E+02  0.7816164E-02  0.1266605E+00
        -11   -1    0    0    0    0  0.00000000000E+00  0.00000000000E+00  0.45593999997E+02  0.45594000000E+02  0.51100000000E-03 0.  1.
         11   -1    0    0    0    0 -0.00000000000E+00 -0.00000000000E+00 -0.45593999997E+02  0.45594000000E+02  0.51100000000E-03 0. -1.
    9900012    2    1    2    0    0 -0.27101590634E+02 -0.15977307215E+02 -0.51913278949E+01  0.59301945900E+02  0.50000003415E+02 0.  0.
        -12    1    1    2    0    0  0.27101590634E+02  0.15977307215E+02  0.51913278949E+01  0.31886054100E+02  0.00000000000E+00 0.  1.
         11    1    3    3    0    0 -0.18195821935E+02 -0.15767786203E+02 -0.23708135903E+02  0.33790334800E+02  0.51100000000E-03 0. -1.
        -11    1    3    3    0    0 -0.13027383689E+02  0.28804607391E+00  0.11606478112E+02  0.17450101167E+02  0.51100000000E-03 0.  1.
         12    1    3    3    0    0  0.41216149895E+01 -0.49756708639E+00  0.69103298966E+01  0.80615099335E+01  0.00000000000E+00 0. -1.
</event>
<event>
 7    1  0.6065977E-013  0.5930193E+02  0.7816164E-02  0.1266605E+00
        -11   -1    0    0    0    0  0.00000000000E+00  0.00000000000E+00  0.45593999997E+02  0.45594000000E+02  0.51100000000E-03 0.  1.
         11   -1    0    0    0    0 -0.00000000000E+00 -0.00000000000E+00 -0.45593999997E+02  0.45594000000E+02  0.51100000000E-03 0. -1.
    9900012    2    1    2    0    0  0.23052023624E+02 -0.37163540035E+01 -0.21714379902E+02  0.59301931337E+02  0.49999976856E+02 0.  0.
        -12    1    1    2    0    0 -0.23052023624E+02  0.37163540035E+01  0.21714379902E+02  0.31886068663E+02  0.00000000000E+00 0.  1.
         11    1    3    3    0    0  0.22565023962E+01  0.22309861804E+01 -0.86849741099E+01  0.92465062565E+01  0.51100000000E-03 0. -1.
        -11    1    3    3    0    0  0.24916017095E+02 -0.19488995928E+02 -0.12782044991E+01  0.31658532454E+02  0.51100000000E-03 0.  1.
        -12    1    3    3    0    0 -0.41204958670E+01  0.13541655744E+02 -0.11751201293E+02  0.18396892627E+02  0.00000000000E+00 0.  1.
</event>
<event>
 7    1  0.6065977E-013  0.5930191E+02  0.7816164E-02  0.1266605E+00
        -11   -1    0    0    0    0  0.00000000000E+00  0.00000000000E+00  0.45593999997E+02  0.45594000000E+02  0.51100000000E-03 0.  1.
         11   -1    0    0    0    0 -0.00000000000E+00 -0.00000000000E+00 -0.45593999997E+02  0.45594000000E+02  0.51100000000E-03 0. -1.
    9900012    2    1    2    0    0 -0.30979288153E+02  0.60515226492E+01 -0.45150440043E+01  0.59301908311E+02  0.49999934860E+02 0.  0.
        -12    1    1    2    0    0  0.30979288153E+02 -0.60515226492E+01  0.45150440043E+01  0.31886091689E+02  0.00000000000E+00 0.  1.
         11    1    3    3    0    0 -0.97769426913E+01  0.92869369612E+01 -0.13133784122E+02  0.18823710903E+02  0.51100000000E-03 0. -1.
        -11    1    3    3    0    0  0.69575961304E+01 -0.63275587340E+01  0.76656893419E+01  0.12132969002E+02  0.51100000000E-03 0.  1.
        -12    1    3    3    0    0 -0.28159941593E+02  0.30921444220E+01  0.95305077632E+00  0.28345228406E+02  0.00000000000E+00 0.  1.
</event>
<event>
 7    1  0.6065977E-013  0.5930195E+02  0.7816164E-02  0.1266605E+00
        -11   -1    0    0    0    0  0.00000000000E+00  0.00000000000E+00  0.45593999997E+02  0.45594000000E+02  0.51100000000E-03 0.  1.
         11   -1    0    0    0    0 -0.00000000000E+00 -0.00000000000E+00 -0.45593999997E+02  0.45594000000E+02  0.51100000000E-03 0. -1.
    9900012    2    1    2    0    0 -0.14192410265E+02  0.23584992712E+02 -0.16094834034E+02  0.59301951751E+02  0.50000014086E+02 0.  0.
        -12    1    1    2    0    0  0.14192410265E+02 -0.23584992712E+02  0.16094834034E+02  0.31886048249E+02  0.00000000000E+00 0.  1.
         11    1    3    3    0    0 -0.15287338260E+02  0.51771438707E+01 -0.16967244926E+02  0.23417790894E+02  0.51100000000E-03 0. -1.
        -11    1    3    3    0    0  0.11681359736E+02  0.86549239894E+01  0.11045204901E+02  0.18258105764E+02  0.51100000000E-03 0.  1.
        -12    1    3    3    0    0 -0.10586431742E+02  0.97529248518E+01 -0.10172794009E+02  0.17626055093E+02  0.00000000000E+00 0.  1.
</event>
<event>
 7    1  0.6065977E-013  0.5930197E+02  0.7816164E-02  0.1266605E+00
        -11   -1    0    0    0    0  0.00000000000E+00  0.00000000000E+00  0.45593999997E+02  0.45594000000E+02  0.51100000000E-03 0.  1.
         11   -1    0    0    0    0 -0.00000000000E+00 -0.00000000000E+00 -0.45593999997E+02  0.45594000000E+02  0.51100000000E-03 0. -1.
    9900012    2    1    2    0    0  0.26885925256E+02 -0.10389912019E+02 -0.13635088642E+02  0.59301970286E+02  0.50000047889E+02 0.  0.
        -12    1    1    2    0    0 -0.26885925256E+02  0.10389912019E+02  0.13635088642E+02  0.31886029714E+02  0.00000000000E+00 0.  1.
         11    1    3    3    0    0  0.26387497418E+02  0.29768039385E+01 -0.73167087193E+01  0.27544429717E+02  0.51100000000E-03 0. -1.
        -11    1    3    3    0    0 -0.11925463077E+02 -0.38652726730E+01  0.38356519617E+01  0.13109890490E+02  0.51100000000E-03 0.  1.
        -12    1    3    3    0    0  0.12423890914E+02 -0.95014432850E+01 -0.10154031885E+02  0.18647650079E+02  0.00000000000E+00 0.  1.
</event>
<event>
 7    1  0.6065977E-013  0.5930193E+02  0.7816164E-02  0.1266605E+00
        -11   -1    0    0    0    0  0.00000000000E+00  0.00000000000E+00  0.45593999997E+02  0.45594000000E+02  0.51100000000E-03 0.  1.
         11   -1    0    0    0    0 -0.00000000000E+00 -0.00000000000E+00 -0.45593999997E+02  0.45594000000E+02  0.51100000000E-03 0. -1.
    9900012    2    1    2    0    0  0.48783599359E+01 -0.30243940532E+02  0.88445979144E+01  0.59301933343E+02  0.49999980514E+02 0.  0.
        -12    1    1    2    0    0 -0.48783599359E+01  0.30243940532E+02 -0.88445979144E+01  0.31886066657E+02  0.00000000000E+00 0.  1.
         11    1    3    3    0    0  0.21394947878E+02 -0.58562252683E+01  0.65176083099E+01  0.23119653705E+02  0.51100000000E-03 0. -1.
        -11    1    3    3    0    0 -0.65441766446E+01 -0.16982172787E+02  0.10784636174E+02  0.21154876936E+02  0.51100000000E-03 0.  1.
        -12    1    3    3    0    0 -0.99724112978E+01 -0.74055424765E+01 -0.84576465696E+01  0.15027402702E+02  0.00000000000E+00 0.  1.
</event>
<event>
 7    1  0.6065977E-013  0.5930192E+02  0.7816164E-02  0.1266605E+00
        -11   -1    0    0    0    0  0.00000000000E+00  0.00000000000E+00  0.45593999997E+02  0.45594000000E+02  0.51100000000E-03 0. -1.
         11   -1    0    0    0    0 -0.00000000000E+00 -0.00000000000E+00 -0.45593999997E+02  0.45594000000E+02  0.51100000000E-03 0.  1.
    9900012    2    1    2    0    0 -0.26623959319E+02  0.17153772412E+02 -0.36925872004E+01  0.59301916547E+02  0.49999949882E+02 0.  0.
        -12    1    1    2    0    0  0.26623959319E+02 -0.17153772412E+02  0.36925872004E+01  0.31886083453E+02  0.00000000000E+00 0.  1.
         11    1    3    3    0    0 -0.22925510310E+02  0.15268860341E+02 -0.83776211064E+01  0.28790652212E+02  0.51100000000E-03 0. -1.
        -11    1    3    3    0    0 -0.21862147029E+01 -0.13879179428E+02  0.42107489515E+01  0.14667704774E+02  0.51100000000E-03 0.  1.
        -12    1    3    3    0    0 -0.15122343054E+01  0.15764091498E+02  0.47428495456E+00  0.15843559562E+02  0.00000000000E+00 0.  1.
</event>
<event>
 7    1  0.6065977E-013  0.5930192E+02  0.7816164E-02  0.1266605E+00
        -11   -1    0    0    0    0  0.00000000000E+00  0.00000000000E+00  0.45593999997E+02  0.45594000000E+02  0.51100000000E-03 0.  1.
         11   -1    0    0    0    0 -0.00000000000E+00 -0.00000000000E+00 -0.45593999997E+02  0.45594000000E+02  0.51100000000E-03 0. -1.
    9900012    2    1    2    0    0  0.12514729140E+02  0.15810326329E+02 -0.24700950387E+02  0.59301924448E+02  0.49999964291E+02 0.  0.
        -12    1    1    2    0    0 -0.12514729140E+02 -0.15810326329E+02  0.24700950387E+02  0.31886075552E+02  0.00000000000E+00 0.  1.
         11    1    3    3    0    0  0.65885977967E+01  0.49429603277E+01 -0.15377096631E+02  0.17444127344E+02  0.51100000000E-03 0. -1.
        -11    1    3    3    0    0  0.78542570384E+01 -0.13360859340E+02 -0.81833151713E+01  0.17526225018E+02  0.51100000000E-03 0.  1.
        -12    1    3    3    0    0 -0.19281256946E+01  0.24228225341E+02 -0.11405385847E+01  0.24331572085E+02  0.00000000000E+00 0.  1.
</event>
<event>
 7    1  0.6065977E-013  0.5930184E+02  0.7816164E-02  0.1266605E+00
        -11   -1    0    0    0    0  0.00000000000E+00  0.00000000000E+00  0.45593999997E+02  0.45594000000E+02  0.51100000000E-03 0.  1.
         11   -1    0    0    0    0 -0.00000000000E+00 -0.00000000000E+00 -0.45593999997E+02  0.45594000000E+02  0.51100000000E-03 0. -1.
    9900012    2    1    2    0    0 -0.17508693831E+02 -0.17065757429E+02  0.20467847356E+02  0.59301839809E+02  0.49999809930E+02 0.  0.
        -12    1    1    2    0    0  0.17508693831E+02  0.17065757429E+02 -0.20467847356E+02  0.31886160191E+02  0.00000000000E+00 0.  1.
         11    1    3    3    0    0 -0.13021921029E+02  0.68316553080E+01  0.47350850828E+01  0.15448720741E+02  0.51100000000E-03 0. -1.
        -11    1    3    3    0    0 -0.13665617566E+02 -0.26132721818E+02  0.17428205641E+02  0.34255081451E+02  0.51100000000E-03 0.  1.
        -12    1    3    3    0    0  0.91788447640E+01  0.22353090807E+01 -0.16954433682E+01  0.95980376172E+01  0.00000000000E+00 0.  1.
</event>
<event>
 7    1  0.6065977E-013  0.5930192E+02  0.7816164E-02  0.1266605E+00
        -11   -1    0    0    0    0  0.00000000000E+00  0.00000000000E+00  0.45593999997E+02  0.45594000000E+02  0.51100000000E-03 0.  1.
         11   -1    0    0    0    0 -0.00000000000E+00 -0.00000000000E+00 -0.45593999997E+02  0.45594000000E+02  0.51100000000E-03 0. -1.
    9900012    2    1    2    0    0  0.20243248122E+02  0.60458017714E+01 -0.23882660914E+02  0.59301916736E+02  0.49999950227E+02 0.  0.
        -12    1    1    2    0    0 -0.20243248122E+02 -0.60458017714E+01  0.23882660914E+02  0.31886083264E+02  0.00000000000E+00 0.  1.
         11    1    3    3    0    0  0.12769453796E+02  0.17770122462E+02 -0.16225251710E+02  0.27241420592E+02  0.51100000000E-03 0. -1.
        -11    1    3    3    0    0  0.78128094958E+01 -0.17520288023E+02  0.34839467459E+01  0.19497137477E+02  0.51100000000E-03 0.  1.
         12    1    3    3    0    0 -0.33901516916E+00  0.57959673319E+01 -0.11141355950E+02  0.12563358667E+02  0.00000000000E+00 0. -1.
</event>
<event>
 7    1  0.6065977E-013  0.5930194E+02  0.7816164E-02  0.1266605E+00
        -11   -1    0    0    0    0  0.00000000000E+00  0.00000000000E+00  0.45593999997E+02  0.45594000000E+02  0.51100000000E-03 0.  1.
         11   -1    0    0    0    0 -0.00000000000E+00 -0.00000000000E+00 -0.45593999997E+02  0.45594000000E+02  0.51100000000E-03 0. -1.
    9900012    2    1    2    0    0 -0.31378163418E+00  0.22651641124E+02 -0.22439372037E+02  0.59301941574E+02  0.49999995525E+02 0.  0.
        -12    1    1    2    0    0  0.31378163418E+00 -0.22651641124E+02  0.22439372037E+02  0.31886058426E+02  0.00000000000E+00 0.  1.
         11    1    3    3    0    0  0.33957948620E+00  0.91664380525E+01 -0.29675125904E+02  0.31060457151E+02  0.51100000000E-03 0. -1.
        -11    1    3    3    0    0 -0.61816121346E+01 -0.20240713873E+00  0.11342356248E+02  0.12919068958E+02  0.51100000000E-03 0.  1.
        -12    1    3    3    0    0  0.55282510142E+01  0.13687610210E+02 -0.41066023818E+01  0.15322415464E+02  0.00000000000E+00 0.  1.
</event>
<event>
 7    1  0.6065977E-013  0.5930193E+02  0.7816164E-02  0.1266605E+00
        -11   -1    0    0    0    0  0.00000000000E+00  0.00000000000E+00  0.45593999997E+02  0.45594000000E+02  0.51100000000E-03 0.  1.
         11   -1    0    0    0    0 -0.00000000000E+00 -0.00000000000E+00 -0.45593999997E+02  0.45594000000E+02  0.51100000000E-03 0. -1.
    9900012    2    1    2    0    0  0.29127090858E+02  0.12939925359E+02 -0.94463397022E+00  0.59301930574E+02  0.49999975463E+02 0.  0.
        -12    1    1    2    0    0 -0.29127090858E+02 -0.12939925359E+02  0.94463397022E+00  0.31886069426E+02  0.00000000000E+00 0.  1.
         11    1    3    3    0    0  0.14541869004E+02  0.20117971366E+02 -0.14606305535E+01  0.24866285768E+02  0.51100000000E-03 0. -1.
        -11    1    3    3    0    0  0.24326928264E+01 -0.86483992223E+01  0.13739480408E+02  0.16416032579E+02  0.51100000000E-03 0.  1.
        -12    1    3    3    0    0  0.12152529027E+02  0.14703532150E+01 -0.13223483825E+02  0.18019612226E+02  0.00000000000E+00 0.  1.
</event>
<event>
 7    1  0.6065977E-013  0.5930197E+02  0.7816164E-02  0.1266605E+00
        -11   -1    0    0    0    0  0.00000000000E+00  0.00000000000E+00  0.45593999997E+02  0.45594000000E+02  0.51100000000E-03 0.  1.
         11   -1    0    0    0    0 -0.00000000000E+00 -0.00000000000E+00 -0.45593999997E+02  0.45594000000E+02  0.51100000000E-03 0. -1.
    9900012    2    1    2    0    0  0.16388313891E+02 -0.12741918148E+02 -0.24203014307E+02  0.59301965254E+02  0.50000038711E+02 0.  0.
        -12    1    1    2    0    0 -0.16388313891E+02  0.12741918148E+02  0.24203014307E+02  0.31886034746E+02  0.00000000000E+00 0.  1.
         11    1    3    3    0    0  0.10271798047E+02 -0.26131953783E+02 -0.66600495063E+01  0.28857323218E+02  0.51100000000E-03 0. -1.
        -11    1    3    3    0    0 -0.64869071223E+01  0.97078720968E+01 -0.94479466312E+01  0.15019535295E+02  0.51100000000E-03 0.  1.
         12    1    3    3    0    0  0.12603422966E+02  0.36821635386E+01 -0.80950181701E+01  0.15425106741E+02  0.00000000000E+00 0. -1.
</event>
<event>
 7    1  0.6065977E-013  0.5930195E+02  0.7816164E-02  0.1266605E+00
        -11   -1    0    0    0    0  0.00000000000E+00  0.00000000000E+00  0.45593999997E+02  0.45594000000E+02  0.51100000000E-03 0.  1.
         11   -1    0    0    0    0 -0.00000000000E+00 -0.00000000000E+00 -0.45593999997E+02  0.45594000000E+02  0.51100000000E-03 0. -1.
    9900012    2    1    2    0    0 -0.28892433750E+02 -0.64978942233E+01  0.11820513330E+02  0.59301954577E+02  0.50000019239E+02 0.  0.
        -12    1    1    2    0    0  0.28892433750E+02  0.64978942233E+01 -0.11820513330E+02  0.31886045423E+02  0.00000000000E+00 0.  1.
         11    1    3    3    0    0 -0.20087204152E+02  0.14271299123E+02  0.20205000884E+02  0.31865464225E+02  0.51100000000E-03 0. -1.
        -11    1    3    3    0    0 -0.84035690864E+00 -0.17036358531E+02 -0.36355586317E+01  0.17440212113E+02  0.51100000000E-03 0.  1.
         12    1    3    3    0    0 -0.79648726890E+01 -0.37328348149E+01 -0.47489289223E+01  0.99962782383E+01  0.00000000000E+00 0. -1.
</event>
<event>
 7    1  0.6065977E-013  0.5930194E+02  0.7816164E-02  0.1266605E+00
        -11   -1    0    0    0    0  0.00000000000E+00  0.00000000000E+00  0.45593999997E+02  0.45594000000E+02  0.51100000000E-03 0. -1.
         11   -1    0    0    0    0 -0.00000000000E+00 -0.00000000000E+00 -0.45593999997E+02  0.45594000000E+02  0.51100000000E-03 0.  1.
    9900012    2    1    2    0    0 -0.99269161763E+01 -0.29870404849E+02 -0.50927334374E+01  0.59301942162E+02  0.49999996597E+02 0.  0.
        -12    1    1    2    0    0  0.99269161763E+01  0.29870404849E+02  0.50927334374E+01  0.31886057838E+02  0.00000000000E+00 0.  1.
         11    1    3    3    0    0 -0.63449677339E+01 -0.28629000756E+02  0.11115867329E+02  0.31359859798E+02  0.51100000000E-03 0. -1.
        -11    1    3    3    0    0  0.85699110874E+01  0.97973134919E+00 -0.15354996089E+01  0.87613360210E+01  0.51100000000E-03 0.  1.
         12    1    3    3    0    0 -0.12151859530E+02 -0.22211354421E+01 -0.14673101158E+02  0.19180746343E+02  0.00000000000E+00 0. -1.
</event>
<event>
 7    1  0.6065977E-013  0.5930195E+02  0.7816164E-02  0.1266605E+00
        -11   -1    0    0    0    0  0.00000000000E+00  0.00000000000E+00  0.45593999997E+02  0.45594000000E+02  0.51100000000E-03 0. -1.
         11   -1    0    0    0    0 -0.00000000000E+00 -0.00000000000E+00 -0.45593999997E+02  0.45594000000E+02  0.51100000000E-03 0.  1.
    9900012    2    1    2    0    0  0.26058722974E+02  0.11512552473E+02 -0.14322153754E+02  0.59301952963E+02  0.50000016296E+02 0.  0.
        -12    1    1    2    0    0 -0.26058722974E+02 -0.11512552473E+02  0.14322153754E+02  0.31886047037E+02  0.00000000000E+00 0.  1.
         11    1    3    3    0    0  0.23700702603E+02 -0.13595209378E+02 -0.64542822945E+01  0.28075091845E+02  0.51100000000E-03 0. -1.
        -11    1    3    3    0    0 -0.61582244323E+01  0.12596222333E+02 -0.78969569214E+01  0.16091938171E+02  0.51100000000E-03 0.  1.
         12    1    3    3    0    0  0.85162448037E+01  0.12511539517E+02  0.29085462305E-01  0.15134922947E+02  0.00000000000E+00 0. -1.
</event>
<event>
 7    1  0.6065977E-013  0.5930192E+02  0.7816164E-02  0.1266605E+00
        -11   -1    0    0    0    0  0.00000000000E+00  0.00000000000E+00  0.45593999997E+02  0.45594000000E+02  0.51100000000E-03 0.  1.
         11   -1    0    0    0    0 -0.00000000000E+00 -0.00000000000E+00 -0.45593999997E+02  0.45594000000E+02  0.51100000000E-03 0. -1.
    9900012    2    1    2    0    0 -0.25673389004E+02 -0.18061289092E+02  0.56025917220E+01  0.59301919955E+02  0.49999956098E+02 0.  0.
        -12    1    1    2    0    0  0.25673389004E+02  0.18061289092E+02 -0.56025917220E+01  0.31886080045E+02  0.00000000000E+00 0.  1.
         11    1    3    3    0    0 -0.64722984163E+01 -0.30439235187E+02  0.11890756032E+02  0.33314077577E+02  0.51100000000E-03 0. -1.
        -11    1    3    3    0    0 -0.13684794926E+02  0.72968862310E+01  0.98587983012E+00  0.15539952385E+02  0.51100000000E-03 0.  1.
         12    1    3    3    0    0 -0.55162956620E+01  0.50810598635E+01 -0.72740441397E+01  0.10447889993E+02  0.00000000000E+00 0. -1.
</event>
<event>
 7    1  0.6065977E-013  0.5930195E+02  0.7816164E-02  0.1266605E+00
        -11   -1    0    0    0    0  0.00000000000E+00  0.00000000000E+00  0.45593999997E+02  0.45594000000E+02  0.51100000000E-03 0.  1.
         11   -1    0    0    0    0 -0.00000000000E+00 -0.00000000000E+00 -0.45593999997E+02  0.45594000000E+02  0.51100000000E-03 0. -1.
    9900012    2    1    2    0    0 -0.16302094428E+02  0.25206423576E+02  0.10751649665E+02  0.59301952224E+02  0.50000014949E+02 0.  0.
        -12    1    1    2    0    0  0.16302094428E+02 -0.25206423576E+02 -0.10751649665E+02  0.31886047776E+02  0.00000000000E+00 0.  1.
         11    1    3    3    0    0  0.50344487679E+01  0.19595028114E+02 -0.14076258140E+02  0.24646538189E+02  0.51100000000E-03 0. -1.
        -11    1    3    3    0    0 -0.50293779976E+01 -0.27702088246E+01  0.73258751287E+01  0.93079077476E+01  0.51100000000E-03 0.  1.
         12    1    3    3    0    0 -0.16307165198E+02  0.83816042868E+01  0.17502032677E+02  0.25347506288E+02  0.00000000000E+00 0. -1.
</event>
<event>
 7    1  0.6065977E-013  0.5930195E+02  0.7816164E-02  0.1266605E+00
        -11   -1    0    0    0    0  0.00000000000E+00  0.00000000000E+00  0.45593999997E+02  0.45594000000E+02  0.51100000000E-03 0. -1.
         11   -1    0    0    0    0 -0.00000000000E+00 -0.00000000000E+00 -0.45593999997E+02  0.45594000000E+02  0.51100000000E-03 0.  1.
    9900012    2    1    2    0    0  0.11910767561E+02 -0.20233268131E+02 -0.21574721111E+02  0.59301951104E+02  0.50000012906E+02 0.  0.
        -12    1    1    2    0    0 -0.11910767561E+02  0.20233268131E+02  0.21574721111E+02  0.31886048896E+02  0.00000000000E+00 0.  1.
         11    1    3    3    0    0  0.11192339553E+02  0.92428020993E+00  0.92365677940E+01  0.14540871482E+02  0.51100000000E-03 0. -1.
        -11    1    3    3    0    0  0.78647068634E-02 -0.14144612011E+02 -0.34148610841E+02  0.36962112134E+02  0.51100000000E-03 0.  1.
        -12    1    3    3    0    0  0.71056330069E+00 -0.70129363300E+01  0.33373219364E+01  0.77989674881E+01  0.00000000000E+00 0.  1.
</event>
<event>
 7    1  0.6065977E-013  0.5930182E+02  0.7816164E-02  0.1266605E+00
        -11   -1    0    0    0    0  0.00000000000E+00  0.00000000000E+00  0.45593999997E+02  0.45594000000E+02  0.51100000000E-03 0.  1.
         11   -1    0    0    0    0 -0.00000000000E+00 -0.00000000000E+00 -0.45593999997E+02  0.45594000000E+02  0.51100000000E-03 0. -1.
    9900012    2    1    2    0    0 -0.11237699385E+02  0.92594857502E+01 -0.28367311280E+02  0.59301822539E+02  0.49999778434E+02 0.  0.
        -12    1    1    2    0    0  0.11237699385E+02 -0.92594857502E+01  0.28367311280E+02  0.31886177461E+02  0.00000000000E+00 0.  1.
         11    1    3    3    0    0 -0.18660167402E+02  0.10196404968E+02 -0.22307045759E+02  0.30818384326E+02  0.51100000000E-03 0. -1.
        -11    1    3    3    0    0  0.62297772116E+01  0.32307527963E+01  0.97931791374E+01  0.12047997577E+02  0.51100000000E-03 0.  1.
        -12    1    3    3    0    0  0.11926908051E+01 -0.41676720136E+01 -0.15853444658E+02  0.16435440636E+02  0.00000000000E+00 0.  1.
</event>
<event>
 7    1  0.6065977E-013  0.5930195E+02  0.7816164E-02  0.1266605E+00
        -11   -1    0    0    0    0  0.00000000000E+00  0.00000000000E+00  0.45593999997E+02  0.45594000000E+02  0.51100000000E-03 0.  1.
         11   -1    0    0    0    0 -0.00000000000E+00 -0.00000000000E+00 -0.45593999997E+02  0.45594000000E+02  0.51100000000E-03 0. -1.
    9900012    2    1    2    0    0  0.16146835974E+02 -0.27438071853E+02  0.17753974640E+01  0.59301950776E+02  0.50000012307E+02 0.  0.
        -12    1    1    2    0    0 -0.16146835974E+02  0.27438071853E+02 -0.17753974640E+01  0.31886049224E+02  0.00000000000E+00 0.  1.
         11    1    3    3    0    0  0.23590225445E+01  0.84135352123E+01  0.54665188154E+01  0.10307055368E+02  0.51100000000E-03 0. -1.
        -11    1    3    3    0    0 -0.81057984083E+01 -0.16191446533E+02  0.40791448007E+01  0.18560881747E+02  0.51100000000E-03 0.  1.
         12    1    3    3    0    0  0.21893611838E+02 -0.19660160532E+02 -0.77702661521E+01  0.30434013661E+02  0.00000000000E+00 0. -1.
</event>
<event>
 7    1  0.6065977E-013  0.5930199E+02  0.7816164E-02  0.1266605E+00
        -11   -1    0    0    0    0  0.00000000000E+00  0.00000000000E+00  0.45593999997E+02  0.45594000000E+02  0.51100000000E-03 0.  1.
         11   -1    0    0    0    0 -0.00000000000E+00 -0.00000000000E+00 -0.45593999997E+02  0.45594000000E+02  0.51100000000E-03 0. -1.
    9900012    2    1    2    0    0  0.26732591444E+02 -0.17089378442E+02  0.31684425657E+01  0.59301994776E+02  0.50000092553E+02 0.  0.
        -12    1    1    2    0    0 -0.26732591444E+02  0.17089378442E+02 -0.31684425657E+01  0.31886005224E+02  0.00000000000E+00 0.  1.
         11    1    3    3    0    0  0.95463441522E+01 -0.92140578918E+01 -0.93961507238E+01  0.16257896487E+02  0.51100000000E-03 0. -1.
        -11    1    3    3    0    0  0.14664624426E+02  0.13212222985E+02  0.81350321633E+01  0.21349304305E+02  0.51100000000E-03 0.  1.
        -12    1    3    3    0    0  0.25216228662E+01 -0.21087543535E+02  0.44295611263E+01  0.21694793984E+02  0.00000000000E+00 0.  1.
</event>
<event>
 7    1  0.6065977E-013  0.5930196E+02  0.7816164E-02  0.1266605E+00
        -11   -1    0    0    0    0  0.00000000000E+00  0.00000000000E+00  0.45593999997E+02  0.45594000000E+02  0.51100000000E-03 0.  1.
         11   -1    0    0    0    0 -0.00000000000E+00 -0.00000000000E+00 -0.45593999997E+02  0.45594000000E+02  0.51100000000E-03 0. -1.
    9900012    2    1    2    0    0  0.14045512707E+02  0.47044303305E+01 -0.28236699230E+02  0.59301964258E+02  0.50000036896E+02 0.  0.
        -12    1    1    2    0    0 -0.14045512707E+02 -0.47044303305E+01  0.28236699230E+02  0.31886035742E+02  0.00000000000E+00 0.  1.
         11    1    3    3    0    0  0.23848427073E+01 -0.19045552765E+02 -0.18804194322E+02  0.26870397824E+02  0.51100000000E-03 0. -1.
        -11    1    3    3    0    0  0.12893809343E+02  0.91212989117E+01 -0.79339117982E+01  0.17674709895E+02  0.51100000000E-03 0.  1.
         12    1    3    3    0    0 -0.12331393433E+01  0.14628684184E+02 -0.14985931092E+01  0.14756856539E+02  0.00000000000E+00 0. -1.
</event>
<event>
 7    1  0.6065977E-013  0.5930194E+02  0.7816164E-02  0.1266605E+00
        -11   -1    0    0    0    0  0.00000000000E+00  0.00000000000E+00  0.45593999997E+02  0.45594000000E+02  0.51100000000E-03 0.  1.
         11   -1    0    0    0    0 -0.00000000000E+00 -0.00000000000E+00 -0.45593999997E+02  0.45594000000E+02  0.51100000000E-03 0. -1.
    9900012    2    1    2    0    0  0.87391162024E+01  0.16745811553E+02 -0.25689033810E+02  0.59301940120E+02  0.49999992874E+02 0.  0.
        -12    1    1    2    0    0 -0.87391162024E+01 -0.16745811553E+02  0.25689033810E+02  0.31886059880E+02  0.00000000000E+00 0.  1.
         11    1    3    3    0    0 -0.23869870458E+01  0.65025100487E+01  0.11508066385E+02  0.13431899951E+02  0.51100000000E-03 0. -1.
        -11    1    3    3    0    0  0.68161502177E+00 -0.64536562297E+01 -0.52821948703E+01  0.83675480685E+01  0.51100000000E-03 0.  1.
         12    1    3    3    0    0  0.10444488226E+02  0.16696957734E+02 -0.31914905325E+02  0.37502492101E+02  0.00000000000E+00 0. -1.
</event>
<event>
 7    1  0.6065977E-013  0.5930194E+02  0.7816164E-02  0.1266605E+00
        -11   -1    0    0    0    0  0.00000000000E+00  0.00000000000E+00  0.45593999997E+02  0.45594000000E+02  0.51100000000E-03 0.  1.
         11   -1    0    0    0    0 -0.00000000000E+00 -0.00000000000E+00 -0.45593999997E+02  0.45594000000E+02  0.51100000000E-03 0. -1.
    9900012    2    1    2    0    0 -0.14866814287E+02  0.10257194827E+02 -0.26277151530E+02  0.59301938699E+02  0.49999990281E+02 0.  0.
        -12    1    1    2    0    0  0.14866814287E+02 -0.10257194827E+02  0.26277151530E+02  0.31886061301E+02  0.00000000000E+00 0.  1.
         11    1    3    3    0    0 -0.91237512675E+01  0.19574395332E+02 -0.80300724288E+01  0.23040873535E+02  0.51100000000E-03 0. -1.
        -11    1    3    3    0    0 -0.92907579798E+01 -0.13404267278E+02 -0.23574961481E+02  0.28666554976E+02  0.51100000000E-03 0.  1.
         12    1    3    3    0    0  0.35476949603E+01  0.40870667729E+01  0.53278823796E+01  0.75945101875E+01  0.00000000000E+00 0. -1.
</event>
<event>
 7    1  0.6065977E-013  0.5930191E+02  0.7816164E-02  0.1266605E+00
        -11   -1    0    0    0    0  0.00000000000E+00  0.00000000000E+00  0.45593999997E+02  0.45594000000E+02  0.51100000000E-03 0. -1.
         11   -1    0    0    0    0 -0.00000000000E+00 -0.00000000000E+00 -0.45593999997E+02  0.45594000000E+02  0.51100000000E-03 0.  1.
    9900012    2    1    2    0    0 -0.43989167196E+01  0.21619337481E+02  0.23021222503E+02  0.59301907311E+02  0.49999933037E+02 0.  0.
        -12    1    1    2    0    0  0.43989167196E+01 -0.21619337481E+02 -0.23021222503E+02  0.31886092689E+02  0.00000000000E+00 0.  1.
         11    1    3    3    0    0 -0.13266811755E+02  0.13949315923E+02 -0.32689001323E+01  0.19526326260E+02  0.51100000000E-03 0. -1.
        -11    1    3    3    0    0 -0.31166588209E+00  0.15222313194E+02  0.22746009282E+02  0.27371461290E+02  0.51100000000E-03 0.  1.
        -12    1    3    3    0    0  0.91795609175E+01 -0.75522916361E+01  0.35441133534E+01  0.12404119761E+02  0.00000000000E+00 0.  1.
</event>
<event>
 7    1  0.6065977E-013  0.5930199E+02  0.7816164E-02  0.1266605E+00
        -11   -1    0    0    0    0  0.00000000000E+00  0.00000000000E+00  0.45593999997E+02  0.45594000000E+02  0.51100000000E-03 0.  1.
         11   -1    0    0    0    0 -0.00000000000E+00 -0.00000000000E+00 -0.45593999997E+02  0.45594000000E+02  0.51100000000E-03 0. -1.
    9900012    2    1    2    0    0  0.13982724152E+02 -0.27966783954E+02 -0.62497985320E+01  0.59301991138E+02  0.50000085918E+02 0.  0.
        -12    1    1    2    0    0 -0.13982724152E+02  0.27966783954E+02  0.62497985320E+01  0.31886008862E+02  0.00000000000E+00 0.  1.
         11    1    3    3    0    0 -0.12304646830E+02 -0.21036256336E+02 -0.14360566192E+01  0.24412920209E+02  0.51100000000E-03 0. -1.
        -11    1    3    3    0    0  0.13998685301E+02  0.72373362188E+01 -0.30527731088E+01  0.16051842562E+02  0.51100000000E-03 0.  1.
         12    1    3    3    0    0  0.12288685681E+02 -0.14167863836E+02 -0.17609688040E+01  0.18837228368E+02  0.00000000000E+00 0. -1.
</event>
<event>
 7    1  0.6065977E-013  0.5930197E+02  0.7816164E-02  0.1266605E+00
        -11   -1    0    0    0    0  0.00000000000E+00  0.00000000000E+00  0.45593999997E+02  0.45594000000E+02  0.51100000000E-03 0.  1.
         11   -1    0    0    0    0 -0.00000000000E+00 -0.00000000000E+00 -0.45593999997E+02  0.45594000000E+02  0.51100000000E-03 0. -1.
    9900012    2    1    2    0    0 -0.87117305317E+01 -0.25632307246E+02 -0.16846654092E+02  0.59301965789E+02  0.50000039687E+02 0.  0.
        -12    1    1    2    0    0  0.87117305317E+01  0.25632307246E+02  0.16846654092E+02  0.31886034211E+02  0.00000000000E+00 0.  1.
         11    1    3    3    0    0 -0.51506763425E+00 -0.49282462064E+00 -0.47274808840E+01  0.47809252812E+01  0.51100000000E-03 0. -1.
        -11    1    3    3    0    0 -0.15454292977E+02 -0.48553494928E+01  0.13472096368E+02  0.21069099908E+02  0.51100000000E-03 0.  1.
        -12    1    3    3    0    0  0.72576300799E+01 -0.20284133133E+02 -0.25591269576E+02  0.33451940599E+02  0.00000000000E+00 0.  1.
</event>
<event>
 7    1  0.6065977E-013  0.5930197E+02  0.7816164E-02  0.1266605E+00
        -11   -1    0    0    0    0  0.00000000000E+00  0.00000000000E+00  0.45593999997E+02  0.45594000000E+02  0.51100000000E-03 0. -1.
         11   -1    0    0    0    0 -0.00000000000E+00 -0.00000000000E+00 -0.45593999997E+02  0.45594000000E+02  0.51100000000E-03 0.  1.
    9900012    2    1    2    0    0 -0.15637109304E+02 -0.27538100593E+02  0.37219420747E+01  0.59301968192E+02  0.50000044070E+02 0.  0.
        -12    1    1    2    0    0  0.15637109304E+02  0.27538100593E+02 -0.37219420747E+01  0.31886031808E+02  0.00000000000E+00 0.  1.
         11    1    3    3    0    0 -0.14782966648E+01 -0.59627491428E+01  0.40600569688E+01  0.73636812275E+01  0.51100000000E-03 0. -1.
        -11    1    3    3    0    0 -0.94353362617E+01  0.13526634234E+02  0.66550003103E+00  0.16505704911E+02  0.51100000000E-03 0.  1.
        -12    1    3    3    0    0 -0.47234763780E+01 -0.35101985684E+02 -0.10036149251E+01  0.35432582053E+02  0.00000000000E+00 0.  1.
</event>
<event>
 7    1  0.6065977E-013  0.5930193E+02  0.7816164E-02  0.1266605E+00
        -11   -1    0    0    0    0  0.00000000000E+00  0.00000000000E+00  0.45593999997E+02  0.45594000000E+02  0.51100000000E-03 0.  1.
         11   -1    0    0    0    0 -0.00000000000E+00 -0.00000000000E+00 -0.45593999997E+02  0.45594000000E+02  0.51100000000E-03 0. -1.
    9900012    2    1    2    0    0 -0.90265622040E+01  0.11338300860E+02 -0.28402209030E+02  0.59301931421E+02  0.49999977009E+02 0.  0.
        -12    1    1    2    0    0  0.90265622040E+01 -0.11338300860E+02  0.28402209030E+02  0.31886068579E+02  0.00000000000E+00 0.  1.
         11    1    3    3    0    0 -0.12367921790E+02  0.42516752082E+01 -0.22705832871E+02  0.26202997502E+02  0.51100000000E-03 0. -1.
        -11    1    3    3    0    0 -0.10204471353E+02  0.55082630282E+00  0.78275435916E+01  0.12872648685E+02  0.51100000000E-03 0.  1.
        -12    1    3    3    0    0  0.13545830939E+02  0.65357993492E+01 -0.13523919751E+02  0.20226285235E+02  0.00000000000E+00 0.  1.
</event>
<event>
 7    1  0.6065977E-013  0.5930193E+02  0.7816164E-02  0.1266605E+00
        -11   -1    0    0    0    0  0.00000000000E+00  0.00000000000E+00  0.45593999997E+02  0.45594000000E+02  0.51100000000E-03 0.  1.
         11   -1    0    0    0    0 -0.00000000000E+00 -0.00000000000E+00 -0.45593999997E+02  0.45594000000E+02  0.51100000000E-03 0. -1.
    9900012    2    1    2    0    0 -0.83695230317E+01 -0.27359372275E+02 -0.14076134848E+02  0.59301925621E+02  0.49999966430E+02 0.  0.
        -12    1    1    2    0    0  0.83695230317E+01  0.27359372275E+02  0.14076134848E+02  0.31886074379E+02  0.00000000000E+00 0.  1.
         11    1    3    3    0    0 -0.10816644362E+01 -0.36220121223E+02 -0.22569169513E+02  0.42689982339E+02  0.51100000000E-03 0. -1.
        -11    1    3    3    0    0 -0.85663200245E+01  0.53964488634E+01  0.42315117823E+01  0.10973112199E+02  0.51100000000E-03 0.  1.
         12    1    3    3    0    0  0.12784614290E+01  0.34643000845E+01  0.42615228830E+01  0.56388310831E+01  0.00000000000E+00 0. -1.
</event>
<event>
 7    1  0.6065977E-013  0.5930196E+02  0.7816164E-02  0.1266605E+00
        -11   -1    0    0    0    0  0.00000000000E+00  0.00000000000E+00  0.45593999997E+02  0.45594000000E+02  0.51100000000E-03 0.  1.
         11   -1    0    0    0    0 -0.00000000000E+00 -0.00000000000E+00 -0.45593999997E+02  0.45594000000E+02  0.51100000000E-03 0. -1.
    9900012    2    1    2    0    0 -0.76036997371E+01  0.23516123669E+02 -0.20146841297E+02  0.59301960165E+02  0.50000029431E+02 0.  0.
        -12    1    1    2    0    0  0.76036997371E+01 -0.23516123669E+02  0.20146841297E+02  0.31886039835E+02  0.00000000000E+00 0.  1.
         11    1    3    3    0    0 -0.18071129519E+02  0.18894049081E+02 -0.31266242379E+02  0.40756946960E+02  0.51100000000E-03 0. -1.
        -11    1    3    3    0    0  0.59180579883E+01  0.62776460008E+01  0.30804675436E+01  0.91608695117E+01  0.51100000000E-03 0.  1.
         12    1    3    3    0    0  0.45493717935E+01 -0.16555714127E+01  0.80389335388E+01  0.93841436934E+01  0.00000000000E+00 0. -1.
</event>
<event>
 7    1  0.6065977E-013  0.5930195E+02  0.7816164E-02  0.1266605E+00
        -11   -1    0    0    0    0  0.00000000000E+00  0.00000000000E+00  0.45593999997E+02  0.45594000000E+02  0.51100000000E-03 0. -1.
         11   -1    0    0    0    0 -0.00000000000E+00 -0.00000000000E+00 -0.45593999997E+02  0.45594000000E+02  0.51100000000E-03 0.  1.
    9900012    2    1    2    0    0 -0.10250033140E+02  0.33922643957E+01  0.30002493228E+02  0.59301949179E+02  0.50000009394E+02 0.  0.
        -12    1    1    2    0    0  0.10250033140E+02 -0.33922643957E+01 -0.30002493228E+02  0.31886050821E+02  0.00000000000E+00 0.  1.
         11    1    3    3    0    0  0.42167513227E+01 -0.16521474500E+02 -0.24714633114E+01  0.17229284446E+02  0.51100000000E-03 0. -1.
        -11    1    3    3    0    0 -0.11234887263E+02  0.20555511604E+02  0.27794011825E+02  0.36349124374E+02  0.51100000000E-03 0.  1.
         12    1    3    3    0    0 -0.32318971996E+01 -0.64177270886E+00  0.46799447138E+01  0.57235403591E+01  0.00000000000E+00 0. -1.
</event>
<event>
 7    1  0.6065977E-013  0.5930205E+02  0.7816164E-02  0.1266604E+00
        -11   -1    0    0    0    0  0.00000000000E+00  0.00000000000E+00  0.45593999997E+02  0.45594000000E+02  0.51100000000E-03 0.  1.
         11   -1    0    0    0    0 -0.00000000000E+00 -0.00000000000E+00 -0.45593999997E+02  0.45594000000E+02  0.51100000000E-03 0. -1.
    9900012    2    1    2    0    0  0.46467143197E+01 -0.28955398104E+02 -0.12518257992E+02  0.59302049857E+02  0.50000193008E+02 0.  0.
        -12    1    1    2    0    0 -0.46467143197E+01  0.28955398104E+02  0.12518257992E+02  0.31885950143E+02  0.00000000000E+00 0.  1.
         11    1    3    3    0    0  0.72810638633E+00 -0.86448741192E+01  0.13783878200E+02  0.16286782553E+02  0.51100000000E-03 0.  1.
        -11    1    3    3    0    0  0.25256120018E+01 -0.90831524695E+01 -0.29733926571E+02  0.31192767822E+02  0.51100000000E-03 0. -1.
         12    1    3    3    0    0  0.13929959316E+01 -0.11227371515E+02  0.34317903791E+01  0.11822499482E+02  0.00000000000E+00 0. -1.
</event>
<event>
 7    1  0.6065977E-013  0.5930198E+02  0.7816164E-02  0.1266605E+00
        -11   -1    0    0    0    0  0.00000000000E+00  0.00000000000E+00  0.45593999997E+02  0.45594000000E+02  0.51100000000E-03 0. -1.
         11   -1    0    0    0    0 -0.00000000000E+00 -0.00000000000E+00 -0.45593999997E+02  0.45594000000E+02  0.51100000000E-03 0.  1.
    9900012    2    1    2    0    0  0.71211689640E+01  0.49854173576E+01  0.30678216568E+02  0.59301977899E+02  0.50000061774E+02 0.  0.
        -12    1    1    2    0    0 -0.71211689640E+01 -0.49854173576E+01 -0.30678216568E+02  0.31886022101E+02  0.00000000000E+00 0.  1.
         11    1    3    3    0    0 -0.24179795253E+01  0.87454065414E+01  0.66527289309E+01  0.11251113858E+02  0.51100000000E-03 0. -1.
        -11    1    3    3    0    0  0.21325673821E+02 -0.14397848648E+02  0.14493259483E+02  0.29531965399E+02  0.51100000000E-03 0.  1.
        -12    1    3    3    0    0 -0.11786525332E+02  0.10637859464E+02  0.95322281533E+01  0.18518898642E+02  0.00000000000E+00 0.  1.
</event>
<event>
 7    1  0.6065977E-013  0.5930192E+02  0.7816164E-02  0.1266605E+00
        -11   -1    0    0    0    0  0.00000000000E+00  0.00000000000E+00  0.45593999997E+02  0.45594000000E+02  0.51100000000E-03 0.  1.
         11   -1    0    0    0    0 -0.00000000000E+00 -0.00000000000E+00 -0.45593999997E+02  0.45594000000E+02  0.51100000000E-03 0. -1.
    9900012    2    1    2    0    0  0.76326826705E+01  0.28852020408E+01 -0.30824338244E+02  0.59301920533E+02  0.49999957152E+02 0.  0.
        -12    1    1    2    0    0 -0.76326826705E+01 -0.28852020408E+01  0.30824338244E+02  0.31886079467E+02  0.00000000000E+00 0.  1.
         11    1    3    3    0    0  0.11746872766E+02  0.82306447851E+01 -0.24673233444E+02  0.28539463594E+02  0.51100000000E-03 0. -1.
        -11    1    3    3    0    0  0.29120668310E+01 -0.29840563060E+01  0.11169525808E+02  0.11922375279E+02  0.51100000000E-03 0.  1.
         12    1    3    3    0    0 -0.70262569266E+01 -0.23613864383E+01 -0.17320630608E+02  0.18840081660E+02  0.00000000000E+00 0. -1.
</event>
<event>
 7    1  0.6065977E-013  0.5930196E+02  0.7816164E-02  0.1266605E+00
        -11   -1    0    0    0    0  0.00000000000E+00  0.00000000000E+00  0.45593999997E+02  0.45594000000E+02  0.51100000000E-03 0. -1.
         11   -1    0    0    0    0 -0.00000000000E+00 -0.00000000000E+00 -0.45593999997E+02  0.45594000000E+02  0.51100000000E-03 0.  1.
    9900012    2    1    2    0    0  0.17199084808E+02 -0.22497447022E+02  0.14655235204E+02  0.59301959800E+02  0.50000028765E+02 0.  0.
        -12    1    1    2    0    0 -0.17199084808E+02  0.22497447022E+02 -0.14655235204E+02  0.31886040200E+02  0.00000000000E+00 0.  1.
         11    1    3    3    0    0  0.30791053931E+02 -0.19246778913E+02  0.19158929672E+02  0.41055962869E+02  0.51100000000E-03 0. -1.
        -11    1    3    3    0    0 -0.25207879184E+01  0.35842804590E+01 -0.26032074908E+01  0.50968743009E+01  0.51100000000E-03 0.  1.
         12    1    3    3    0    0 -0.11071181205E+02 -0.68349485683E+01 -0.19004869768E+01  0.13149122630E+02  0.00000000000E+00 0. -1.
</event>
<event>
 7    1  0.6065977E-013  0.5930194E+02  0.7816164E-02  0.1266605E+00
        -11   -1    0    0    0    0  0.00000000000E+00  0.00000000000E+00  0.45593999997E+02  0.45594000000E+02  0.51100000000E-03 0.  1.
         11   -1    0    0    0    0 -0.00000000000E+00 -0.00000000000E+00 -0.45593999997E+02  0.45594000000E+02  0.51100000000E-03 0. -1.
    9900012    2    1    2    0    0 -0.18446381567E+02  0.10921039889E+02 -0.23604721520E+02  0.59301937477E+02  0.49999988053E+02 0.  0.
        -12    1    1    2    0    0  0.18446381567E+02 -0.10921039889E+02  0.23604721520E+02  0.31886062523E+02  0.00000000000E+00 0.  1.
         11    1    3    3    0    0 -0.11665221848E+02 -0.58695316736E+01 -0.14259697712E+02  0.19335660887E+02  0.51100000000E-03 0. -1.
        -11    1    3    3    0    0  0.52946688653E+01  0.11341527676E+02  0.10342148720E+02  0.16236496199E+02  0.51100000000E-03 0.  1.
        -12    1    3    3    0    0 -0.12075828585E+02  0.54490438861E+01 -0.19687172527E+02  0.23729780391E+02  0.00000000000E+00 0.  1.
</event>
<event>
 7    1  0.6065977E-013  0.5930199E+02  0.7816164E-02  0.1266605E+00
        -11   -1    0    0    0    0  0.00000000000E+00  0.00000000000E+00  0.45593999997E+02  0.45594000000E+02  0.51100000000E-03 0.  1.
         11   -1    0    0    0    0 -0.00000000000E+00 -0.00000000000E+00 -0.45593999997E+02  0.45594000000E+02  0.51100000000E-03 0. -1.
    9900012    2    1    2    0    0  0.79823436853E+01  0.18079567568E+02 -0.25022571374E+02  0.59301989708E+02  0.50000083310E+02 0.  0.
        -12    1    1    2    0    0 -0.79823436853E+01 -0.18079567568E+02  0.25022571374E+02  0.31886010292E+02  0.00000000000E+00 0.  1.
         11    1    3    3    0    0  0.22446357148E+02  0.12951937673E+02 -0.10853108107E+02  0.28095935552E+02  0.51100000000E-03 0. -1.
        -11    1    3    3    0    0 -0.79307419058E+01 -0.79546129307E+01 -0.58649712702E+00  0.11247955956E+02  0.51100000000E-03 0.  1.
        -12    1    3    3    0    0 -0.65332715569E+01  0.13082242826E+02 -0.13582966140E+02  0.19958098200E+02  0.00000000000E+00 0.  1.
</event>
<event>
 7    1  0.6065977E-013  0.5930195E+02  0.7816164E-02  0.1266605E+00
        -11   -1    0    0    0    0  0.00000000000E+00  0.00000000000E+00  0.45593999997E+02  0.45594000000E+02  0.51100000000E-03 0. -1.
         11   -1    0    0    0    0 -0.00000000000E+00 -0.00000000000E+00 -0.45593999997E+02  0.45594000000E+02  0.51100000000E-03 0.  1.
    9900012    2    1    2    0    0 -0.22731058130E+02 -0.13339440164E+02  0.17946548325E+02  0.59301948749E+02  0.50000008611E+02 0.  0.
        -12    1    1    2    0    0  0.22731058130E+02  0.13339440164E+02 -0.17946548325E+02  0.31886051251E+02  0.00000000000E+00 0.  1.
         11    1    3    3    0    0 -0.10281103911E+02  0.14907733675E+01  0.66464803104E+01  0.12332850589E+02  0.51100000000E-03 0. -1.
        -11    1    3    3    0    0  0.51346301034E+01  0.58565285692E+01 -0.98467530334E+01  0.12554756021E+02  0.51100000000E-03 0.  1.
        -12    1    3    3    0    0 -0.17584584322E+02 -0.20686742100E+02  0.21146821048E+02  0.34414342140E+02  0.00000000000E+00 0.  1.
</event>
<event>
 7    1  0.6065977E-013  0.5930189E+02  0.7816164E-02  0.1266605E+00
        -11   -1    0    0    0    0  0.00000000000E+00  0.00000000000E+00  0.45593999997E+02  0.45594000000E+02  0.51100000000E-03 0.  1.
         11   -1    0    0    0    0 -0.00000000000E+00 -0.00000000000E+00 -0.45593999997E+02  0.45594000000E+02  0.51100000000E-03 0. -1.
    9900012    2    1    2    0    0 -0.10414241696E+02  0.30105144820E+02 -0.13957444963E+01  0.59301885821E+02  0.49999893845E+02 0.  0.
        -12    1    1    2    0    0  0.10414241696E+02 -0.30105144820E+02  0.13957444963E+01  0.31886114179E+02  0.00000000000E+00 0.  1.
         11    1    3    3    0    0 -0.86061742404E+01  0.11445648183E+02 -0.10290576347E+02  0.17634201405E+02  0.51100000000E-03 0. -1.
        -11    1    3    3    0    0 -0.91090957323E+01  0.24767195810E+02  0.15004629688E+02  0.30356688319E+02  0.51100000000E-03 0.  1.
        -12    1    3    3    0    0  0.73010282763E+01 -0.61076991737E+01 -0.61097978374E+01  0.11310996097E+02  0.00000000000E+00 0.  1.
</event>
<event>
 7    1  0.6065977E-013  0.5930196E+02  0.7816164E-02  0.1266605E+00
        -11   -1    0    0    0    0  0.00000000000E+00  0.00000000000E+00  0.45593999997E+02  0.45594000000E+02  0.51100000000E-03 0. -1.
         11   -1    0    0    0    0 -0.00000000000E+00 -0.00000000000E+00 -0.45593999997E+02  0.45594000000E+02  0.51100000000E-03 0.  1.
    9900012    2    1    2    0    0  0.65531266312E+01  0.16182933286E+02  0.26681249058E+02  0.59301955252E+02  0.50000020471E+02 0.  0.
        -12    1    1    2    0    0 -0.65531266312E+01 -0.16182933286E+02 -0.26681249058E+02  0.31886044748E+02  0.00000000000E+00 0.  1.
         11    1    3    3    0    0  0.16152640880E+02  0.11097224643E+01  0.84650291582E+01  0.18270085119E+02  0.51100000000E-03 0. -1.
        -11    1    3    3    0    0 -0.65628367233E+01  0.24707949915E+02  0.83052143096E+01  0.26879921872E+02  0.51100000000E-03 0.  1.
        -12    1    3    3    0    0 -0.30366775255E+01 -0.96347390932E+01  0.99110055899E+01  0.14151948261E+02  0.00000000000E+00 0.  1.
</event>
<event>
 7    1  0.6065977E-013  0.5930195E+02  0.7816164E-02  0.1266605E+00
        -11   -1    0    0    0    0  0.00000000000E+00  0.00000000000E+00  0.45593999997E+02  0.45594000000E+02  0.51100000000E-03 0.  1.
         11   -1    0    0    0    0 -0.00000000000E+00 -0.00000000000E+00 -0.45593999997E+02  0.45594000000E+02  0.51100000000E-03 0. -1.
    9900012    2    1    2    0    0 -0.51848317897E+01 -0.29972007647E+02  0.95664231614E+01  0.59301950147E+02  0.50000011161E+02 0.  0.
        -12    1    1    2    0    0  0.51848317897E+01  0.29972007647E+02 -0.95664231614E+01  0.31886049853E+02  0.00000000000E+00 0.  1.
         11    1    3    3    0    0 -0.85009916404E+01 -0.18916776330E+02 -0.17109465367E+02  0.26885778601E+02  0.51100000000E-03 0. -1.
        -11    1    3    3    0    0  0.26606545925E+01 -0.12416988374E+02  0.11398425049E+02  0.17064137160E+02  0.51100000000E-03 0.  1.
         12    1    3    3    0    0  0.65550525822E+00  0.13617570571E+01  0.15277463480E+02  0.15352034387E+02  0.00000000000E+00 0. -1.
</event>
<event>
 7    1  0.6065977E-013  0.5930201E+02  0.7816164E-02  0.1266605E+00
        -11   -1    0    0    0    0  0.00000000000E+00  0.00000000000E+00  0.45593999997E+02  0.45594000000E+02  0.51100000000E-03 0. -1.
         11   -1    0    0    0    0 -0.00000000000E+00 -0.00000000000E+00 -0.45593999997E+02  0.45594000000E+02  0.51100000000E-03 0.  1.
    9900012    2    1    2    0    0  0.13505198206E+02  0.20529807589E+02  0.20318788421E+02  0.59302007133E+02  0.50000115089E+02 0.  0.
        -12    1    1    2    0    0 -0.13505198206E+02 -0.20529807589E+02 -0.20318788421E+02  0.31885992867E+02  0.00000000000E+00 0.  1.
         11    1    3    3    0    0  0.19070630908E+02  0.22614753495E+02  0.22455616246E+02  0.37139880722E+02  0.51100000000E-03 0. -1.
        -11    1    3    3    0    0 -0.95660327497E+01 -0.36817240474E+01 -0.92759564159E+01  0.13824161538E+02  0.51100000000E-03 0.  1.
        -12    1    3    3    0    0  0.40006000479E+01  0.15967781415E+01  0.71391285917E+01  0.83379648731E+01  0.00000000000E+00 0.  1.
</event>
<event>
 7    1  0.6065977E-013  0.5930193E+02  0.7816164E-02  0.1266605E+00
        -11   -1    0    0    0    0  0.00000000000E+00  0.00000000000E+00  0.45593999997E+02  0.45594000000E+02  0.51100000000E-03 0. -1.
         11   -1    0    0    0    0 -0.00000000000E+00 -0.00000000000E+00 -0.45593999997E+02  0.45594000000E+02  0.51100000000E-03 0.  1.
    9900012    2    1    2    0    0  0.21294294948E+02 -0.18656543976E+02  0.14669973363E+02  0.59301925470E+02  0.49999966155E+02 0.  0.
        -12    1    1    2    0    0 -0.21294294948E+02  0.18656543976E+02 -0.14669973363E+02  0.31886074530E+02  0.00000000000E+00 0.  1.
         11    1    3    3    0    0  0.20940702857E+01 -0.69958929434E+01  0.82332709825E+01  0.11005198761E+02  0.51100000000E-03 0. -1.
        -11    1    3    3    0    0  0.17899691344E+02  0.69590383687E+00 -0.15102991757E+02  0.23430398900E+02  0.51100000000E-03 0.  1.
        -12    1    3    3    0    0  0.13005333181E+01 -0.12356554869E+02  0.21539694138E+02  0.24866327809E+02  0.00000000000E+00 0.  1.
</event>
<event>
 7    1  0.6065977E-013  0.5930218E+02  0.7816164E-02  0.1266604E+00
        -11   -1    0    0    0    0  0.00000000000E+00  0.00000000000E+00  0.45593999997E+02  0.45594000000E+02  0.51100000000E-03 0. -1.
         11   -1    0    0    0    0 -0.00000000000E+00 -0.00000000000E+00 -0.45593999997E+02  0.45594000000E+02  0.51100000000E-03 0.  1.
    9900012    2    1    2    0    0 -0.30221043213E+02 -0.97538026958E+01  0.28736146952E+01  0.59302175857E+02  0.50000422799E+02 0.  0.
        -12    1    1    2    0    0  0.30221043213E+02  0.97538026958E+01 -0.28736146952E+01  0.31885824143E+02  0.00000000000E+00 0.  1.
         11    1    3    3    0    0 -0.12409473017E+02  0.12052642050E+02 -0.55581766083E+01  0.18170154881E+02  0.51100000000E-03 0.  1.
        -11    1    3    3    0    0  0.62806600762E+01 -0.12772102546E+02  0.63800089387E+00  0.14247116895E+02  0.51100000000E-03 0. -1.
        -12    1    3    3    0    0 -0.24092230271E+02 -0.90343422001E+01  0.77937904096E+01  0.26884904080E+02  0.00000000000E+00 0.  1.
</event>
<event>
 7    1  0.6065977E-013  0.5930194E+02  0.7816164E-02  0.1266605E+00
        -11   -1    0    0    0    0  0.00000000000E+00  0.00000000000E+00  0.45593999997E+02  0.45594000000E+02  0.51100000000E-03 0.  1.
         11   -1    0    0    0    0 -0.00000000000E+00 -0.00000000000E+00 -0.45593999997E+02  0.45594000000E+02  0.51100000000E-03 0. -1.
    9900012    2    1    2    0    0  0.13070369746E+02  0.27059419151E+02 -0.10661817233E+02  0.59301936010E+02  0.49999985377E+02 0.  0.
        -12    1    1    2    0    0 -0.13070369746E+02 -0.27059419151E+02  0.10661817233E+02  0.31886063990E+02  0.00000000000E+00 0.  1.
         11    1    3    3    0    0 -0.86649938315E+01 -0.47087676965E+01 -0.12382806218E+02  0.15829987411E+02  0.51100000000E-03 0. -1.
        -11    1    3    3    0    0  0.17441570510E+02  0.23884544598E+02 -0.75949195156E+01  0.30534614050E+02  0.51100000000E-03 0.  1.
        -12    1    3    3    0    0  0.42937930676E+01  0.78836422495E+01  0.93159085009E+01  0.12937334549E+02  0.00000000000E+00 0.  1.
</event>
<event>
 7    1  0.6317709E-013  0.5930194E+02  0.7816164E-02  0.1266605E+00
        -11   -1    0    0    0    0  0.00000000000E+00  0.00000000000E+00  0.45593999997E+02  0.45594000000E+02  0.51100000000E-03 0.  1.
         11   -1    0    0    0    0 -0.00000000000E+00 -0.00000000000E+00 -0.45593999997E+02  0.45594000000E+02  0.51100000000E-03 0. -1.
    9900012    2    1    2    0    0 -0.79047974605E+01  0.30321286087E+02 -0.59037667359E+01  0.59301942317E+02  0.49999996880E+02 0.  0.
        -12    1    1    2    0    0  0.79047974605E+01 -0.30321286087E+02  0.59037667359E+01  0.31886057683E+02  0.00000000000E+00 0.  1.
         11    1    3    3    0    0  0.10683934394E+02  0.17209820093E+02 -0.15892258913E+02  0.25746616387E+02  0.51100000000E-03 0. -1.
        -11    1    3    3    0    0 -0.36153906223E+01 -0.14286547006E+01  0.11974427935E+02  0.12589639719E+02  0.51100000000E-03 0.  1.
         12    1    3    3    0    0 -0.14973341232E+02  0.14540120695E+02 -0.19859357588E+01  0.20965686211E+02  0.00000000000E+00 0. -1.
</event>
<event>
 7    1  0.6065977E-013  0.5930200E+02  0.7816164E-02  0.1266605E+00
        -11   -1    0    0    0    0  0.00000000000E+00  0.00000000000E+00  0.45593999997E+02  0.45594000000E+02  0.51100000000E-03 0. -1.
         11   -1    0    0    0    0 -0.00000000000E+00 -0.00000000000E+00 -0.45593999997E+02  0.45594000000E+02  0.51100000000E-03 0.  1.
    9900012    2    1    2    0    0 -0.30834408589E+02  0.62803350792E+01  0.51491622149E+01  0.59301996280E+02  0.50000095295E+02 0.  0.
        -12    1    1    2    0    0  0.30834408589E+02 -0.62803350792E+01 -0.51491622149E+01  0.31886003720E+02  0.00000000000E+00 0.  1.
         11    1    3    3    0    0 -0.28128023816E+02  0.14198295045E+02  0.91461478957E+01  0.32808982422E+02  0.51100000000E-03 0. -1.
        -11    1    3    3    0    0  0.99197302971E+01 -0.14661216901E+01  0.32869602712E+01  0.10552472225E+02  0.51100000000E-03 0.  1.
        -12    1    3    3    0    0 -0.12626115070E+02 -0.64518382757E+01 -0.72839459521E+01  0.15940541632E+02  0.00000000000E+00 0.  1.
</event>
<event>
 7    1  0.6065977E-013  0.5930194E+02  0.7816164E-02  0.1266605E+00
        -11   -1    0    0    0    0  0.00000000000E+00  0.00000000000E+00  0.45593999997E+02  0.45594000000E+02  0.51100000000E-03 0.  1.
         11   -1    0    0    0    0 -0.00000000000E+00 -0.00000000000E+00 -0.45593999997E+02  0.45594000000E+02  0.51100000000E-03 0. -1.
    9900012    2    1    2    0    0  0.41499126081E+01 -0.72309988978E+01 -0.30776802992E+02  0.59301941571E+02  0.49999995519E+02 0.  0.
        -12    1    1    2    0    0 -0.41499126081E+01  0.72309988978E+01  0.30776802992E+02  0.31886058429E+02  0.00000000000E+00 0.  1.
         11    1    3    3    0    0  0.14769386101E+02 -0.13059774534E+02 -0.13512999164E+02  0.23901749378E+02  0.51100000000E-03 0. -1.
        -11    1    3    3    0    0 -0.14262134441E+02 -0.71128907506E+01 -0.38233342255E+01  0.16389618009E+02  0.51100000000E-03 0.  1.
         12    1    3    3    0    0  0.36426609477E+01  0.12941666386E+02 -0.13440469603E+02  0.19010574184E+02  0.00000000000E+00 0. -1.
</event>
<event>
 7    1  0.6065977E-013  0.5930181E+02  0.7816164E-02  0.1266605E+00
        -11   -1    0    0    0    0  0.00000000000E+00  0.00000000000E+00  0.45593999997E+02  0.45594000000E+02  0.51100000000E-03 0.  1.
         11   -1    0    0    0    0 -0.00000000000E+00 -0.00000000000E+00 -0.45593999997E+02  0.45594000000E+02  0.51100000000E-03 0. -1.
    9900012    2    1    2    0    0  0.17198912018E+02  0.20228157598E+02 -0.17656399238E+02  0.59301805989E+02  0.49999748251E+02 0.  0.
        -12    1    1    2    0    0 -0.17198912018E+02 -0.20228157598E+02  0.17656399238E+02  0.31886194011E+02  0.00000000000E+00 0.  1.
         11    1    3    3    0    0 -0.41546844647E+01  0.95680124133E+01 -0.42447854259E+01  0.11261725805E+02  0.51100000000E-03 0. -1.
        -11    1    3    3    0    0  0.73282942808E+01 -0.29884726188E+01 -0.24361495217E+02  0.25614787040E+02  0.51100000000E-03 0.  1.
        -12    1    3    3    0    0  0.14025302202E+02  0.13648617804E+02  0.10949881405E+02  0.22425293144E+02  0.00000000000E+00 0.  1.
</event>
<event>
 7    1  0.6065977E-013  0.5930187E+02  0.7816164E-02  0.1266605E+00
        -11   -1    0    0    0    0  0.00000000000E+00  0.00000000000E+00  0.45593999997E+02  0.45594000000E+02  0.51100000000E-03 0.  1.
         11   -1    0    0    0    0 -0.00000000000E+00 -0.00000000000E+00 -0.45593999997E+02  0.45594000000E+02  0.51100000000E-03 0. -1.
    9900012    2    1    2    0    0  0.16840700555E+02  0.13225780500E+02 -0.23626142198E+02  0.59301873547E+02  0.49999871460E+02 0.  0.
        -12    1    1    2    0    0 -0.16840700555E+02 -0.13225780500E+02  0.23626142198E+02  0.31886126453E+02  0.00000000000E+00 0.  1.
         11    1    3    3    0    0  0.10055833269E+02  0.25906842005E+02 -0.44069972674E+01  0.28137268357E+02  0.51100000000E-03 0. -1.
        -11    1    3    3    0    0  0.10401394657E+02 -0.14388400302E+02 -0.84219794355E+01  0.19650567726E+02  0.51100000000E-03 0.  1.
        -12    1    3    3    0    0 -0.36165273711E+01  0.17073387973E+01 -0.10797165495E+02  0.11514037464E+02  0.00000000000E+00 0.  1.
</event>
<event>
 7    1  0.6691749E-013  0.5930201E+02  0.7816164E-02  0.1266605E+00
        -11   -1    0    0    0    0  0.00000000000E+00  0.00000000000E+00  0.45593999997E+02  0.45594000000E+02  0.51100000000E-03 0. -1.
         11   -1    0    0    0    0 -0.00000000000E+00 -0.00000000000E+00 -0.45593999997E+02  0.45594000000E+02  0.51100000000E-03 0.  1.
    9900012    2    1    2    0    0  0.13341224571E+02  0.13763939768E+02  0.25481015019E+02  0.59302008760E+02  0.50000118055E+02 0.  0.
        -12    1    1    2    0    0 -0.13341224571E+02 -0.13763939768E+02 -0.25481015019E+02  0.31885991240E+02  0.00000000000E+00 0.  1.
         11    1    3    3    0    0  0.61787788305E+01  0.85708766409E+01  0.27765628420E+02  0.29708035211E+02  0.51100000000E-03 0. -1.
        -11    1    3    3    0    0  0.77247738590E+01 -0.87178167925E+01 -0.84273511898E+01  0.14376811508E+02  0.51100000000E-03 0.  1.
         12    1    3    3    0    0 -0.56232811814E+00  0.13910879920E+02  0.61427377880E+01  0.15217162041E+02  0.00000000000E+00 0. -1.
</event>
<event>
 7    1  0.6065977E-013  0.5930219E+02  0.7816164E-02  0.1266604E+00
        -11   -1    0    0    0    0  0.00000000000E+00  0.00000000000E+00  0.45593999997E+02  0.45594000000E+02  0.51100000000E-03 0.  1.
         11   -1    0    0    0    0 -0.00000000000E+00 -0.00000000000E+00 -0.45593999997E+02  0.45594000000E+02  0.51100000000E-03 0. -1.
    9900012    2    1    2    0    0  0.20982404410E+02  0.11773570289E+02 -0.20924308461E+02  0.59302189100E+02  0.50000446950E+02 0.  0.
        -12    1    1    2    0    0 -0.20982404410E+02 -0.11773570289E+02  0.20924308461E+02  0.31885810900E+02  0.00000000000E+00 0.  1.
         11    1    3    3    0    0  0.21642870523E+02  0.17975811477E+02 -0.20446288311E+02  0.34779222946E+02  0.51100000000E-03 0. -1.
        -11    1    3    3    0    0 -0.88166443839E+01 -0.53249465410E+01 -0.82698318797E+01  0.13209026968E+02  0.51100000000E-03 0.  1.
         12    1    3    3    0    0  0.81561782708E+01 -0.87729464734E+00  0.77918117291E+01  0.11313939186E+02  0.00000000000E+00 0. -1.
</event>
<event>
 7    1  0.6065977E-013  0.5930196E+02  0.7816164E-02  0.1266605E+00
        -11   -1    0    0    0    0  0.00000000000E+00  0.00000000000E+00  0.45593999997E+02  0.45594000000E+02  0.51100000000E-03 0.  1.
         11   -1    0    0    0    0 -0.00000000000E+00 -0.00000000000E+00 -0.45593999997E+02  0.45594000000E+02  0.51100000000E-03 0. -1.
    9900012    2    1    2    0    0  0.23803138187E+02  0.41259116768E+01 -0.20811230217E+02  0.59301955437E+02  0.50000020809E+02 0.  0.
        -12    1    1    2    0    0 -0.23803138187E+02 -0.41259116768E+01  0.20811230217E+02  0.31886044563E+02  0.00000000000E+00 0.  1.
         11    1    3    3    0    0  0.35919226271E+02  0.58067796204E+01 -0.12684639838E+02  0.38533227137E+02  0.51100000000E-03 0. -1.
        -11    1    3    3    0    0 -0.12492076629E+02  0.22529728557E+01 -0.10220193378E+02  0.16296632110E+02  0.51100000000E-03 0.  1.
         12    1    3    3    0    0  0.37598854469E+00 -0.39338407993E+01  0.20936029995E+01  0.44720961908E+01  0.00000000000E+00 0. -1.
</event>
<event>
 7    1  0.6065977E-013  0.5930195E+02  0.7816164E-02  0.1266605E+00
        -11   -1    0    0    0    0  0.00000000000E+00  0.00000000000E+00  0.45593999997E+02  0.45594000000E+02  0.51100000000E-03 0.  1.
         11   -1    0    0    0    0 -0.00000000000E+00 -0.00000000000E+00 -0.45593999997E+02  0.45594000000E+02  0.51100000000E-03 0. -1.
    9900012    2    1    2    0    0  0.11690325245E+02  0.17764101556E+02 -0.23759070313E+02  0.59301946143E+02  0.50000003858E+02 0.  0.
        -12    1    1    2    0    0 -0.11690325245E+02 -0.17764101556E+02  0.23759070313E+02  0.31886053857E+02  0.00000000000E+00 0.  1.
         11    1    3    3    0    0  0.17196997257E+02  0.98501918083E+00 -0.11036251631E+02  0.20457414983E+02  0.51100000000E-03 0. -1.
        -11    1    3    3    0    0 -0.17726320212E+02  0.12355957584E+02 -0.14759644528E+01  0.21658037478E+02  0.51100000000E-03 0.  1.
        -12    1    3    3    0    0  0.12219648200E+02  0.44231247915E+01 -0.11246854229E+02  0.17186493683E+02  0.00000000000E+00 0.  1.
</event>
<event>
 7    1  0.6065977E-013  0.5930194E+02  0.7816164E-02  0.1266605E+00
        -11   -1    0    0    0    0  0.00000000000E+00  0.00000000000E+00  0.45593999997E+02  0.45594000000E+02  0.51100000000E-03 0.  1.
         11   -1    0    0    0    0 -0.00000000000E+00 -0.00000000000E+00 -0.45593999997E+02  0.45594000000E+02  0.51100000000E-03 0. -1.
    9900012    2    1    2    0    0  0.16686201853E+01 -0.15785384669E+02 -0.27654265036E+02  0.59301936632E+02  0.49999986512E+02 0.  0.
        -12    1    1    2    0    0 -0.16686201853E+01  0.15785384669E+02  0.27654265036E+02  0.31886063368E+02  0.00000000000E+00 0.  1.
         11    1    3    3    0    0 -0.20078056332E+02  0.59919825612E+01 -0.11077419038E+02  0.23701084657E+02  0.51100000000E-03 0. -1.
        -11    1    3    3    0    0  0.10891671913E+02 -0.92884174471E+01 -0.11286156812E+02  0.18228564167E+02  0.51100000000E-03 0.  1.
         12    1    3    3    0    0  0.10855004604E+02 -0.12488949783E+02 -0.52906891855E+01  0.17372287808E+02  0.00000000000E+00 0. -1.
</event>
<event>
 7    1  0.6065977E-013  0.5930196E+02  0.7816164E-02  0.1266605E+00
        -11   -1    0    0    0    0  0.00000000000E+00  0.00000000000E+00  0.45593999997E+02  0.45594000000E+02  0.51100000000E-03 0. -1.
         11   -1    0    0    0    0 -0.00000000000E+00 -0.00000000000E+00 -0.45593999997E+02  0.45594000000E+02  0.51100000000E-03 0.  1.
    9900012    2    1    2    0    0 -0.22294571208E+02 -0.31620848863E+01  0.22575937502E+02  0.59301958535E+02  0.50000026458E+02 0.  0.
        -12    1    1    2    0    0  0.22294571208E+02  0.31620848863E+01 -0.22575937502E+02  0.31886041465E+02  0.00000000000E+00 0.  1.
         11    1    3    3    0    0 -0.22550430378E+01  0.15960992059E+02 -0.17306211771E+00  0.16120435396E+02  0.51100000000E-03 0.  1.
        -11    1    3    3    0    0 -0.17237064560E+02 -0.57940171683E+00  0.15115820175E+02  0.22933384417E+02  0.51100000000E-03 0. -1.
        -12    1    3    3    0    0 -0.28024636102E+01 -0.18543675228E+02  0.76331794450E+01  0.20248138722E+02  0.00000000000E+00 0.  1.
</event>
<event>
 7    1  0.6065977E-013  0.5930197E+02  0.7816164E-02  0.1266605E+00
        -11   -1    0    0    0    0  0.00000000000E+00  0.00000000000E+00  0.45593999997E+02  0.45594000000E+02  0.51100000000E-03 0. -1.
         11   -1    0    0    0    0 -0.00000000000E+00 -0.00000000000E+00 -0.45593999997E+02  0.45594000000E+02  0.51100000000E-03 0.  1.
    9900012    2    1    2    0    0  0.25850542066E+02  0.68535006541E+00  0.18654716925E+02  0.59301973384E+02  0.50000053538E+02 0.  0.
        -12    1    1    2    0    0 -0.25850542066E+02 -0.68535006541E+00 -0.18654716925E+02  0.31886026616E+02  0.00000000000E+00 0.  1.
         11    1    3    3    0    0  0.60661810514E+01 -0.16077593731E+02  0.16906985993E+01  0.17266905766E+02  0.51100000000E-03 0.  1.
        -11    1    3    3    0    0  0.23178507438E+02  0.10630076196E+02  0.20817008834E+01  0.25584667397E+02  0.51100000000E-03 0. -1.
         12    1    3    3    0    0 -0.33941464235E+01  0.61328676002E+01  0.14882317443E+02  0.16450400220E+02  0.00000000000E+00 0. -1.
</event>
<event>
 7    1  0.6065977E-013  0.5930188E+02  0.7816164E-02  0.1266605E+00
        -11   -1    0    0    0    0  0.00000000000E+00  0.00000000000E+00  0.45593999997E+02  0.45594000000E+02  0.51100000000E-03 0.  1.
         11   -1    0    0    0    0 -0.00000000000E+00 -0.00000000000E+00 -0.45593999997E+02  0.45594000000E+02  0.51100000000E-03 0. -1.
    9900012    2    1    2    0    0 -0.21510230496E+02  0.82105407979E+01 -0.22059505632E+02  0.59301877863E+02  0.49999879331E+02 0.  0.
        -12    1    1    2    0    0  0.21510230496E+02 -0.82105407979E+01  0.22059505632E+02  0.31886122137E+02  0.00000000000E+00 0.  1.
         11    1    3    3    0    0  0.23417556655E+01  0.10367868190E+02  0.71612180279E+01  0.12816378361E+02  0.51100000000E-03 0. -1.
        -11    1    3    3    0    0 -0.24339524850E+02  0.23320164099E+01 -0.32667519925E+02  0.40804627541E+02  0.51100000000E-03 0.  1.
        -12    1    3    3    0    0  0.48753868785E+00 -0.44893438019E+01  0.34467962647E+01  0.56808719607E+01  0.00000000000E+00 0.  1.
</event>
<event>
 7    1  0.6065977E-013  0.5930194E+02  0.7816164E-02  0.1266605E+00
        -11   -1    0    0    0    0  0.00000000000E+00  0.00000000000E+00  0.45593999997E+02  0.45594000000E+02  0.51100000000E-03 0.  1.
         11   -1    0    0    0    0 -0.00000000000E+00 -0.00000000000E+00 -0.45593999997E+02  0.45594000000E+02  0.51100000000E-03 0. -1.
    9900012    2    1    2    0    0 -0.43551809764E+01 -0.31177525594E+02 -0.50709970511E+01  0.59301941690E+02  0.49999995736E+02 0.  0.
        -12    1    1    2    0    0  0.43551809764E+01  0.31177525594E+02  0.50709970511E+01  0.31886058310E+02  0.00000000000E+00 0.  1.
         11    1    3    3    0    0 -0.96914655188E+01 -0.33573760656E+02 -0.16418459100E+02  0.38609425118E+02  0.51100000000E-03 0. -1.
        -11    1    3    3    0    0  0.91270556542E+01 -0.24973314873E+01  0.23134477585E+01  0.97412448005E+01  0.51100000000E-03 0.  1.
         12    1    3    3    0    0 -0.37907711118E+01  0.48935665495E+01  0.90340142907E+01  0.10951271771E+02  0.00000000000E+00 0. -1.
</event>
<event>
 7    1  0.6065977E-013  0.5930189E+02  0.7816164E-02  0.1266605E+00
        -11   -1    0    0    0    0  0.00000000000E+00  0.00000000000E+00  0.45593999997E+02  0.45594000000E+02  0.51100000000E-03 0. -1.
         11   -1    0    0    0    0 -0.00000000000E+00 -0.00000000000E+00 -0.45593999997E+02  0.45594000000E+02  0.51100000000E-03 0.  1.
    9900012    2    1    2    0    0  0.23195105077E+02  0.73474674437E+01  0.20608878567E+02  0.59301889337E+02  0.49999900258E+02 0.  0.
        -12    1    1    2    0    0 -0.23195105077E+02 -0.73474674437E+01 -0.20608878567E+02  0.31886110663E+02  0.00000000000E+00 0.  1.
         11    1    3    3    0    0  0.18681853627E+02 -0.18823672501E+01  0.72381294522E+01  0.20123257183E+02  0.51100000000E-03 0. -1.
        -11    1    3    3    0    0 -0.81414505982E+01 -0.77945519746E+01  0.13979589606E+02  0.17957371304E+02  0.51100000000E-03 0.  1.
        -12    1    3    3    0    0  0.12654702049E+02  0.17024386668E+02 -0.60884049064E+00  0.21221260851E+02  0.00000000000E+00 0.  1.
</event>
<event>
 7    1  0.6065977E-013  0.5930196E+02  0.7816164E-02  0.1266605E+00
        -11   -1    0    0    0    0  0.00000000000E+00  0.00000000000E+00  0.45593999997E+02  0.45594000000E+02  0.51100000000E-03 0.  1.
         11   -1    0    0    0    0 -0.00000000000E+00 -0.00000000000E+00 -0.45593999997E+02  0.45594000000E+02  0.51100000000E-03 0. -1.
    9900012    2    1    2    0    0 -0.27710270538E+01 -0.17434363883E+01 -0.31717529251E+02  0.59301955667E+02  0.50000021228E+02 0.  0.
        -12    1    1    2    0    0  0.27710270538E+01  0.17434363883E+01  0.31717529251E+02  0.31886044333E+02  0.00000000000E+00 0.  1.
         11    1    3    3    0    0 -0.10282975462E+02 -0.78457143251E+00 -0.41828601570E+02  0.43081168116E+02  0.51100000000E-03 0. -1.
        -11    1    3    3    0    0  0.55452520859E+01 -0.39923058122E+01  0.16639668761E+01  0.70325750917E+01  0.51100000000E-03 0.  1.
         12    1    3    3    0    0  0.19666963218E+01  0.30334408565E+01  0.84471054423E+01  0.91882124598E+01  0.00000000000E+00 0. -1.
</event>
<event>
 7    1  0.6065977E-013  0.5930194E+02  0.7816164E-02  0.1266605E+00
        -11   -1    0    0    0    0  0.00000000000E+00  0.00000000000E+00  0.45593999997E+02  0.45594000000E+02  0.51100000000E-03 0.  1.
         11   -1    0    0    0    0 -0.00000000000E+00 -0.00000000000E+00 -0.45593999997E+02  0.45594000000E+02  0.51100000000E-03 0. -1.
    9900012    2    1    2    0    0  0.10406008859E+02  0.30127091276E+02 -0.89104938774E+00  0.59301943202E+02  0.49999998494E+02 0.  0.
        -12    1    1    2    0    0 -0.10406008859E+02 -0.30127091276E+02  0.89104938774E+00  0.31886056798E+02  0.00000000000E+00 0.  1.
         11    1    3    3    0    0  0.14914518141E+02  0.83984964826E+01  0.18977813578E+01  0.17221474063E+02  0.51100000000E-03 0. -1.
        -11    1    3    3    0    0 -0.19987029259E+01  0.31234089495E+02  0.15456329267E+01  0.31336115608E+02  0.51100000000E-03 0.  1.
        -12    1    3    3    0    0 -0.25098063567E+01 -0.95054947018E+01 -0.43344636722E+01  0.10744353531E+02  0.00000000000E+00 0.  1.
</event>
<event>
 7    1  0.6065977E-013  0.5930197E+02  0.7816164E-02  0.1266605E+00
        -11   -1    0    0    0    0  0.00000000000E+00  0.00000000000E+00  0.45593999997E+02  0.45594000000E+02  0.51100000000E-03 0. -1.
         11   -1    0    0    0    0 -0.00000000000E+00 -0.00000000000E+00 -0.45593999997E+02  0.45594000000E+02  0.51100000000E-03 0.  1.
    9900012    2    1    2    0    0  0.15351364743E+02  0.17061934166E+02  0.22134705888E+02  0.59301965412E+02  0.50000039000E+02 0.  0.
        -12    1    1    2    0    0 -0.15351364743E+02 -0.17061934166E+02 -0.22134705888E+02  0.31886034588E+02  0.00000000000E+00 0.  1.
         11    1    3    3    0    0  0.23971676404E+02 -0.58899786658E+01  0.15208926090E+02  0.28993870928E+02  0.51100000000E-03 0. -1.
        -11    1    3    3    0    0 -0.11408125932E+02  0.76003689013E+01  0.49799358747E+01  0.14584605113E+02  0.51100000000E-03 0.  1.
        -12    1    3    3    0    0  0.27878142708E+01  0.15351543931E+02  0.19458439233E+01  0.15723489372E+02  0.00000000000E+00 0.  1.
</event>
<event>
 7    1  0.6065977E-013  0.5930201E+02  0.7816164E-02  0.1266605E+00
        -11   -1    0    0    0    0  0.00000000000E+00  0.00000000000E+00  0.45593999997E+02  0.45594000000E+02  0.51100000000E-03 0.  1.
         11   -1    0    0    0    0 -0.00000000000E+00 -0.00000000000E+00 -0.45593999997E+02  0.45594000000E+02  0.51100000000E-03 0. -1.
    9900012    2    1    2    0    0 -0.19600081598E+01  0.28256867872E+02 -0.14643237931E+02  0.59302005724E+02  0.50000112518E+02 0.  0.
        -12    1    1    2    0    0  0.19600081598E+01 -0.28256867872E+02  0.14643237931E+02  0.31885994276E+02  0.00000000000E+00 0.  1.
         11    1    3    3    0    0 -0.18020269812E+01  0.21797350300E+02  0.14675674032E+02  0.26339081037E+02  0.51100000000E-03 0. -1.
        -11    1    3    3    0    0 -0.59490919736E+01  0.15729206448E+01 -0.66458942721E+01  0.90572449234E+01  0.51100000000E-03 0.  1.
         12    1    3    3    0    0  0.57911107950E+01  0.48865969271E+01 -0.22673017690E+02  0.23905679763E+02  0.00000000000E+00 0. -1.
</event>
<event>
 7    1  0.6065977E-013  0.5930194E+02  0.7816164E-02  0.1266605E+00
        -11   -1    0    0    0    0  0.00000000000E+00  0.00000000000E+00  0.45593999997E+02  0.45594000000E+02  0.51100000000E-03 0. -1.
         11   -1    0    0    0    0 -0.00000000000E+00 -0.00000000000E+00 -0.45593999997E+02  0.45594000000E+02  0.51100000000E-03 0.  1.
    9900012    2    1    2    0    0  0.19200090678E+01  0.43601454034E+01  0.31528135216E+02  0.59301943283E+02  0.49999998642E+02 0.  0.
        -12    1    1    2    0    0 -0.19200090678E+01 -0.43601454034E+01 -0.31528135216E+02  0.31886056717E+02  0.00000000000E+00 0.  1.
         11    1    3    3    0    0  0.13505607979E+02 -0.21187556464E+01  0.20530359222E+02  0.24665486462E+02  0.51100000000E-03 0. -1.
        -11    1    3    3    0    0 -0.19101757053E+02  0.12720677729E+02  0.63183464836E+01  0.23803660789E+02  0.51100000000E-03 0.  1.
        -12    1    3    3    0    0  0.75161581421E+01 -0.62417766787E+01  0.46794295107E+01  0.10832796032E+02  0.00000000000E+00 0.  1.
</event>
<event>
 7    1  0.6065977E-013  0.5930181E+02  0.7816164E-02  0.1266605E+00
        -11   -1    0    0    0    0  0.00000000000E+00  0.00000000000E+00  0.45593999997E+02  0.45594000000E+02  0.51100000000E-03 0.  1.
         11   -1    0    0    0    0 -0.00000000000E+00 -0.00000000000E+00 -0.45593999997E+02  0.45594000000E+02  0.51100000000E-03 0. -1.
    9900012    2    1    2    0    0 -0.57468690602E+01 -0.14825586895E+02 -0.27638825302E+02  0.59301808712E+02  0.49999753215E+02 0.  0.
        -12    1    1    2    0    0  0.57468690602E+01  0.14825586895E+02  0.27638825302E+02  0.31886191288E+02  0.00000000000E+00 0.  1.
         11    1    3    3    0    0  0.43447762355E+01  0.82778134177E+01  0.42422922048E+01  0.10266270936E+02  0.51100000000E-03 0. -1.
        -11    1    3    3    0    0 -0.15072735608E+02 -0.16900211777E+02 -0.82499493304E+01  0.24101165554E+02  0.51100000000E-03 0.  1.
         12    1    3    3    0    0  0.49810903125E+01 -0.62031885353E+01 -0.23631168177E+02  0.24934372222E+02  0.00000000000E+00 0. -1.
</event>
<event>
 7    1  0.6065977E-013  0.5930196E+02  0.7816164E-02  0.1266605E+00
        -11   -1    0    0    0    0  0.00000000000E+00  0.00000000000E+00  0.45593999997E+02  0.45594000000E+02  0.51100000000E-03 0.  1.
         11   -1    0    0    0    0 -0.00000000000E+00 -0.00000000000E+00 -0.45593999997E+02  0.45594000000E+02  0.51100000000E-03 0. -1.
    9900012    2    1    2    0    0 -0.14574185236E+02  0.27762639323E+02  0.57921090705E+01  0.59301960030E+02  0.50000029185E+02 0.  0.
        -12    1    1    2    0    0  0.14574185236E+02 -0.27762639323E+02 -0.57921090705E+01  0.31886039970E+02  0.00000000000E+00 0.  1.
         11    1    3    3    0    0 -0.27354521146E+02  0.16957429104E+02 -0.37118029734E+01  0.32397557169E+02  0.51100000000E-03 0. -1.
        -11    1    3    3    0    0  0.76917291791E+01 -0.15363870090E+01 -0.32045847952E+01  0.84730482577E+01  0.51100000000E-03 0.  1.
         12    1    3    3    0    0  0.50886067315E+01  0.12341597228E+02  0.12708496839E+02  0.18431354604E+02  0.00000000000E+00 0. -1.
</event>
<event>
 7    1  0.6065977E-013  0.5930184E+02  0.7816164E-02  0.1266605E+00
        -11   -1    0    0    0    0  0.00000000000E+00  0.00000000000E+00  0.45593999997E+02  0.45594000000E+02  0.51100000000E-03 0. -1.
         11   -1    0    0    0    0 -0.00000000000E+00 -0.00000000000E+00 -0.45593999997E+02  0.45594000000E+02  0.51100000000E-03 0.  1.
    9900012    2    1    2    0    0  0.43053583583E+01 -0.59530399898E+01  0.31028249209E+02  0.59301842428E+02  0.49999814706E+02 0.  0.
        -12    1    1    2    0    0 -0.43053583583E+01  0.59530399898E+01 -0.31028249209E+02  0.31886157572E+02  0.00000000000E+00 0.  1.
         11    1    3    3    0    0  0.14399937457E+02 -0.14123328009E+02  0.21305239807E+02  0.29338367990E+02  0.51100000000E-03 0. -1.
        -11    1    3    3    0    0 -0.91460885990E+01 -0.17097353370E+01 -0.62137695099E+01  0.11188613112E+02  0.51100000000E-03 0.  1.
        -12    1    3    3    0    0 -0.94849050010E+00  0.98800233558E+01  0.15936778912E+02  0.18774861326E+02  0.00000000000E+00 0.  1.
</event>
<event>
 7    1  0.6065977E-013  0.5930194E+02  0.7816164E-02  0.1266605E+00
        -11   -1    0    0    0    0  0.00000000000E+00  0.00000000000E+00  0.45593999997E+02  0.45594000000E+02  0.51100000000E-03 0. -1.
         11   -1    0    0    0    0 -0.00000000000E+00 -0.00000000000E+00 -0.45593999997E+02  0.45594000000E+02  0.51100000000E-03 0.  1.
    9900012    2    1    2    0    0  0.11516442729E+02 -0.85852101753E+01  0.28467285428E+02  0.59301943070E+02  0.49999998253E+02 0.  0.
        -12    1    1    2    0    0 -0.11516442729E+02  0.85852101753E+01 -0.28467285428E+02  0.31886056930E+02  0.00000000000E+00 0.  1.
         11    1    3    3    0    0 -0.11222289437E+02  0.47975797520E+01  0.17379938250E+02  0.21237203335E+02  0.51100000000E-03 0. -1.
        -11    1    3    3    0    0  0.15912490473E+02 -0.16988793735E+02 -0.14705656818E+01  0.23323572396E+02  0.51100000000E-03 0.  1.
        -12    1    3    3    0    0  0.68262416929E+01  0.36060038072E+01  0.12557912860E+02  0.14741167339E+02  0.00000000000E+00 0.  1.
</event>
<event>
 7    1  0.6065977E-013  0.5930204E+02  0.7816164E-02  0.1266604E+00
        -11   -1    0    0    0    0  0.00000000000E+00  0.00000000000E+00  0.45593999997E+02  0.45594000000E+02  0.51100000000E-03 0. -1.
         11   -1    0    0    0    0 -0.00000000000E+00 -0.00000000000E+00 -0.45593999997E+02  0.45594000000E+02  0.51100000000E-03 0.  1.
    9900012    2    1    2    0    0 -0.31882091171E+02  0.14906246219E+00  0.47380134175E+00  0.59302040006E+02  0.50000175041E+02 0.  0.
        -12    1    1    2    0    0  0.31882091171E+02 -0.14906246219E+00 -0.47380134175E+00  0.31885959994E+02  0.00000000000E+00 0.  1.
         11    1    3    3    0    0 -0.16870118648E+02  0.93579656060E+01  0.90624231848E+01  0.21314312978E+02  0.51100000000E-03 0. -1.
        -11    1    3    3    0    0 -0.21212090679E+02 -0.91116346061E+01 -0.16175605779E+02  0.28189091839E+02  0.51100000000E-03 0.  1.
        -12    1    3    3    0    0  0.62001181557E+01 -0.97268537727E-01  0.75869839359E+01  0.97986351885E+01  0.00000000000E+00 0.  1.
</event>
<event>
 7    1  0.6065977E-013  0.5930194E+02  0.7816164E-02  0.1266605E+00
        -11   -1    0    0    0    0  0.00000000000E+00  0.00000000000E+00  0.45593999997E+02  0.45594000000E+02  0.51100000000E-03 0.  1.
         11   -1    0    0    0    0 -0.00000000000E+00 -0.00000000000E+00 -0.45593999997E+02  0.45594000000E+02  0.51100000000E-03 0. -1.
    9900012    2    1    2    0    0  0.10247938107E+01 -0.15548847997E+01 -0.31831631274E+02  0.59301943194E+02  0.49999998479E+02 0.  0.
        -12    1    1    2    0    0 -0.10247938107E+01  0.15548847997E+01  0.31831631274E+02  0.31886056806E+02  0.00000000000E+00 0.  1.
         11    1    3    3    0    0 -0.14198356121E+02 -0.48096870204E+01 -0.62846885170E+01  0.16254959729E+02  0.51100000000E-03 0. -1.
        -11    1    3    3    0    0  0.37493417363E+01  0.16616657670E+02 -0.12487988802E+02  0.21121570494E+02  0.51100000000E-03 0.  1.
        -12    1    3    3    0    0  0.11473808195E+02 -0.13361855449E+02 -0.13058953955E+02  0.21925412971E+02  0.00000000000E+00 0.  1.
</event>
<event>
 7    1  0.6065977E-013  0.5930198E+02  0.7816164E-02  0.1266605E+00
        -11   -1    0    0    0    0  0.00000000000E+00  0.00000000000E+00  0.45593999997E+02  0.45594000000E+02  0.51100000000E-03 0.  1.
         11   -1    0    0    0    0 -0.00000000000E+00 -0.00000000000E+00 -0.45593999997E+02  0.45594000000E+02  0.51100000000E-03 0. -1.
    9900012    2    1    2    0    0 -0.82874853199E+01  0.19179314841E+02 -0.24087122611E+02  0.59301984156E+02  0.50000073185E+02 0.  0.
        -12    1    1    2    0    0  0.82874853199E+01 -0.19179314841E+02  0.24087122611E+02  0.31886015844E+02  0.00000000000E+00 0.  1.
         11    1    3    3    0    0 -0.10273146832E+02  0.24511942600E+02 -0.20332814987E+02  0.33463356697E+02  0.51100000000E-03 0. -1.
        -11    1    3    3    0    0  0.54024618586E+01  0.33235998548E+01  0.84030776917E+01  0.10528277403E+02  0.51100000000E-03 0.  1.
         12    1    3    3    0    0 -0.34168003468E+01 -0.86562276143E+01 -0.12157385316E+02  0.15310350056E+02  0.00000000000E+00 0. -1.
</event>
<event>
 7    1  0.6065977E-013  0.5930197E+02  0.7816164E-02  0.1266605E+00
        -11   -1    0    0    0    0  0.00000000000E+00  0.00000000000E+00  0.45593999997E+02  0.45594000000E+02  0.51100000000E-03 0.  1.
         11   -1    0    0    0    0 -0.00000000000E+00 -0.00000000000E+00 -0.45593999997E+02  0.45594000000E+02  0.51100000000E-03 0. -1.
    9900012    2    1    2    0    0 -0.26062991560E+02  0.18053840231E+02 -0.33909197593E+01  0.59301968373E+02  0.50000044400E+02 0.  0.
        -12    1    1    2    0    0  0.26062991560E+02 -0.18053840231E+02  0.33909197593E+01  0.31886031627E+02  0.00000000000E+00 0.  1.
         11    1    3    3    0    0 -0.13863220760E+02  0.35761189043E+01  0.92830426079E+01  0.17063188347E+02  0.51100000000E-03 0. -1.
        -11    1    3    3    0    0 -0.15177633809E+02 -0.11175421836E+01 -0.19685648426E+02  0.24882407898E+02  0.51100000000E-03 0.  1.
        -12    1    3    3    0    0  0.29778630092E+01  0.15595263510E+02  0.70116860593E+01  0.17356372128E+02  0.00000000000E+00 0.  1.
</event>
<event>
 7    1  0.6065977E-013  0.5930186E+02  0.7816164E-02  0.1266605E+00
        -11   -1    0    0    0    0  0.00000000000E+00  0.00000000000E+00  0.45593999997E+02  0.45594000000E+02  0.51100000000E-03 0.  1.
         11   -1    0    0    0    0 -0.00000000000E+00 -0.00000000000E+00 -0.45593999997E+02  0.45594000000E+02  0.51100000000E-03 0. -1.
    9900012    2    1    2    0    0  0.23602070238E+02 -0.20923895472E+02 -0.46753684203E+01  0.59301855813E+02  0.49999839117E+02 0.  0.
        -12    1    1    2    0    0 -0.23602070238E+02  0.20923895472E+02  0.46753684203E+01  0.31886144187E+02  0.00000000000E+00 0.  1.
         11    1    3    3    0    0  0.16133484648E+02 -0.31955671795E+02  0.86143706699E+01  0.36819311089E+02  0.51100000000E-03 0. -1.
        -11    1    3    3    0    0  0.67617253492E+01  0.38954499746E+01 -0.50004223477E+00  0.78195589838E+01  0.51100000000E-03 0.  1.
         12    1    3    3    0    0  0.70686024155E+00  0.71363263489E+01 -0.12789696856E+02  0.14662985740E+02  0.00000000000E+00 0. -1.
</event>
<event>
 7    1  0.6065977E-013  0.5930194E+02  0.7816164E-02  0.1266605E+00
        -11   -1    0    0    0    0  0.00000000000E+00  0.00000000000E+00  0.45593999997E+02  0.45594000000E+02  0.51100000000E-03 0. -1.
         11   -1    0    0    0    0 -0.00000000000E+00 -0.00000000000E+00 -0.45593999997E+02  0.45594000000E+02  0.51100000000E-03 0.  1.
    9900012    2    1    2    0    0  0.17036605685E+02 -0.15270108938E+02  0.22210332266E+02  0.59301936907E+02  0.49999987013E+02 0.  0.
        -12    1    1    2    0    0 -0.17036605685E+02  0.15270108938E+02 -0.22210332266E+02  0.31886063093E+02  0.00000000000E+00 0.  1.
         11    1    3    3    0    0  0.61656534555E+01 -0.13820158669E+02  0.22911679399E+02  0.27458279649E+02  0.51100000000E-03 0. -1.
        -11    1    3    3    0    0 -0.86113759310E+01  0.20712106247E+01 -0.67571326534E+01  0.11140222208E+02  0.51100000000E-03 0.  1.
         12    1    3    3    0    0  0.19482328161E+02 -0.35211608941E+01  0.60557855206E+01  0.20703435050E+02  0.00000000000E+00 0. -1.
</event>
<event>
 7    1  0.6065977E-013  0.5930196E+02  0.7816164E-02  0.1266605E+00
        -11   -1    0    0    0    0  0.00000000000E+00  0.00000000000E+00  0.45593999997E+02  0.45594000000E+02  0.51100000000E-03 0.  1.
         11   -1    0    0    0    0 -0.00000000000E+00 -0.00000000000E+00 -0.45593999997E+02  0.45594000000E+02  0.51100000000E-03 0. -1.
    9900012    2    1    2    0    0 -0.27973183910E+01  0.50339276330E+01 -0.31361665486E+02  0.59301961054E+02  0.50000031052E+02 0.  0.
        -12    1    1    2    0    0  0.27973183910E+01 -0.50339276330E+01  0.31361665486E+02  0.31886038946E+02  0.00000000000E+00 0.  1.
         11    1    3    3    0    0 -0.11105512200E+02 -0.11332613929E+02 -0.15321776273E+02  0.22057138711E+02  0.51100000000E-03 0. -1.
        -11    1    3    3    0    0  0.30323630146E+01  0.21193005962E+02 -0.20164462043E+01  0.21503599297E+02  0.51100000000E-03 0.  1.
        -12    1    3    3    0    0  0.52758307945E+01 -0.48264644001E+01 -0.14023443009E+02  0.15741223047E+02  0.00000000000E+00 0.  1.
</event>
<event>
 7    1  0.6065977E-013  0.5930194E+02  0.7816164E-02  0.1266605E+00
        -11   -1    0    0    0    0  0.00000000000E+00  0.00000000000E+00  0.45593999997E+02  0.45594000000E+02  0.51100000000E-03 0. -1.
         11   -1    0    0    0    0 -0.00000000000E+00 -0.00000000000E+00 -0.45593999997E+02  0.45594000000E+02  0.51100000000E-03 0.  1.
    9900012    2    1    2    0    0  0.29898873594E+02  0.14069397769E+00  0.11079624165E+02  0.59301944919E+02  0.50000001625E+02 0.  0.
        -12    1    1    2    0    0 -0.29898873594E+02 -0.14069397769E+00 -0.11079624165E+02  0.31886055081E+02  0.00000000000E+00 0.  1.
         11    1    3    3    0    0  0.32386294172E+01 -0.58950453168E+01  0.15277625709E+02  0.16692696827E+02  0.51100000000E-03 0. -1.
        -11    1    3    3    0    0  0.85158477652E+01 -0.74082141465E+01 -0.14006834852E+02  0.17988683188E+02  0.51100000000E-03 0.  1.
        -12    1    3    3    0    0  0.18144396412E+02  0.13443953441E+02  0.98088333086E+01  0.24620564903E+02  0.00000000000E+00 0.  1.
</event>
<event>
 7    1  0.6065977E-013  0.5930194E+02  0.7816164E-02  0.1266605E+00
        -11   -1    0    0    0    0  0.00000000000E+00  0.00000000000E+00  0.45593999997E+02  0.45594000000E+02  0.51100000000E-03 0.  1.
         11   -1    0    0    0    0 -0.00000000000E+00 -0.00000000000E+00 -0.45593999997E+02  0.45594000000E+02  0.51100000000E-03 0. -1.
    9900012    2    1    2    0    0  0.73750697650E+01 -0.15226572066E+02 -0.27027405242E+02  0.59301940584E+02  0.49999993720E+02 0.  0.
        -12    1    1    2    0    0 -0.73750697650E+01  0.15226572066E+02  0.27027405242E+02  0.31886059416E+02  0.00000000000E+00 0.  1.
         11    1    3    3    0    0 -0.74532749920E+01 -0.44270697762E+01 -0.93421994294E+01  0.12744683023E+02  0.51100000000E-03 0. -1.
        -11    1    3    3    0    0  0.20155655878E+02 -0.12085445830E+02 -0.26971848565E+02  0.35774139823E+02  0.51100000000E-03 0.  1.
        -12    1    3    3    0    0 -0.53273111205E+01  0.12859435403E+01  0.92866427521E+01  0.10783117739E+02  0.00000000000E+00 0.  1.
</event>
<event>
 7    1  0.6065977E-013  0.5930196E+02  0.7816164E-02  0.1266605E+00
        -11   -1    0    0    0    0  0.00000000000E+00  0.00000000000E+00  0.45593999997E+02  0.45594000000E+02  0.51100000000E-03 0.  1.
         11   -1    0    0    0    0 -0.00000000000E+00 -0.00000000000E+00 -0.45593999997E+02  0.45594000000E+02  0.51100000000E-03 0. -1.
    9900012    2    1    2    0    0 -0.30572152193E+01 -0.30345736653E+02  0.93010435916E+01  0.59301957445E+02  0.50000024470E+02 0.  0.
        -12    1    1    2    0    0  0.30572152193E+01  0.30345736653E+02 -0.93010435916E+01  0.31886042555E+02  0.00000000000E+00 0.  1.
         11    1    3    3    0    0 -0.78905870044E+01  0.93904105891E+01 -0.58992994178E+00  0.12279625072E+02  0.51100000000E-03 0. -1.
        -11    1    3    3    0    0  0.39735709315E+01 -0.31493278341E+02  0.17084239032E+02  0.36048398996E+02  0.51100000000E-03 0.  1.
        -12    1    3    3    0    0  0.85980085363E+00 -0.82428689013E+01 -0.71932654987E+01  0.10973933377E+02  0.00000000000E+00 0.  1.
</event>
<event>
 7    1  0.6065977E-013  0.5930191E+02  0.7816164E-02  0.1266605E+00
        -11   -1    0    0    0    0  0.00000000000E+00  0.00000000000E+00  0.45593999997E+02  0.45594000000E+02  0.51100000000E-03 0.  1.
         11   -1    0    0    0    0 -0.00000000000E+00 -0.00000000000E+00 -0.45593999997E+02  0.45594000000E+02  0.51100000000E-03 0. -1.
    9900012    2    1    2    0    0 -0.24161681947E+02 -0.16363913938E+02 -0.12851384501E+02  0.59301911537E+02  0.49999940745E+02 0.  0.
        -12    1    1    2    0    0  0.24161681947E+02  0.16363913938E+02  0.12851384501E+02  0.31886088463E+02  0.00000000000E+00 0.  1.
         11    1    3    3    0    0 -0.31279488464E+02 -0.17560826275E+01  0.29566850917E+00  0.31330139561E+02  0.51100000000E-03 0. -1.
        -11    1    3    3    0    0  0.12792251522E+02 -0.54591608799E+01 -0.69169782120E+01  0.15533471098E+02  0.51100000000E-03 0.  1.
         12    1    3    3    0    0 -0.56744450046E+01 -0.91486704303E+01 -0.62300747982E+01  0.12438300878E+02  0.00000000000E+00 0. -1.
</event>
<event>
 7    1  0.6065977E-013  0.5930195E+02  0.7816164E-02  0.1266605E+00
        -11   -1    0    0    0    0  0.00000000000E+00  0.00000000000E+00  0.45593999997E+02  0.45594000000E+02  0.51100000000E-03 0. -1.
         11   -1    0    0    0    0 -0.00000000000E+00 -0.00000000000E+00 -0.45593999997E+02  0.45594000000E+02  0.51100000000E-03 0.  1.
    9900012    2    1    2    0    0  0.21076101727E+01 -0.38660392668E+01  0.31580567061E+02  0.59301945115E+02  0.50000001982E+02 0.  0.
        -12    1    1    2    0    0 -0.21076101727E+01  0.38660392668E+01 -0.31580567061E+02  0.31886054885E+02  0.00000000000E+00 0.  1.
         11    1    3    3    0    0 -0.12621217410E+02 -0.29795363468E+01  0.26919453736E+02  0.29880256951E+02  0.51100000000E-03 0. -1.
        -11    1    3    3    0    0  0.16204769670E+02  0.93479424219E+01  0.28329097370E+01  0.18920992717E+02  0.51100000000E-03 0.  1.
        -12    1    3    3    0    0 -0.14759420868E+01 -0.10234445342E+02  0.18282035882E+01  0.10500695446E+02  0.00000000000E+00 0.  1.
</event>
<event>
 7    1  0.6065977E-013  0.5930193E+02  0.7816164E-02  0.1266605E+00
        -11   -1    0    0    0    0  0.00000000000E+00  0.00000000000E+00  0.45593999997E+02  0.45594000000E+02  0.51100000000E-03 0. -1.
         11   -1    0    0    0    0 -0.00000000000E+00 -0.00000000000E+00 -0.45593999997E+02  0.45594000000E+02  0.51100000000E-03 0.  1.
    9900012    2    1    2    0    0  0.15237853896E+02 -0.24885982373E+02  0.12853670020E+02  0.59301934971E+02  0.49999983483E+02 0.  0.
        -12    1    1    2    0    0 -0.15237853896E+02  0.24885982373E+02 -0.12853670020E+02  0.31886065029E+02  0.00000000000E+00 0.  1.
         11    1    3    3    0    0  0.61675657455E+01  0.54749030218E+01  0.13300888614E+02  0.15650145958E+02  0.51100000000E-03 0. -1.
        -11    1    3    3    0    0  0.16878854844E+02 -0.19591075031E+02 -0.95129811497E+01  0.27553634467E+02  0.51100000000E-03 0.  1.
         12    1    3    3    0    0 -0.78085666938E+01 -0.10769810364E+02  0.90657625558E+01  0.16098154547E+02  0.00000000000E+00 0. -1.
</event>
<event>
 7    1  0.6065977E-013  0.5930193E+02  0.7816164E-02  0.1266605E+00
        -11   -1    0    0    0    0  0.00000000000E+00  0.00000000000E+00  0.45593999997E+02  0.45594000000E+02  0.51100000000E-03 0.  1.
         11   -1    0    0    0    0 -0.00000000000E+00 -0.00000000000E+00 -0.45593999997E+02  0.45594000000E+02  0.51100000000E-03 0. -1.
    9900012    2    1    2    0    0 -0.22898694800E+01 -0.10479555856E+02 -0.30027596887E+02  0.59301934580E+02  0.49999982770E+02 0.  0.
        -12    1    1    2    0    0  0.22898694800E+01  0.10479555856E+02  0.30027596887E+02  0.31886065420E+02  0.00000000000E+00 0.  1.
         11    1    3    3    0    0  0.97444394561E+01 -0.20879945704E+02  0.80823303479E+00  0.23056007326E+02  0.51100000000E-03 0. -1.
        -11    1    3    3    0    0 -0.71429074442E+01  0.43912331749E+01 -0.62214149013E+01  0.10440788246E+02  0.51100000000E-03 0.  1.
         12    1    3    3    0    0 -0.48914014919E+01  0.60091566726E+01 -0.24614415020E+02  0.25805139009E+02  0.00000000000E+00 0. -1.
</event>
<event>
 7    1  0.6065977E-013  0.5930191E+02  0.7816164E-02  0.1266605E+00
        -11   -1    0    0    0    0  0.00000000000E+00  0.00000000000E+00  0.45593999997E+02  0.45594000000E+02  0.51100000000E-03 0.  1.
         11   -1    0    0    0    0 -0.00000000000E+00 -0.00000000000E+00 -0.45593999997E+02  0.45594000000E+02  0.51100000000E-03 0. -1.
    9900012    2    1    2    0    0 -0.30454995463E+02  0.90348250334E+01 -0.27546593810E+01  0.59301906474E+02  0.49999931512E+02 0.  0.
        -12    1    1    2    0    0  0.30454995463E+02 -0.90348250334E+01  0.27546593810E+01  0.31886093526E+02  0.00000000000E+00 0.  1.
         11    1    3    3    0    0 -0.79087868906E+01  0.54062743179E+01 -0.17181042341E+02  0.19671424154E+02  0.51100000000E-03 0. -1.
        -11    1    3    3    0    0 -0.17346050606E+02 -0.11051314260E+02  0.12158872993E+02  0.23892576487E+02  0.51100000000E-03 0.  1.
        -12    1    3    3    0    0 -0.52001579662E+01  0.14679864975E+02  0.22675099670E+01  0.15737905833E+02  0.00000000000E+00 0.  1.
</event>
<event>
 7    1  0.6065977E-013  0.5930196E+02  0.7816164E-02  0.1266605E+00
        -11   -1    0    0    0    0  0.00000000000E+00  0.00000000000E+00  0.45593999997E+02  0.45594000000E+02  0.51100000000E-03 0.  1.
         11   -1    0    0    0    0 -0.00000000000E+00 -0.00000000000E+00 -0.45593999997E+02  0.45594000000E+02  0.51100000000E-03 0. -1.
    9900012    2    1    2    0    0 -0.57083940420E+01  0.19657155806E+02 -0.24448515087E+02  0.59301961882E+02  0.50000032562E+02 0.  0.
        -12    1    1    2    0    0  0.57083940420E+01 -0.19657155806E+02  0.24448515087E+02  0.31886038118E+02  0.00000000000E+00 0.  1.
         11    1    3    3    0    0 -0.21769695496E+01  0.26972462248E+02 -0.92500404333E+01  0.28597485282E+02  0.51100000000E-03 0. -1.
        -11    1    3    3    0    0  0.27641657911E+01 -0.13376701862E+02 -0.57843620369E+00  0.13671552725E+02  0.51100000000E-03 0.  1.
         12    1    3    3    0    0 -0.62955902835E+01  0.60613954191E+01 -0.14620038450E+02  0.17032923875E+02  0.00000000000E+00 0. -1.
</event>
<event>
 7    1  0.6065977E-013  0.5930193E+02  0.7816164E-02  0.1266605E+00
        -11   -1    0    0    0    0  0.00000000000E+00  0.00000000000E+00  0.45593999997E+02  0.45594000000E+02  0.51100000000E-03 0.  1.
         11   -1    0    0    0    0 -0.00000000000E+00 -0.00000000000E+00 -0.45593999997E+02  0.45594000000E+02  0.51100000000E-03 0. -1.
    9900012    2    1    2    0    0 -0.12668002609E+02  0.22959619180E+02  0.18141091029E+02  0.59301928013E+02  0.49999970794E+02 0.  0.
        -12    1    1    2    0    0  0.12668002609E+02 -0.22959619180E+02 -0.18141091029E+02  0.31886071987E+02  0.00000000000E+00 0.  1.
         11    1    3    3    0    0 -0.79786556217E+00 -0.24918886622E+01 -0.18364614923E+01  0.31966685212E+01  0.51100000000E-03 0. -1.
        -11    1    3    3    0    0  0.11431105491E+02  0.16827021543E+02  0.23420661807E+02  0.31021705732E+02  0.51100000000E-03 0.  1.
        -12    1    3    3    0    0 -0.23301242537E+02  0.86244862991E+01 -0.34431092854E+01  0.25083553760E+02  0.00000000000E+00 0.  1.
</event>
<event>
 7    1  0.6065977E-013  0.5930194E+02  0.7816164E-02  0.1266605E+00
        -11   -1    0    0    0    0  0.00000000000E+00  0.00000000000E+00  0.45593999997E+02  0.45594000000E+02  0.51100000000E-03 0.  1.
         11   -1    0    0    0    0 -0.00000000000E+00 -0.00000000000E+00 -0.45593999997E+02  0.45594000000E+02  0.51100000000E-03 0. -1.
    9900012    2    1    2    0    0  0.37644796715E+01  0.21586974914E+02  0.23163588723E+02  0.59301942927E+02  0.49999997992E+02 0.  0.
        -12    1    1    2    0    0 -0.37644796715E+01 -0.21586974914E+02 -0.23163588723E+02  0.31886057073E+02  0.00000000000E+00 0.  1.
         11    1    3    3    0    0  0.12149195521E+02  0.21214264499E+02  0.23843855932E+02  0.34149340199E+02  0.51100000000E-03 0. -1.
        -11    1    3    3    0    0 -0.14956051625E+02 -0.50604436032E+01 -0.34993996475E+01  0.16172116986E+02  0.51100000000E-03 0.  1.
        -12    1    3    3    0    0  0.65713357752E+01  0.54331540188E+01  0.28191324383E+01  0.89804857423E+01  0.00000000000E+00 0.  1.
</event>
<event>
 7    1  0.6065977E-013  0.5930194E+02  0.7816164E-02  0.1266605E+00
        -11   -1    0    0    0    0  0.00000000000E+00  0.00000000000E+00  0.45593999997E+02  0.45594000000E+02  0.51100000000E-03 0.  1.
         11   -1    0    0    0    0 -0.00000000000E+00 -0.00000000000E+00 -0.45593999997E+02  0.45594000000E+02  0.51100000000E-03 0. -1.
    9900012    2    1    2    0    0 -0.20584935704E+02 -0.13940200661E+02 -0.19966270334E+02  0.59301941551E+02  0.49999995482E+02 0.  0.
        -12    1    1    2    0    0  0.20584935704E+02  0.13940200661E+02  0.19966270334E+02  0.31886058449E+02  0.00000000000E+00 0.  1.
         11    1    3    3    0    0 -0.23035595531E+00  0.13884993088E+02  0.23577062534E+01  0.14085626573E+02  0.51100000000E-03 0.  1.
        -11    1    3    3    0    0 -0.65127082364E+01 -0.21787068747E+02 -0.19275839577E+02  0.29810228527E+02  0.51100000000E-03 0. -1.
        -12    1    3    3    0    0 -0.13841871512E+02 -0.60381250017E+01 -0.30481370107E+01  0.15406086451E+02  0.00000000000E+00 0.  1.
</event>
<event>
 7    1  0.6065977E-013  0.5930195E+02  0.7816164E-02  0.1266605E+00
        -11   -1    0    0    0    0  0.00000000000E+00  0.00000000000E+00  0.45593999997E+02  0.45594000000E+02  0.51100000000E-03 0.  1.
         11   -1    0    0    0    0 -0.00000000000E+00 -0.00000000000E+00 -0.45593999997E+02  0.45594000000E+02  0.51100000000E-03 0. -1.
    9900012    2    1    2    0    0 -0.66287150695E+01  0.27447556349E+02 -0.14812568734E+02  0.59301946536E+02  0.50000004574E+02 0.  0.
        -12    1    1    2    0    0  0.66287150695E+01 -0.27447556349E+02  0.14812568734E+02  0.31886053464E+02  0.00000000000E+00 0.  1.
         11    1    3    3    0    0 -0.14948332800E+02  0.17715234446E+02 -0.23635626281E+02  0.33104758191E+02  0.51100000000E-03 0. -1.
        -11    1    3    3    0    0  0.91494891343E+01 -0.44471254881E+01  0.56748061940E+01  0.11648755390E+02  0.51100000000E-03 0.  1.
        -12    1    3    3    0    0 -0.82987140399E+00  0.14179447391E+02  0.31482513522E+01  0.14548432955E+02  0.00000000000E+00 0.  1.
</event>
<event>
 7    1  0.6065977E-013  0.5930195E+02  0.7816164E-02  0.1266605E+00
        -11   -1    0    0    0    0  0.00000000000E+00  0.00000000000E+00  0.45593999997E+02  0.45594000000E+02  0.51100000000E-03 0.  1.
         11   -1    0    0    0    0 -0.00000000000E+00 -0.00000000000E+00 -0.45593999997E+02  0.45594000000E+02  0.51100000000E-03 0. -1.
    9900012    2    1    2    0    0 -0.16031291914E+02 -0.50151030315E+01 -0.27102892563E+02  0.59301947185E+02  0.50000005758E+02 0.  0.
        -12    1    1    2    0    0  0.16031291914E+02  0.50151030315E+01  0.27102892563E+02  0.31886052815E+02  0.00000000000E+00 0.  1.
         11    1    3    3    0    0  0.10261556597E+02  0.47522231685E+00 -0.18812590664E+02  0.21434527002E+02  0.51100000000E-03 0. -1.
        -11    1    3    3    0    0 -0.28449477337E+02  0.23168780715E+01 -0.43957612152E+01  0.28880155845E+02  0.51100000000E-03 0.  1.
         12    1    3    3    0    0  0.21566288257E+01 -0.78072034199E+01 -0.38945406842E+01  0.89872643375E+01  0.00000000000E+00 0. -1.
</event>
<event>
 7    1  0.6065977E-013  0.5930201E+02  0.7816164E-02  0.1266605E+00
        -11   -1    0    0    0    0  0.00000000000E+00  0.00000000000E+00  0.45593999997E+02  0.45594000000E+02  0.51100000000E-03 0. -1.
         11   -1    0    0    0    0 -0.00000000000E+00 -0.00000000000E+00 -0.45593999997E+02  0.45594000000E+02  0.51100000000E-03 0.  1.
    9900012    2    1    2    0    0 -0.30847763151E+02  0.14078907629E+01  0.79466859890E+01  0.59302008311E+02  0.50000117236E+02 0.  0.
        -12    1    1    2    0    0  0.30847763151E+02 -0.14078907629E+01 -0.79466859890E+01  0.31885991689E+02  0.00000000000E+00 0.  1.
         11    1    3    3    0    0 -0.13427620012E+02 -0.41692043554E+01  0.19844943299E+02  0.24320876196E+02  0.51100000000E-03 0. -1.
        -11    1    3    3    0    0  0.58877148125E+01 -0.15176905918E+01 -0.83968838640E+01  0.10367074290E+02  0.51100000000E-03 0.  1.
        -12    1    3    3    0    0 -0.23307857952E+02  0.70947857101E+01 -0.35013734464E+01  0.24614057824E+02  0.00000000000E+00 0.  1.
</event>
<event>
 7    1  0.6065977E-013  0.5930194E+02  0.7816164E-02  0.1266605E+00
        -11   -1    0    0    0    0  0.00000000000E+00  0.00000000000E+00  0.45593999997E+02  0.45594000000E+02  0.51100000000E-03 0. -1.
         11   -1    0    0    0    0 -0.00000000000E+00 -0.00000000000E+00 -0.45593999997E+02  0.45594000000E+02  0.51100000000E-03 0.  1.
    9900012    2    1    2    0    0 -0.77334874327E+01 -0.16018853677E+01  0.30892525375E+02  0.59301937392E+02  0.49999987898E+02 0.  0.
        -12    1    1    2    0    0  0.77334874327E+01  0.16018853677E+01 -0.30892525375E+02  0.31886062608E+02  0.00000000000E+00 0.  1.
         11    1    3    3    0    0  0.51301519093E+01  0.31558675991E+01  0.30085610410E+02  0.30682599514E+02  0.51100000000E-03 0. -1.
        -11    1    3    3    0    0 -0.14127160935E+02  0.72637845581E+01 -0.25159054143E+01  0.16083190681E+02  0.51100000000E-03 0.  1.
        -12    1    3    3    0    0  0.12635215926E+01 -0.12021537525E+02  0.33228203790E+01  0.12536147197E+02  0.00000000000E+00 0.  1.
</event>
<event>
 7    1  0.6065977E-013  0.5930188E+02  0.7816164E-02  0.1266605E+00
        -11   -1    0    0    0    0  0.00000000000E+00  0.00000000000E+00  0.45593999997E+02  0.45594000000E+02  0.51100000000E-03 0. -1.
         11   -1    0    0    0    0 -0.00000000000E+00 -0.00000000000E+00 -0.45593999997E+02  0.45594000000E+02  0.51100000000E-03 0.  1.
    9900012    2    1    2    0    0  0.44264663918E+00  0.31501751110E+02  0.49161395891E+01  0.59301879390E+02  0.49999882117E+02 0.  0.
        -12    1    1    2    0    0 -0.44264663918E+00 -0.31501751110E+02 -0.49161395891E+01  0.31886120610E+02  0.00000000000E+00 0.  1.
         11    1    3    3    0    0 -0.15628258299E+02  0.47381015046E+01 -0.22365294178E+01  0.16483146769E+02  0.51100000000E-03 0. -1.
        -11    1    3    3    0    0  0.20066249209E+02  0.14980038402E+02 -0.48772642859E+01  0.25511636855E+02  0.51100000000E-03 0.  1.
         12    1    3    3    0    0 -0.39953442707E+01  0.11783611204E+02  0.12029933293E+02  0.17307095767E+02  0.00000000000E+00 0. -1.
</event>
<event>
 7    1  0.6065977E-013  0.5930196E+02  0.7816164E-02  0.1266605E+00
        -11   -1    0    0    0    0  0.00000000000E+00  0.00000000000E+00  0.45593999997E+02  0.45594000000E+02  0.51100000000E-03 0.  1.
         11   -1    0    0    0    0 -0.00000000000E+00 -0.00000000000E+00 -0.45593999997E+02  0.45594000000E+02  0.51100000000E-03 0. -1.
    9900012    2    1    2    0    0 -0.29764151652E+02  0.10795430197E+02 -0.37779888153E+01  0.59301964872E+02  0.50000038014E+02 0.  0.
        -12    1    1    2    0    0  0.29764151652E+02 -0.10795430197E+02  0.37779888153E+01  0.31886035128E+02  0.00000000000E+00 0.  1.
         11    1    3    3    0    0 -0.17268343981E+02  0.74273128027E+01  0.27595375610E+01  0.18999361230E+02  0.51100000000E-03 0. -1.
        -11    1    3    3    0    0  0.10797427305E+02 -0.58227927636E+01  0.43245170948E+01  0.13007336405E+02  0.51100000000E-03 0.  1.
        -12    1    3    3    0    0 -0.23293234976E+02  0.91909101578E+01 -0.10862043471E+02  0.27295267237E+02  0.00000000000E+00 0.  1.
</event>
<event>
 7    1  0.6065977E-013  0.5930194E+02  0.7816164E-02  0.1266605E+00
        -11   -1    0    0    0    0  0.00000000000E+00  0.00000000000E+00  0.45593999997E+02  0.45594000000E+02  0.51100000000E-03 0. -1.
         11   -1    0    0    0    0 -0.00000000000E+00 -0.00000000000E+00 -0.45593999997E+02  0.45594000000E+02  0.51100000000E-03 0.  1.
    9900012    2    1    2    0    0 -0.23480031357E+02 -0.16503623574E+02  0.13893851208E+02  0.59301944035E+02  0.50000000014E+02 0.  0.
        -12    1    1    2    0    0  0.23480031357E+02  0.16503623574E+02 -0.13893851208E+02  0.31886055965E+02  0.00000000000E+00 0.  1.
         11    1    3    3    0    0 -0.25494678415E+02 -0.21090616263E+02  0.17827627203E+02  0.37584797642E+02  0.51100000000E-03 0. -1.
        -11    1    3    3    0    0  0.25264077168E+01  0.12840339533E+02 -0.25615990366E+01  0.13334873271E+02  0.51100000000E-03 0.  1.
        -12    1    3    3    0    0 -0.51176065974E+00 -0.82533468431E+01 -0.13721769590E+01  0.83822731220E+01  0.00000000000E+00 0.  1.
</event>
<event>
 7    1  0.6065977E-013  0.5930203E+02  0.7816164E-02  0.1266604E+00
        -11   -1    0    0    0    0  0.00000000000E+00  0.00000000000E+00  0.45593999997E+02  0.45594000000E+02  0.51100000000E-03 0.  1.
         11   -1    0    0    0    0 -0.00000000000E+00 -0.00000000000E+00 -0.45593999997E+02  0.45594000000E+02  0.51100000000E-03 0. -1.
    9900012    2    1    2    0    0 -0.27228233917E+02  0.16513839210E+02  0.16222608822E+01  0.59302025998E+02  0.50000149494E+02 0.  0.
        -12    1    1    2    0    0  0.27228233917E+02 -0.16513839210E+02 -0.16222608822E+01  0.31885974002E+02  0.00000000000E+00 0.  1.
         11    1    3    3    0    0 -0.14000639128E+02  0.14241553759E+01  0.18563317012E+02  0.23294695819E+02  0.51100000000E-03 0. -1.
        -11    1    3    3    0    0 -0.71515861115E+01  0.19661682533E+02 -0.18856818153E+02  0.28165697844E+02  0.51100000000E-03 0.  1.
         12    1    3    3    0    0 -0.60760086771E+01 -0.45719986987E+01  0.19157620233E+01  0.78416323348E+01  0.00000000000E+00 0. -1.
</event>
<event>
 7    1  0.6065977E-013  0.5930195E+02  0.7816164E-02  0.1266605E+00
        -11   -1    0    0    0    0  0.00000000000E+00  0.00000000000E+00  0.45593999997E+02  0.45594000000E+02  0.51100000000E-03 0.  1.
         11   -1    0    0    0    0 -0.00000000000E+00 -0.00000000000E+00 -0.45593999997E+02  0.45594000000E+02  0.51100000000E-03 0. -1.
    9900012    2    1    2    0    0 -0.38775480663E+01 -0.71796699421E+01 -0.30824298451E+02  0.59301946395E+02  0.50000004318E+02 0.  0.
        -12    1    1    2    0    0  0.38775480663E+01  0.71796699421E+01  0.30824298451E+02  0.31886053605E+02  0.00000000000E+00 0.  1.
         11    1    3    3    0    0 -0.53891208679E+01 -0.21798836446E+01 -0.15710613861E+02  0.16751653786E+02  0.51100000000E-03 0. -1.
        -11    1    3    3    0    0  0.14002261669E+02 -0.17291294037E+02 -0.86485616642E+01  0.23871526982E+02  0.51100000000E-03 0.  1.
        -12    1    3    3    0    0 -0.12490688867E+02  0.12291507740E+02 -0.64651229261E+01  0.18678765627E+02  0.00000000000E+00 0.  1.
</event>
<event>
 7    1  0.6065977E-013  0.5930193E+02  0.7816164E-02  0.1266605E+00
        -11   -1    0    0    0    0  0.00000000000E+00  0.00000000000E+00  0.45593999997E+02  0.45594000000E+02  0.51100000000E-03 0.  1.
         11   -1    0    0    0    0 -0.00000000000E+00 -0.00000000000E+00 -0.45593999997E+02  0.45594000000E+02  0.51100000000E-03 0. -1.
    9900012    2    1    2    0    0  0.60468159823E+01 -0.20419657019E+02 -0.23731727784E+02  0.59301932824E+02  0.49999979568E+02 0.  0.
        -12    1    1    2    0    0 -0.60468159823E+01  0.20419657019E+02  0.23731727784E+02  0.31886067176E+02  0.00000000000E+00 0.  1.
         11    1    3    3    0    0  0.35926821002E+01  0.72859894862E+01  0.64750707246E+01  0.10388433405E+02  0.51100000000E-03 0. -1.
        -11    1    3    3    0    0 -0.97850195996E+01 -0.23449474271E+02 -0.21683289593E+02  0.33403435452E+02  0.51100000000E-03 0.  1.
         12    1    3    3    0    0  0.12239153482E+02 -0.42561722347E+01 -0.85235089153E+01  0.15510063967E+02  0.00000000000E+00 0. -1.
</event>
<event>
 7    1  0.6065977E-013  0.5930193E+02  0.7816164E-02  0.1266605E+00
        -11   -1    0    0    0    0  0.00000000000E+00  0.00000000000E+00  0.45593999997E+02  0.45594000000E+02  0.51100000000E-03 0.  1.
         11   -1    0    0    0    0 -0.00000000000E+00 -0.00000000000E+00 -0.45593999997E+02  0.45594000000E+02  0.51100000000E-03 0. -1.
    9900012    2    1    2    0    0 -0.56374930631E+01 -0.12906530691E+02 -0.28607023202E+02  0.59301927194E+02  0.49999969299E+02 0.  0.
        -12    1    1    2    0    0  0.56374930631E+01  0.12906530691E+02  0.28607023202E+02  0.31886072806E+02  0.00000000000E+00 0.  1.
         11    1    3    3    0    0 -0.96355177826E+01 -0.20624794342E+01 -0.13579109301E+02  0.16777640895E+02  0.51100000000E-03 0. -1.
        -11    1    3    3    0    0  0.14443811796E+02 -0.19560416699E+02 -0.32537041250E+01  0.24532023794E+02  0.51100000000E-03 0.  1.
        -12    1    3    3    0    0 -0.10445787076E+02  0.87163654420E+01 -0.11774209777E+02  0.17992262504E+02  0.00000000000E+00 0.  1.
</event>
<event>
 7    1  0.6065977E-013  0.5930201E+02  0.7816164E-02  0.1266605E+00
        -11   -1    0    0    0    0  0.00000000000E+00  0.00000000000E+00  0.45593999997E+02  0.45594000000E+02  0.51100000000E-03 0. -1.
         11   -1    0    0    0    0 -0.00000000000E+00 -0.00000000000E+00 -0.45593999997E+02  0.45594000000E+02  0.51100000000E-03 0.  1.
    9900012    2    1    2    0    0  0.30942702135E+02 -0.46634443819E+01  0.61251619644E+01  0.59302013454E+02  0.50000126617E+02 0.  0.
        -12    1    1    2    0    0 -0.30942702135E+02  0.46634443819E+01 -0.61251619644E+01  0.31885986546E+02  0.00000000000E+00 0.  1.
         11    1    3    3    0    0 -0.74871997608E+01  0.36453630893E+01 -0.49415323965E+01  0.96832626216E+01  0.51100000000E-03 0. -1.
        -11    1    3    3    0    0  0.29604075022E+02 -0.15617013820E+00 -0.45105701914E+01  0.29946133151E+02  0.51100000000E-03 0.  1.
         12    1    3    3    0    0  0.88258268743E+01 -0.81526373330E+01  0.15577264552E+02  0.19672617681E+02  0.00000000000E+00 0. -1.
</event>
<event>
 7    1  0.6065977E-013  0.5930192E+02  0.7816164E-02  0.1266605E+00
        -11   -1    0    0    0    0  0.00000000000E+00  0.00000000000E+00  0.45593999997E+02  0.45594000000E+02  0.51100000000E-03 0. -1.
         11   -1    0    0    0    0 -0.00000000000E+00 -0.00000000000E+00 -0.45593999997E+02  0.45594000000E+02  0.51100000000E-03 0.  1.
    9900012    2    1    2    0    0  0.16819532002E+02 -0.26563333063E+02  0.53117831889E+01  0.59301915875E+02  0.49999948657E+02 0.  0.
        -12    1    1    2    0    0 -0.16819532002E+02  0.26563333063E+02 -0.53117831889E+01  0.31886084125E+02  0.00000000000E+00 0.  1.
         11    1    3    3    0    0  0.12824899511E+01 -0.77256768234E+01  0.23333702375E+02  0.24612852936E+02  0.51100000000E-03 0. -1.
        -11    1    3    3    0    0 -0.21425111183E+01 -0.30981034200E+01 -0.82715956782E+01  0.90888884919E+01  0.51100000000E-03 0.  1.
         12    1    3    3    0    0  0.17679553169E+02 -0.15739552819E+02 -0.97503235082E+01  0.25600174447E+02  0.00000000000E+00 0. -1.
</event>
<event>
 7    1  0.6065977E-013  0.5930194E+02  0.7816164E-02  0.1266605E+00
        -11   -1    0    0    0    0  0.00000000000E+00  0.00000000000E+00  0.45593999997E+02  0.45594000000E+02  0.51100000000E-03 0. -1.
         11   -1    0    0    0    0 -0.00000000000E+00 -0.00000000000E+00 -0.45593999997E+02  0.45594000000E+02  0.51100000000E-03 0.  1.
    9900012    2    1    2    0    0 -0.29310993878E+02 -0.61245599085E+01  0.10957937449E+02  0.59301937381E+02  0.49999987878E+02 0.  0.
        -12    1    1    2    0    0  0.29310993878E+02  0.61245599085E+01 -0.10957937449E+02  0.31886062619E+02  0.00000000000E+00 0.  1.
         11    1    3    3    0    0 -0.18686688763E+02  0.59100097971E+01 -0.37282275017E+01  0.19950444439E+02  0.51100000000E-03 0. -1.
        -11    1    3    3    0    0 -0.14558406787E+02 -0.21575008042E+02  0.88216984980E+01  0.27481822080E+02  0.51100000000E-03 0.  1.
        -12    1    3    3    0    0  0.39341016722E+01  0.95404383359E+01  0.58644664532E+01  0.11869670863E+02  0.00000000000E+00 0.  1.
</event>
<event>
 7    1  0.6065977E-013  0.5930196E+02  0.7816164E-02  0.1266605E+00
        -11   -1    0    0    0    0  0.00000000000E+00  0.00000000000E+00  0.45593999997E+02  0.45594000000E+02  0.51100000000E-03 0.  1.
         11   -1    0    0    0    0 -0.00000000000E+00 -0.00000000000E+00 -0.45593999997E+02  0.45594000000E+02  0.51100000000E-03 0. -1.
    9900012    2    1    2    0    0  0.22840883809E+02  0.19651055129E+02 -0.10433116620E+02  0.59301955039E+02  0.50000020081E+02 0.  0.
        -12    1    1    2    0    0 -0.22840883809E+02 -0.19651055129E+02  0.10433116620E+02  0.31886044961E+02  0.00000000000E+00 0.  1.
         11    1    3    3    0    0  0.13409761039E+02 -0.78280777317E+01 -0.13512930887E+02  0.20583969333E+02  0.51100000000E-03 0. -1.
        -11    1    3    3    0    0  0.94738692830E+01  0.29679966679E+02 -0.39007505153E+01  0.31398574428E+02  0.51100000000E-03 0.  1.
        -12    1    3    3    0    0 -0.42746512878E-01 -0.22008338186E+01  0.69805647822E+01  0.73194112769E+01  0.00000000000E+00 0.  1.
</event>
<event>
 7    1  0.6065977E-013  0.5930194E+02  0.7816164E-02  0.1266605E+00
        -11   -1    0    0    0    0  0.00000000000E+00  0.00000000000E+00  0.45593999997E+02  0.45594000000E+02  0.51100000000E-03 0.  1.
         11   -1    0    0    0    0 -0.00000000000E+00 -0.00000000000E+00 -0.45593999997E+02  0.45594000000E+02  0.51100000000E-03 0. -1.
    9900012    2    1    2    0    0  0.42491910585E+01 -0.31028253348E+02  0.59927324471E+01  0.59301937643E+02  0.49999988355E+02 0.  0.
        -12    1    1    2    0    0 -0.42491910585E+01  0.31028253348E+02 -0.59927324471E+01  0.31886062357E+02  0.00000000000E+00 0.  1.
         11    1    3    3    0    0  0.20315983185E+01 -0.27681196701E+02  0.23371067967E+02  0.36284746943E+02  0.51100000000E-03 0. -1.
        -11    1    3    3    0    0  0.10406807522E+01  0.53105762607E+01 -0.10801400784E+02  0.12081204237E+02  0.51100000000E-03 0.  1.
         12    1    3    3    0    0  0.11769119878E+01 -0.86576329075E+01 -0.65769347358E+01  0.10935986462E+02  0.00000000000E+00 0. -1.
</event>
<event>
 7    1  0.6065977E-013  0.5930191E+02  0.7816164E-02  0.1266605E+00
        -11   -1    0    0    0    0  0.00000000000E+00  0.00000000000E+00  0.45593999997E+02  0.45594000000E+02  0.51100000000E-03 0.  1.
         11   -1    0    0    0    0 -0.00000000000E+00 -0.00000000000E+00 -0.45593999997E+02  0.45594000000E+02  0.51100000000E-03 0. -1.
    9900012    2    1    2    0    0 -0.90624827689E+01  0.27113203361E+02 -0.14123318403E+02  0.59301913486E+02  0.49999944300E+02 0.  0.
        -12    1    1    2    0    0  0.90624827689E+01 -0.27113203361E+02  0.14123318403E+02  0.31886086514E+02  0.00000000000E+00 0.  1.
         11    1    3    3    0    0  0.58183193134E+00  0.86785922231E+01 -0.24526289541E+02  0.26022977737E+02  0.51100000000E-03 0. -1.
        -11    1    3    3    0    0 -0.97679544954E+01  0.24060259540E+02  0.89605916946E+01  0.27470005969E+02  0.51100000000E-03 0.  1.
        -12    1    3    3    0    0  0.12363979513E+00 -0.56256484018E+01  0.14423794431E+01  0.58089297807E+01  0.00000000000E+00 0.  1.
</event>
<event>
 7    1  0.6065977E-013  0.5930194E+02  0.7816164E-02  0.1266605E+00
        -11   -1    0    0    0    0  0.00000000000E+00  0.00000000000E+00  0.45593999997E+02  0.45594000000E+02  0.51100000000E-03 0.  1.
         11   -1    0    0    0    0 -0.00000000000E+00 -0.00000000000E+00 -0.45593999997E+02  0.45594000000E+02  0.51100000000E-03 0. -1.
    9900012    2    1    2    0    0 -0.80421390552E+01  0.16487079220E+02 -0.26081042045E+02  0.59301944490E+02  0.50000000843E+02 0.  0.
        -12    1    1    2    0    0  0.80421390552E+01 -0.16487079220E+02  0.26081042045E+02  0.31886055510E+02  0.00000000000E+00 0.  1.
         11    1    3    3    0    0 -0.21231557449E+02  0.22678144994E+02 -0.14210489268E+02  0.34161605606E+02  0.51100000000E-03 0. -1.
        -11    1    3    3    0    0  0.10894475922E+02 -0.11707792613E+02 -0.71151703082E+01  0.17503932766E+02  0.51100000000E-03 0.  1.
         12    1    3    3    0    0  0.22949424720E+01  0.55167268403E+01 -0.47553824695E+01  0.76364061189E+01  0.00000000000E+00 0. -1.
</event>
<event>
 7    1  0.6065977E-013  0.5930183E+02  0.7816164E-02  0.1266605E+00
        -11   -1    0    0    0    0  0.00000000000E+00  0.00000000000E+00  0.45593999997E+02  0.45594000000E+02  0.51100000000E-03 0.  1.
         11   -1    0    0    0    0 -0.00000000000E+00 -0.00000000000E+00 -0.45593999997E+02  0.45594000000E+02  0.51100000000E-03 0. -1.
    9900012    2    1    2    0    0  0.17751831277E+02  0.22310214790E+02 -0.14277776786E+02  0.59301825761E+02  0.49999784309E+02 0.  0.
        -12    1    1    2    0    0 -0.17751831277E+02 -0.22310214790E+02  0.14277776786E+02  0.31886174239E+02  0.00000000000E+00 0.  1.
         11    1    3    3    0    0 -0.56328074467E+01  0.15198219701E+02  0.64521832059E+01  0.17445488534E+02  0.51100000000E-03 0.  1.
        -11    1    3    3    0    0  0.20649170268E+02  0.36656423488E+01 -0.27005214195E+02  0.34192203213E+02  0.51100000000E-03 0. -1.
         12    1    3    3    0    0  0.27354684552E+01  0.34463527405E+01  0.62752542026E+01  0.76641340143E+01  0.00000000000E+00 0. -1.
</event>
<event>
 7    1  0.6065977E-013  0.5930194E+02  0.7816164E-02  0.1266605E+00
        -11   -1    0    0    0    0  0.00000000000E+00  0.00000000000E+00  0.45593999997E+02  0.45594000000E+02  0.51100000000E-03 0. -1.
         11   -1    0    0    0    0 -0.00000000000E+00 -0.00000000000E+00 -0.45593999997E+02  0.45594000000E+02  0.51100000000E-03 0.  1.
    9900012    2    1    2    0    0 -0.25395180116E+02  0.13920407015E+02  0.13342712099E+02  0.59301939241E+02  0.49999991269E+02 0.  0.
        -12    1    1    2    0    0  0.25395180116E+02 -0.13920407015E+02 -0.13342712099E+02  0.31886060759E+02  0.00000000000E+00 0.  1.
         11    1    3    3    0    0 -0.55300622151E+01  0.85204130517E-01  0.77981893398E+01  0.95603663678E+01  0.51100000000E-03 0. -1.
        -11    1    3    3    0    0 -0.15390598238E+02  0.28984635669E+02 -0.51875422601E+00  0.32821467444E+02  0.51100000000E-03 0.  1.
        -12    1    3    3    0    0 -0.44745196632E+01 -0.15149432785E+02  0.60632769851E+01  0.16920105428E+02  0.00000000000E+00 0.  1.
</event>
<event>
 7    1  0.6065977E-013  0.5930194E+02  0.7816164E-02  0.1266605E+00
        -11   -1    0    0    0    0  0.00000000000E+00  0.00000000000E+00  0.45593999997E+02  0.45594000000E+02  0.51100000000E-03 0.  1.
         11   -1    0    0    0    0 -0.00000000000E+00 -0.00000000000E+00 -0.45593999997E+02  0.45594000000E+02  0.51100000000E-03 0. -1.
    9900012    2    1    2    0    0 -0.26737332602E+02  0.73400885364E+01 -0.15746706330E+02  0.59301943257E+02  0.49999998594E+02 0.  0.
        -12    1    1    2    0    0  0.26737332602E+02 -0.73400885364E+01  0.15746706330E+02  0.31886056743E+02  0.00000000000E+00 0.  1.
         11    1    3    3    0    0 -0.68056783378E+00  0.18152733948E+02 -0.88758779453E+01  0.20217965574E+02  0.51100000000E-03 0. -1.
        -11    1    3    3    0    0 -0.19724469091E+02 -0.16104469820E+02 -0.13201998332E+02  0.28682771647E+02  0.51100000000E-03 0.  1.
         12    1    3    3    0    0 -0.63322956771E+01  0.52918244084E+01  0.63311699471E+01  0.10401206036E+02  0.00000000000E+00 0. -1.
</event>
<event>
 7    1  0.6065977E-013  0.5930195E+02  0.7816164E-02  0.1266605E+00
        -11   -1    0    0    0    0  0.00000000000E+00  0.00000000000E+00  0.45593999997E+02  0.45594000000E+02  0.51100000000E-03 0. -1.
         11   -1    0    0    0    0 -0.00000000000E+00 -0.00000000000E+00 -0.45593999997E+02  0.45594000000E+02  0.51100000000E-03 0.  1.
    9900012    2    1    2    0    0 -0.23538349351E+02 -0.10493582720E+02 -0.18776343195E+02  0.59301949253E+02  0.50000009530E+02 0.  0.
        -12    1    1    2    0    0  0.23538349351E+02  0.10493582720E+02  0.18776343195E+02  0.31886050747E+02  0.00000000000E+00 0.  1.
         11    1    3    3    0    0  0.79790200346E+01 -0.60077915134E-01 -0.86101827224E+00  0.80255668208E+01  0.51100000000E-03 0. -1.
        -11    1    3    3    0    0 -0.33189756417E+02 -0.18508761149E+02 -0.19750921312E+02  0.42827947222E+02  0.51100000000E-03 0.  1.
        -12    1    3    3    0    0  0.16723870319E+01  0.80752563435E+01  0.18355963896E+01  0.84484352104E+01  0.00000000000E+00 0.  1.
</event>
<event>
 7    1  0.6065977E-013  0.5930192E+02  0.7816164E-02  0.1266605E+00
        -11   -1    0    0    0    0  0.00000000000E+00  0.00000000000E+00  0.45593999997E+02  0.45594000000E+02  0.51100000000E-03 0. -1.
         11   -1    0    0    0    0 -0.00000000000E+00 -0.00000000000E+00 -0.45593999997E+02  0.45594000000E+02  0.51100000000E-03 0.  1.
    9900012    2    1    2    0    0  0.20545834975E+02  0.11098761902E+02  0.21711939077E+02  0.59301919196E+02  0.49999954713E+02 0.  0.
        -12    1    1    2    0    0 -0.20545834975E+02 -0.11098761902E+02 -0.21711939077E+02  0.31886080804E+02  0.00000000000E+00 0.  1.
         11    1    3    3    0    0  0.24824709233E+02 -0.66421978192E+00  0.36499500222E+01  0.25100388679E+02  0.51100000000E-03 0. -1.
        -11    1    3    3    0    0 -0.13275550909E+02  0.97420005606E+01  0.32963459626E+01  0.16793234466E+02  0.51100000000E-03 0.  1.
         12    1    3    3    0    0  0.89966766508E+01  0.20209811238E+01  0.14765643092E+02  0.17408296050E+02  0.00000000000E+00 0. -1.
</event>
<event>
 7    1  0.6065977E-013  0.5930194E+02  0.7816164E-02  0.1266605E+00
        -11   -1    0    0    0    0  0.00000000000E+00  0.00000000000E+00  0.45593999997E+02  0.45594000000E+02  0.51100000000E-03 0.  1.
         11   -1    0    0    0    0 -0.00000000000E+00 -0.00000000000E+00 -0.45593999997E+02  0.45594000000E+02  0.51100000000E-03 0. -1.
    9900012    2    1    2    0    0  0.17003872317E+02 -0.11979670793E+02 -0.24167671940E+02  0.59301944222E+02  0.50000000355E+02 0.  0.
        -12    1    1    2    0    0 -0.17003872317E+02  0.11979670793E+02  0.24167671940E+02  0.31886055778E+02  0.00000000000E+00 0.  1.
         11    1    3    3    0    0  0.10947872828E+02 -0.68892157480E+01 -0.29735533196E+02  0.32427135979E+02  0.51100000000E-03 0. -1.
        -11    1    3    3    0    0  0.11773954271E+02  0.40921408357E+01  0.91688549484E+01  0.15473833304E+02  0.51100000000E-03 0.  1.
         12    1    3    3    0    0 -0.57179547819E+01 -0.91825958802E+01 -0.36009936922E+01  0.11400974939E+02  0.00000000000E+00 0. -1.
</event>
<event>
 7    1  0.6065977E-013  0.5930195E+02  0.7816164E-02  0.1266605E+00
        -11   -1    0    0    0    0  0.00000000000E+00  0.00000000000E+00  0.45593999997E+02  0.45594000000E+02  0.51100000000E-03 0.  1.
         11   -1    0    0    0    0 -0.00000000000E+00 -0.00000000000E+00 -0.45593999997E+02  0.45594000000E+02  0.51100000000E-03 0. -1.
    9900012    2    1    2    0    0 -0.28014503384E+02 -0.46085689645E+01 -0.14514446092E+02  0.59301945790E+02  0.50000003213E+02 0.  0.
        -12    1    1    2    0    0  0.28014503384E+02  0.46085689645E+01  0.14514446092E+02  0.31886054210E+02  0.00000000000E+00 0.  1.
         11    1    3    3    0    0 -0.31988672253E+02  0.14787478257E+02 -0.13743685476E+02  0.37826360602E+02  0.51100000000E-03 0. -1.
        -11    1    3    3    0    0  0.64257514383E+01 -0.15946660733E+02 -0.11219504184E+01  0.17229191597E+02  0.51100000000E-03 0.  1.
         12    1    3    3    0    0 -0.24515825696E+01 -0.34493864885E+01  0.35118980262E+00  0.42463935899E+01  0.00000000000E+00 0. -1.
</event>
<event>
 7    1  0.6065977E-013  0.5930194E+02  0.7816164E-02  0.1266605E+00
        -11   -1    0    0    0    0  0.00000000000E+00  0.00000000000E+00  0.45593999997E+02  0.45594000000E+02  0.51100000000E-03 0.  1.
         11   -1    0    0    0    0 -0.00000000000E+00 -0.00000000000E+00 -0.45593999997E+02  0.45594000000E+02  0.51100000000E-03 0. -1.
    9900012    2    1    2    0    0  0.12140561637E+02  0.14353271000E+02 -0.25754827653E+02  0.59301940778E+02  0.49999994073E+02 0.  0.
        -12    1    1    2    0    0 -0.12140561637E+02 -0.14353271000E+02  0.25754827653E+02  0.31886059222E+02  0.00000000000E+00 0.  1.
         11    1    3    3    0    0  0.15253554043E+02  0.17023184221E+02 -0.40161693893E+01  0.23207527417E+02  0.51100000000E-03 0. -1.
        -11    1    3    3    0    0 -0.53606182265E+01 -0.88233739531E+01  0.27993648168E+01  0.10696943457E+02  0.51100000000E-03 0.  1.
         12    1    3    3    0    0  0.22476258204E+01  0.61534607320E+01 -0.24538023081E+02  0.25397469904E+02  0.00000000000E+00 0. -1.
</event>
<event>
 7    1  0.6065977E-013  0.5930191E+02  0.7816164E-02  0.1266605E+00
        -11   -1    0    0    0    0  0.00000000000E+00  0.00000000000E+00  0.45593999997E+02  0.45594000000E+02  0.51100000000E-03 0.  1.
         11   -1    0    0    0    0 -0.00000000000E+00 -0.00000000000E+00 -0.45593999997E+02  0.45594000000E+02  0.51100000000E-03 0. -1.
    9900012    2    1    2    0    0 -0.18283177839E+02  0.89768180986E+01 -0.24532936971E+02  0.59301908181E+02  0.49999934624E+02 0.  0.
        -12    1    1    2    0    0  0.18283177839E+02 -0.89768180986E+01  0.24532936971E+02  0.31886091819E+02  0.00000000000E+00 0.  1.
         11    1    3    3    0    0 -0.32387548225E+00 -0.27773967679E+01 -0.10928122547E+02  0.11280190194E+02  0.51100000000E-03 0. -1.
        -11    1    3    3    0    0 -0.72164006629E+00  0.89975690186E+01  0.13225563300E+02  0.16012262098E+02  0.51100000000E-03 0.  1.
        -12    1    3    3    0    0 -0.17237662290E+02  0.27566458479E+01 -0.26830377723E+02  0.32009455890E+02  0.00000000000E+00 0.  1.
</event>
<event>
 7    1  0.6065977E-013  0.5930193E+02  0.7816164E-02  0.1266605E+00
        -11   -1    0    0    0    0  0.00000000000E+00  0.00000000000E+00  0.45593999997E+02  0.45594000000E+02  0.51100000000E-03 0.  1.
         11   -1    0    0    0    0 -0.00000000000E+00 -0.00000000000E+00 -0.45593999997E+02  0.45594000000E+02  0.51100000000E-03 0. -1.
    9900012    2    1    2    0    0 -0.24185929863E+02 -0.75365566841E+01 -0.19363953089E+02  0.59301928288E+02  0.49999971295E+02 0.  0.
        -12    1    1    2    0    0  0.24185929863E+02  0.75365566841E+01  0.19363953089E+02  0.31886071712E+02  0.00000000000E+00 0.  1.
         11    1    3    3    0    0  0.19513707104E+00 -0.10923001874E+02 -0.12569821142E+02  0.16653841966E+02  0.51100000000E-03 0. -1.
        -11    1    3    3    0    0 -0.57483607142E+01  0.12909086434E+02  0.87147709284E+01  0.16602270810E+02  0.51100000000E-03 0.  1.
        -12    1    3    3    0    0 -0.18632706220E+02 -0.95226412435E+01 -0.15508902875E+02  0.26045815512E+02  0.00000000000E+00 0.  1.
</event>
<event>
 7    1  0.6065977E-013  0.5930193E+02  0.7816164E-02  0.1266605E+00
        -11   -1    0    0    0    0  0.00000000000E+00  0.00000000000E+00  0.45593999997E+02  0.45594000000E+02  0.51100000000E-03 0.  1.
         11   -1    0    0    0    0 -0.00000000000E+00 -0.00000000000E+00 -0.45593999997E+02  0.45594000000E+02  0.51100000000E-03 0. -1.
    9900012    2    1    2    0    0 -0.17192122145E+02  0.25296291059E+02 -0.90138761490E+01  0.59301931436E+02  0.49999977036E+02 0.  0.
        -12    1    1    2    0    0  0.17192122145E+02 -0.25296291059E+02  0.90138761490E+01  0.31886068564E+02  0.00000000000E+00 0.  1.
         11    1    3    3    0    0  0.15189014907E+00  0.17653914641E+02 -0.23427156430E+02  0.29334543314E+02  0.51100000000E-03 0. -1.
        -11    1    3    3    0    0 -0.16616118409E+02  0.10484128175E+02  0.52363783681E+01  0.20333027154E+02  0.51100000000E-03 0.  1.
         12    1    3    3    0    0 -0.72789388565E+00 -0.28417517561E+01  0.91769019133E+01  0.96343609689E+01  0.00000000000E+00 0. -1.
</event>
<event>
 7    1  0.6065977E-013  0.5930193E+02  0.7816164E-02  0.1266605E+00
        -11   -1    0    0    0    0  0.00000000000E+00  0.00000000000E+00  0.45593999997E+02  0.45594000000E+02  0.51100000000E-03 0. -1.
         11   -1    0    0    0    0 -0.00000000000E+00 -0.00000000000E+00 -0.45593999997E+02  0.45594000000E+02  0.51100000000E-03 0.  1.
    9900012    2    1    2    0    0  0.16290780168E+02 -0.25958345258E+02 -0.88032096579E+01  0.59301926123E+02  0.49999967346E+02 0.  0.
        -12    1    1    2    0    0 -0.16290780168E+02  0.25958345258E+02  0.88032096579E+01  0.31886073877E+02  0.00000000000E+00 0.  1.
         11    1    3    3    0    0  0.24089866184E+01 -0.11717258220E+01 -0.18408539523E+02  0.18602432249E+02  0.51100000000E-03 0.  1.
        -11    1    3    3    0    0  0.19262281136E+02 -0.11310919752E+02  0.12934579172E+02  0.25812317191E+02  0.51100000000E-03 0. -1.
         12    1    3    3    0    0 -0.53804875863E+01 -0.13475699684E+02 -0.33292493066E+01  0.14887176683E+02  0.00000000000E+00 0. -1.
</event>
<event>
 7    1  0.6065977E-013  0.5930193E+02  0.7816164E-02  0.1266605E+00
        -11   -1    0    0    0    0  0.00000000000E+00  0.00000000000E+00  0.45593999997E+02  0.45594000000E+02  0.51100000000E-03 0.  1.
         11   -1    0    0    0    0 -0.00000000000E+00 -0.00000000000E+00 -0.45593999997E+02  0.45594000000E+02  0.51100000000E-03 0. -1.
    9900012    2    1    2    0    0 -0.22928551382E+02  0.89817875543E+01  0.20256620071E+02  0.59301927290E+02  0.49999969475E+02 0.  0.
        -12    1    1    2    0    0  0.22928551382E+02 -0.89817875543E+01 -0.20256620071E+02  0.31886072710E+02  0.00000000000E+00 0.  1.
         11    1    3    3    0    0 -0.18009181782E+02  0.13280414687E+02 -0.10866213630E+02  0.24875181238E+02  0.51100000000E-03 0. -1.
        -11    1    3    3    0    0 -0.57433125922E+01  0.35445562902E+01  0.16162876141E+02  0.17515367088E+02  0.51100000000E-03 0.  1.
        -12    1    3    3    0    0  0.82394299286E+00 -0.78431834230E+01  0.14959957560E+02  0.16911378964E+02  0.00000000000E+00 0.  1.
</event>
<event>
 7    1  0.6065977E-013  0.5930192E+02  0.7816164E-02  0.1266605E+00
        -11   -1    0    0    0    0  0.00000000000E+00  0.00000000000E+00  0.45593999997E+02  0.45594000000E+02  0.51100000000E-03 0.  1.
         11   -1    0    0    0    0 -0.00000000000E+00 -0.00000000000E+00 -0.45593999997E+02  0.45594000000E+02  0.51100000000E-03 0. -1.
    9900012    2    1    2    0    0 -0.42650657644E+01  0.99837804446E+01 -0.29980916377E+02  0.59301921459E+02  0.49999958840E+02 0.  0.
        -12    1    1    2    0    0  0.42650657644E+01 -0.99837804446E+01  0.29980916377E+02  0.31886078541E+02  0.00000000000E+00 0.  1.
         11    1    3    3    0    0  0.36118516876E+01  0.43334098633E+01 -0.33235773996E+02  0.33711134467E+02  0.51100000000E-03 0. -1.
        -11    1    3    3    0    0 -0.90800321606E+00  0.10698312454E+02  0.99882753536E+01  0.14664378746E+02  0.51100000000E-03 0.  1.
         12    1    3    3    0    0 -0.69689142359E+01 -0.50479418725E+01 -0.67334177344E+01  0.10926408246E+02  0.00000000000E+00 0. -1.
</event>
<event>
 7    1  0.6065977E-013  0.5930192E+02  0.7816164E-02  0.1266605E+00
        -11   -1    0    0    0    0  0.00000000000E+00  0.00000000000E+00  0.45593999997E+02  0.45594000000E+02  0.51100000000E-03 0. -1.
         11   -1    0    0    0    0 -0.00000000000E+00 -0.00000000000E+00 -0.45593999997E+02  0.45594000000E+02  0.51100000000E-03 0.  1.
    9900012    2    1    2    0    0  0.14570866870E+02  0.91433614455E+01  0.26847916945E+02  0.59301923663E+02  0.49999962860E+02 0.  0.
        -12    1    1    2    0    0 -0.14570866870E+02 -0.91433614455E+01 -0.26847916945E+02  0.31886076337E+02  0.00000000000E+00 0.  1.
         11    1    3    3    0    0 -0.94417535421E+01  0.54531047208E+01  0.11048282956E+02  0.15522487480E+02  0.51100000000E-03 0. -1.
        -11    1    3    3    0    0  0.31942721457E+02 -0.25485548912E+00  0.13033113425E+02  0.34500209437E+02  0.51100000000E-03 0.  1.
        -12    1    3    3    0    0 -0.79301010449E+01  0.39451122139E+01  0.27665205645E+01  0.92792267456E+01  0.00000000000E+00 0.  1.
</event>
<event>
 7    1  0.6065977E-013  0.5930193E+02  0.7816164E-02  0.1266605E+00
        -11   -1    0    0    0    0  0.00000000000E+00  0.00000000000E+00  0.45593999997E+02  0.45594000000E+02  0.51100000000E-03 0.  1.
         11   -1    0    0    0    0 -0.00000000000E+00 -0.00000000000E+00 -0.45593999997E+02  0.45594000000E+02  0.51100000000E-03 0. -1.
    9900012    2    1    2    0    0  0.64399835650E+00 -0.13447869365E+02 -0.28904347652E+02  0.59301933489E+02  0.49999980779E+02 0.  0.
        -12    1    1    2    0    0 -0.64399835650E+00  0.13447869365E+02  0.28904347652E+02  0.31886066511E+02  0.00000000000E+00 0.  1.
         11    1    3    3    0    0 -0.40912426814E+01  0.33802396060E+01  0.38640779821E+01  0.65647075628E+01  0.51100000000E-03 0.  1.
        -11    1    3    3    0    0  0.84398444908E+01 -0.13416593905E+02 -0.40510675055E+02  0.43501158154E+02  0.51100000000E-03 0. -1.
        -12    1    3    3    0    0 -0.37046034529E+01 -0.34115150660E+01  0.77422494209E+01  0.92360677718E+01  0.00000000000E+00 0.  1.
</event>
<event>
 7    1  0.6065977E-013  0.5930195E+02  0.7816164E-02  0.1266605E+00
        -11   -1    0    0    0    0  0.00000000000E+00  0.00000000000E+00  0.45593999997E+02  0.45594000000E+02  0.51100000000E-03 0. -1.
         11   -1    0    0    0    0 -0.00000000000E+00 -0.00000000000E+00 -0.45593999997E+02  0.45594000000E+02  0.51100000000E-03 0.  1.
    9900012    2    1    2    0    0  0.29140502068E+02 -0.62502634177E+01  0.11335139547E+02  0.59301952234E+02  0.50000014967E+02 0.  0.
        -12    1    1    2    0    0 -0.29140502068E+02  0.62502634177E+01 -0.11335139547E+02  0.31886047766E+02  0.00000000000E+00 0.  1.
         11    1    3    3    0    0  0.22156251278E+02  0.44125051225E+01  0.26952568271E+02  0.35168318254E+02  0.51100000000E-03 0. -1.
        -11    1    3    3    0    0 -0.33262157550E+01 -0.62253136289E+01 -0.73698436356E+01  0.10204549794E+02  0.51100000000E-03 0.  1.
         12    1    3    3    0    0  0.10310466545E+02 -0.44374549114E+01 -0.82475850886E+01  0.13929084186E+02  0.00000000000E+00 0. -1.
</event>
<event>
 7    1  0.6065977E-013  0.5930196E+02  0.7816164E-02  0.1266605E+00
        -11   -1    0    0    0    0  0.00000000000E+00  0.00000000000E+00  0.45593999997E+02  0.45594000000E+02  0.51100000000E-03 0. -1.
         11   -1    0    0    0    0 -0.00000000000E+00 -0.00000000000E+00 -0.45593999997E+02  0.45594000000E+02  0.51100000000E-03 0.  1.
    9900012    2    1    2    0    0  0.56077222603E+01  0.84319151575E+01  0.30235343066E+02  0.59301957403E+02  0.50000024393E+02 0.  0.
        -12    1    1    2    0    0 -0.56077222603E+01 -0.84319151575E+01 -0.30235343066E+02  0.31886042597E+02  0.00000000000E+00 0.  1.
         11    1    3    3    0    0  0.12582024641E+01  0.21969542811E+02  0.13536445794E+02  0.25835619787E+02  0.51100000000E-03 0. -1.
        -11    1    3    3    0    0 -0.39638365753E+00 -0.13263484483E+02 -0.26590677292E+01  0.13533210339E+02  0.51100000000E-03 0.  1.
        -12    1    3    3    0    0  0.47459034537E+01 -0.27414317026E+00  0.19357965001E+02  0.19933127277E+02  0.00000000000E+00 0.  1.
</event>
<event>
 7    1  0.6065977E-013  0.5930194E+02  0.7816164E-02  0.1266605E+00
        -11   -1    0    0    0    0  0.00000000000E+00  0.00000000000E+00  0.45593999997E+02  0.45594000000E+02  0.51100000000E-03 0.  1.
         11   -1    0    0    0    0 -0.00000000000E+00 -0.00000000000E+00 -0.45593999997E+02  0.45594000000E+02  0.51100000000E-03 0. -1.
    9900012    2    1    2    0    0 -0.21946410344E+01  0.31243022583E+02 -0.59814526891E+01  0.59301942143E+02  0.49999996563E+02 0.  0.
        -12    1    1    2    0    0  0.21946410344E+01 -0.31243022583E+02  0.59814526891E+01  0.31886057857E+02  0.00000000000E+00 0.  1.
         11    1    3    3    0    0  0.30681248602E+01 -0.10751612368E+01 -0.13903842043E+01  0.35358917319E+01  0.51100000000E-03 0. -1.
        -11    1    3    3    0    0  0.33474179239E+01  0.32856458862E+02  0.13534447677E+02  0.35692203208E+02  0.51100000000E-03 0.  1.
        -12    1    3    3    0    0 -0.86101838185E+01 -0.53827504178E+00 -0.18125516161E+02  0.20073847203E+02  0.00000000000E+00 0.  1.
</event>
<event>
 7    1  0.6065977E-013  0.5930194E+02  0.7816164E-02  0.1266605E+00
        -11   -1    0    0    0    0  0.00000000000E+00  0.00000000000E+00  0.45593999997E+02  0.45594000000E+02  0.51100000000E-03 0. -1.
         11   -1    0    0    0    0 -0.00000000000E+00 -0.00000000000E+00 -0.45593999997E+02  0.45594000000E+02  0.51100000000E-03 0.  1.
    9900012    2    1    2    0    0 -0.17342657502E+02 -0.13040409037E+02  0.23364524519E+02  0.59301936538E+02  0.49999986341E+02 0.  0.
        -12    1    1    2    0    0  0.17342657502E+02  0.13040409037E+02 -0.23364524519E+02  0.31886063462E+02  0.00000000000E+00 0.  1.
         11    1    3    3    0    0 -0.81632611426E+01 -0.13420487805E+02  0.22405445868E+01  0.15867210395E+02  0.51100000000E-03 0. -1.
        -11    1    3    3    0    0 -0.12118444974E+02  0.11205934463E+02 -0.30499288002E+01  0.16784866449E+02  0.51100000000E-03 0.  1.
        -12    1    3    3    0    0  0.29390486151E+01 -0.10825855695E+02  0.24173908733E+02  0.26649859694E+02  0.00000000000E+00 0.  1.
</event>
<event>
 7    1  0.6065977E-013  0.5930194E+02  0.7816164E-02  0.1266605E+00
        -11   -1    0    0    0    0  0.00000000000E+00  0.00000000000E+00  0.45593999997E+02  0.45594000000E+02  0.51100000000E-03 0. -1.
         11   -1    0    0    0    0 -0.00000000000E+00 -0.00000000000E+00 -0.45593999997E+02  0.45594000000E+02  0.51100000000E-03 0.  1.
    9900012    2    1    2    0    0 -0.18753819053E+02 -0.24096624482E+02 -0.91851772282E+01  0.59301944722E+02  0.50000001266E+02 0.  0.
        -12    1    1    2    0    0  0.18753819053E+02  0.24096624482E+02  0.91851772282E+01  0.31886055278E+02  0.00000000000E+00 0.  1.
         11    1    3    3    0    0 -0.11659116944E+02  0.10467066335E+02 -0.50722765772E+01  0.16468833459E+02  0.51100000000E-03 0.  1.
        -11    1    3    3    0    0 -0.31746117144E+01 -0.37550367983E+02 -0.31887967962E+01  0.37818999464E+02  0.51100000000E-03 0. -1.
         12    1    3    3    0    0 -0.39200903947E+01  0.29866771654E+01 -0.92410385471E+00  0.50141117984E+01  0.00000000000E+00 0. -1.
</event>
<event>
 7    1  0.6065977E-013  0.5930177E+02  0.7816164E-02  0.1266605E+00
        -11   -1    0    0    0    0  0.00000000000E+00  0.00000000000E+00  0.45593999997E+02  0.45594000000E+02  0.51100000000E-03 0.  1.
         11   -1    0    0    0    0 -0.00000000000E+00 -0.00000000000E+00 -0.45593999997E+02  0.45594000000E+02  0.51100000000E-03 0. -1.
    9900012    2    1    2    0    0 -0.22345291411E+02 -0.63544307543E+01 -0.21841266790E+02  0.59301768278E+02  0.49999679474E+02 0.  0.
        -12    1    1    2    0    0  0.22345291411E+02  0.63544307543E+01  0.21841266790E+02  0.31886231722E+02  0.00000000000E+00 0.  1.
         11    1    3    3    0    0 -0.21886517824E+02 -0.39842414807E+01 -0.25721742569E+02  0.34007379841E+02  0.51100000000E-03 0. -1.
        -11    1    3    3    0    0 -0.32129952127E+01  0.78392473771E+01  0.99766601567E+01  0.13088578449E+02  0.51100000000E-03 0.  1.
        -12    1    3    3    0    0  0.27542216255E+01 -0.10209436651E+02 -0.60961843779E+01  0.12205809988E+02  0.00000000000E+00 0.  1.
</event>
<event>
 7    1  0.6065977E-013  0.5930196E+02  0.7816164E-02  0.1266605E+00
        -11   -1    0    0    0    0  0.00000000000E+00  0.00000000000E+00  0.45593999997E+02  0.45594000000E+02  0.51100000000E-03 0.  1.
         11   -1    0    0    0    0 -0.00000000000E+00 -0.00000000000E+00 -0.45593999997E+02  0.45594000000E+02  0.51100000000E-03 0. -1.
    9900012    2    1    2    0    0 -0.27113110212E+01  0.31295384771E+02 -0.54742448153E+01  0.59301958042E+02  0.50000025559E+02 0.  0.
        -12    1    1    2    0    0  0.27113110212E+01 -0.31295384771E+02  0.54742448153E+01  0.31886041958E+02  0.00000000000E+00 0.  1.
         11    1    3    3    0    0  0.43839076687E+01  0.19855743050E+02  0.47109721284E+01  0.20872528289E+02  0.51100000000E-03 0. -1.
        -11    1    3    3    0    0 -0.61501230255E+01 -0.89087220200E+01 -0.14008048816E+02  0.17703524314E+02  0.51100000000E-03 0.  1.
        -12    1    3    3    0    0 -0.94509566439E+00  0.20348363741E+02  0.38228318721E+01  0.20725905439E+02  0.00000000000E+00 0.  1.
</event>
<event>
 7    1  0.6065977E-013  0.5930195E+02  0.7816164E-02  0.1266605E+00
        -11   -1    0    0    0    0  0.00000000000E+00  0.00000000000E+00  0.45593999997E+02  0.45594000000E+02  0.51100000000E-03 0.  1.
         11   -1    0    0    0    0 -0.00000000000E+00 -0.00000000000E+00 -0.45593999997E+02  0.45594000000E+02  0.51100000000E-03 0. -1.
    9900012    2    1    2    0    0  0.27224107965E+02  0.91592932527E+01 -0.13844683229E+02  0.59301953505E+02  0.50000017284E+02 0.  0.
        -12    1    1    2    0    0 -0.27224107965E+02 -0.91592932527E+01  0.13844683229E+02  0.31886046495E+02  0.00000000000E+00 0.  1.
         11    1    3    3    0    0  0.98488425029E+01  0.55781376194E+01 -0.17992815397E+00  0.11320233759E+02  0.51100000000E-03 0. -1.
        -11    1    3    3    0    0 -0.25508684725E+01 -0.15248991625E+02  0.32075684177E+01  0.15790097243E+02  0.51100000000E-03 0.  1.
        -12    1    3    3    0    0  0.19926133934E+02  0.18830147258E+02 -0.16872323493E+02  0.32191622503E+02  0.00000000000E+00 0.  1.
</event>
<event>
 7    1  0.6065977E-013  0.5930194E+02  0.7816164E-02  0.1266605E+00
        -11   -1    0    0    0    0  0.00000000000E+00  0.00000000000E+00  0.45593999997E+02  0.45594000000E+02  0.51100000000E-03 0.  1.
         11   -1    0    0    0    0 -0.00000000000E+00 -0.00000000000E+00 -0.45593999997E+02  0.45594000000E+02  0.51100000000E-03 0. -1.
    9900012    2    1    2    0    0 -0.12070837219E+02 -0.78028207976E+01 -0.28462814280E+02  0.59301938464E+02  0.49999989852E+02 0.  0.
        -12    1    1    2    0    0  0.12070837219E+02  0.78028207976E+01  0.28462814280E+02  0.31886061536E+02  0.00000000000E+00 0.  1.
         11    1    3    3    0    0 -0.50697976038E+01 -0.24957090205E+02 -0.17935768084E+02  0.31148851925E+02  0.51100000000E-03 0. -1.
        -11    1    3    3    0    0  0.12964700953E+01  0.15752394482E+02 -0.16022950369E+01  0.15886664731E+02  0.51100000000E-03 0.  1.
         12    1    3    3    0    0 -0.82975097109E+01  0.14018749247E+01 -0.89247511589E+01  0.12266421807E+02  0.00000000000E+00 0. -1.
</event>
<event>
 7    1  0.6065977E-013  0.5930197E+02  0.7816164E-02  0.1266605E+00
        -11   -1    0    0    0    0  0.00000000000E+00  0.00000000000E+00  0.45593999997E+02  0.45594000000E+02  0.51100000000E-03 0. -1.
         11   -1    0    0    0    0 -0.00000000000E+00 -0.00000000000E+00 -0.45593999997E+02  0.45594000000E+02  0.51100000000E-03 0.  1.
    9900012    2    1    2    0    0 -0.26544722044E+02  0.98767382018E+01 -0.14647413744E+02  0.59301969276E+02  0.50000046047E+02 0.  0.
        -12    1    1    2    0    0  0.26544722044E+02 -0.98767382018E+01  0.14647413744E+02  0.31886030724E+02  0.00000000000E+00 0.  1.
         11    1    3    3    0    0  0.88138324678E+01  0.16766993935E+01  0.69513979769E+01  0.11349753201E+02  0.51100000000E-03 0. -1.
        -11    1    3    3    0    0 -0.27284458552E+02  0.82073512542E+00 -0.45164290376E+01  0.27667913115E+02  0.51100000000E-03 0.  1.
        -12    1    3    3    0    0 -0.80740959599E+01  0.73793036829E+01 -0.17082382684E+02  0.20284302960E+02  0.00000000000E+00 0.  1.
</event>
<event>
 7    1  0.6540803E-013  0.5930196E+02  0.7816164E-02  0.1266605E+00
        -11   -1    0    0    0    0  0.00000000000E+00  0.00000000000E+00  0.45593999997E+02  0.45594000000E+02  0.51100000000E-03 0. -1.
         11   -1    0    0    0    0 -0.00000000000E+00 -0.00000000000E+00 -0.45593999997E+02  0.45594000000E+02  0.51100000000E-03 0.  1.
    9900012    2    1    2    0    0 -0.87075577920E+01 -0.73430563875E+01  0.29782165383E+02  0.59301962073E+02  0.50000032909E+02 0.  0.
        -12    1    1    2    0    0  0.87075577920E+01  0.73430563875E+01 -0.29782165383E+02  0.31886037927E+02  0.00000000000E+00 0.  1.
         11    1    3    3    0    0  0.10778818288E+02 -0.18099613284E+02  0.25797536328E+02  0.33306032570E+02  0.51100000000E-03 0. -1.
        -11    1    3    3    0    0 -0.75144612064E+01  0.41757404704E+01 -0.47099483161E+01  0.98024256743E+01  0.51100000000E-03 0.  1.
         12    1    3    3    0    0 -0.11971914873E+02  0.65808164262E+01  0.86945773714E+01  0.16193503828E+02  0.00000000000E+00 0. -1.
</event>
<event>
 7    1  0.6065977E-013  0.5930193E+02  0.7816164E-02  0.1266605E+00
        -11   -1    0    0    0    0  0.00000000000E+00  0.00000000000E+00  0.45593999997E+02  0.45594000000E+02  0.51100000000E-03 0.  1.
         11   -1    0    0    0    0 -0.00000000000E+00 -0.00000000000E+00 -0.45593999997E+02  0.45594000000E+02  0.51100000000E-03 0. -1.
    9900012    2    1    2    0    0 -0.20390189687E+02 -0.17262518713E+02 -0.17405952103E+02  0.59301928489E+02  0.49999971661E+02 0.  0.
        -12    1    1    2    0    0  0.20390189687E+02  0.17262518713E+02  0.17405952103E+02  0.31886071511E+02  0.00000000000E+00 0.  1.
         11    1    3    3    0    0 -0.23679721008E+02  0.74732194061E+01  0.10056301785E+01  0.24851347803E+02  0.51100000000E-03 0. -1.
        -11    1    3    3    0    0  0.78722314395E+01 -0.87992747380E+01 -0.39555198019E+01  0.12451722809E+02  0.51100000000E-03 0.  1.
         12    1    3    3    0    0 -0.45827001181E+01 -0.15936463381E+02 -0.14456062480E+02  0.21998857877E+02  0.00000000000E+00 0. -1.
</event>
<event>
 7    1  0.6065977E-013  0.5930194E+02  0.7816164E-02  0.1266605E+00
        -11   -1    0    0    0    0  0.00000000000E+00  0.00000000000E+00  0.45593999997E+02  0.45594000000E+02  0.51100000000E-03 0.  1.
         11   -1    0    0    0    0 -0.00000000000E+00 -0.00000000000E+00 -0.45593999997E+02  0.45594000000E+02  0.51100000000E-03 0. -1.
    9900012    2    1    2    0    0  0.19139154240E+02  0.50372595808E+01 -0.25000791939E+02  0.59301940245E+02  0.49999993102E+02 0.  0.
        -12    1    1    2    0    0 -0.19139154240E+02 -0.50372595808E+01  0.25000791939E+02  0.31886059755E+02  0.00000000000E+00 0.  1.
         11    1    3    3    0    0  0.11272067283E+02 -0.13694607939E+02  0.34512520845E+01  0.18069668748E+02  0.51100000000E-03 0.  1.
        -11    1    3    3    0    0  0.66812595084E+00  0.21595159306E+02 -0.17429875073E+02  0.27759644145E+02  0.51100000000E-03 0. -1.
        -12    1    3    3    0    0  0.71989610055E+01 -0.28632917860E+01 -0.11022168951E+02  0.13472627353E+02  0.00000000000E+00 0.  1.
</event>
<event>
 7    1  0.6065977E-013  0.5930195E+02  0.7816164E-02  0.1266605E+00
        -11   -1    0    0    0    0  0.00000000000E+00  0.00000000000E+00  0.45593999997E+02  0.45594000000E+02  0.51100000000E-03 0.  1.
         11   -1    0    0    0    0 -0.00000000000E+00 -0.00000000000E+00 -0.45593999997E+02  0.45594000000E+02  0.51100000000E-03 0. -1.
    9900012    2    1    2    0    0 -0.18231094907E+02  0.18604613917E+02 -0.18390634287E+02  0.59301954306E+02  0.50000018746E+02 0.  0.
        -12    1    1    2    0    0  0.18231094907E+02 -0.18604613917E+02  0.18390634287E+02  0.31886045694E+02  0.00000000000E+00 0.  1.
         11    1    3    3    0    0  0.37717517643E+01 -0.48754603431E+01 -0.10311075744E+02  0.12013097360E+02  0.51100000000E-03 0. -1.
        -11    1    3    3    0    0 -0.27384656985E+02  0.28213204748E+02 -0.79880720199E+01  0.40121236960E+02  0.51100000000E-03 0.  1.
        -12    1    3    3    0    0  0.53818103142E+01 -0.47331304884E+01 -0.91486523347E-01  0.71676199859E+01  0.00000000000E+00 0.  1.
</event>
<event>
 7    1  0.6065977E-013  0.5930188E+02  0.7816164E-02  0.1266605E+00
        -11   -1    0    0    0    0  0.00000000000E+00  0.00000000000E+00  0.45593999997E+02  0.45594000000E+02  0.51100000000E-03 0. -1.
         11   -1    0    0    0    0 -0.00000000000E+00 -0.00000000000E+00 -0.45593999997E+02  0.45594000000E+02  0.51100000000E-03 0.  1.
    9900012    2    1    2    0    0  0.59398250731E+01  0.15082109663E+02  0.27458574705E+02  0.59301876394E+02  0.49999876653E+02 0.  0.
        -12    1    1    2    0    0 -0.59398250731E+01 -0.15082109663E+02 -0.27458574705E+02  0.31886123606E+02  0.00000000000E+00 0.  1.
         11    1    3    3    0    0 -0.88989348843E+01  0.26545864712E+01 -0.47757755794E+01  0.10442504683E+02  0.51100000000E-03 0. -1.
        -11    1    3    3    0    0  0.23569950225E+02  0.33598663787E+01  0.17927793856E+02  0.29803306000E+02  0.51100000000E-03 0.  1.
        -12    1    3    3    0    0 -0.87311902679E+01  0.90676568130E+01  0.14306556428E+02  0.19056065712E+02  0.00000000000E+00 0.  1.
</event>
<event>
 7    1  0.6065977E-013  0.5930195E+02  0.7816164E-02  0.1266605E+00
        -11   -1    0    0    0    0  0.00000000000E+00  0.00000000000E+00  0.45593999997E+02  0.45594000000E+02  0.51100000000E-03 0. -1.
         11   -1    0    0    0    0 -0.00000000000E+00 -0.00000000000E+00 -0.45593999997E+02  0.45594000000E+02  0.51100000000E-03 0.  1.
    9900012    2    1    2    0    0  0.21678048157E+02 -0.60013953703E+01  0.22600121589E+02  0.59301952673E+02  0.50000015767E+02 0.  0.
        -12    1    1    2    0    0 -0.21678048157E+02  0.60013953703E+01 -0.22600121589E+02  0.31886047327E+02  0.00000000000E+00 0.  1.
         11    1    3    3    0    0  0.98975626675E+01  0.17811182320E+02 -0.19301748219E-01  0.20376465228E+02  0.51100000000E-03 0.  1.
        -11    1    3    3    0    0  0.86217222453E+01 -0.24348385299E+02  0.13263429026E+02  0.29036124241E+02  0.51100000000E-03 0. -1.
        -12    1    3    3    0    0  0.31587632441E+01  0.53580760878E+00  0.93559943115E+01  0.98893632041E+01  0.00000000000E+00 0.  1.
</event>
<event>
 7    1  0.6065977E-013  0.5930199E+02  0.7816164E-02  0.1266605E+00
        -11   -1    0    0    0    0  0.00000000000E+00  0.00000000000E+00  0.45593999997E+02  0.45594000000E+02  0.51100000000E-03 0. -1.
         11   -1    0    0    0    0 -0.00000000000E+00 -0.00000000000E+00 -0.45593999997E+02  0.45594000000E+02  0.51100000000E-03 0.  1.
    9900012    2    1    2    0    0 -0.67873150150E+01  0.30166801923E+02  0.77855102361E+01  0.59301988129E+02  0.50000080430E+02 0.  0.
        -12    1    1    2    0    0  0.67873150150E+01 -0.30166801923E+02 -0.77855102361E+01  0.31886011871E+02  0.00000000000E+00 0.  1.
         11    1    3    3    0    0 -0.15817712979E+02  0.47812305286E+01  0.67608993055E+01  0.17854130304E+02  0.51100000000E-03 0.  1.
        -11    1    3    3    0    0  0.19627313597E+02  0.13992351848E+02  0.64791808591E+01  0.24959910539E+02  0.51100000000E-03 0. -1.
         12    1    3    3    0    0 -0.10596915633E+02  0.11393219547E+02 -0.54545699285E+01  0.16487947286E+02  0.00000000000E+00 0. -1.
</event>
<event>
 7    1  0.6065977E-013  0.5930195E+02  0.7816164E-02  0.1266605E+00
        -11   -1    0    0    0    0  0.00000000000E+00  0.00000000000E+00  0.45593999997E+02  0.45594000000E+02  0.51100000000E-03 0.  1.
         11   -1    0    0    0    0 -0.00000000000E+00 -0.00000000000E+00 -0.45593999997E+02  0.45594000000E+02  0.51100000000E-03 0. -1.
    9900012    2    1    2    0    0 -0.12609942483E+01 -0.15017124936E+02  0.28100108645E+02  0.59301948917E+02  0.50000008917E+02 0.  0.
        -12    1    1    2    0    0  0.12609942483E+01  0.15017124936E+02 -0.28100108645E+02  0.31886051083E+02  0.00000000000E+00 0.  1.
         11    1    3    3    0    0  0.69895919535E+01  0.48975454611E+01 -0.53929990570E+01  0.10095780619E+02  0.51100000000E-03 0.  1.
        -11    1    3    3    0    0 -0.18130865917E+02 -0.12404017963E+02  0.13845502518E+02  0.25967015631E+02  0.51100000000E-03 0. -1.
         12    1    3    3    0    0  0.98802797152E+01 -0.75106524336E+01  0.19647605184E+02  0.23239152667E+02  0.00000000000E+00 0. -1.
</event>
<event>
 7    1  0.6065977E-013  0.5930222E+02  0.7816164E-02  0.1266604E+00
        -11   -1    0    0    0    0  0.00000000000E+00  0.00000000000E+00  0.45593999997E+02  0.45594000000E+02  0.51100000000E-03 0.  1.
         11   -1    0    0    0    0 -0.00000000000E+00 -0.00000000000E+00 -0.45593999997E+02  0.45594000000E+02  0.51100000000E-03 0. -1.
    9900012    2    1    2    0    0  0.52513691683E+01 -0.18369529078E+02 -0.25528153299E+02  0.59302218097E+02  0.50000499835E+02 0.  0.
        -12    1    1    2    0    0 -0.52513691683E+01  0.18369529078E+02  0.25528153299E+02  0.31885781903E+02  0.00000000000E+00 0.  1.
         11    1    3    3    0    0  0.13210500750E+01 -0.22099497290E+02  0.34407809735E+01  0.22404730030E+02  0.51100000000E-03 0.  1.
        -11    1    3    3    0    0 -0.21280720405E+01 -0.47615023514E+00 -0.29427240385E+02  0.29507929216E+02  0.51100000000E-03 0. -1.
         12    1    3    3    0    0  0.60583911338E+01  0.42061184470E+01  0.45830611271E+00  0.73895588511E+01  0.00000000000E+00 0. -1.
</event>
<event>
 7    1  0.6065977E-013  0.5930183E+02  0.7816164E-02  0.1266605E+00
        -11   -1    0    0    0    0  0.00000000000E+00  0.00000000000E+00  0.45593999997E+02  0.45594000000E+02  0.51100000000E-03 0. -1.
         11   -1    0    0    0    0 -0.00000000000E+00 -0.00000000000E+00 -0.45593999997E+02  0.45594000000E+02  0.51100000000E-03 0.  1.
    9900012    2    1    2    0    0  0.62695605605E+01  0.11246089396E+02  0.29170976032E+02  0.59301831228E+02  0.49999794279E+02 0.  0.
        -12    1    1    2    0    0 -0.62695605605E+01 -0.11246089396E+02 -0.29170976032E+02  0.31886168772E+02  0.00000000000E+00 0.  1.
         11    1    3    3    0    0 -0.19621773210E+01 -0.30309980288E+00  0.54425110825E+01  0.57933527835E+01  0.51100000000E-03 0. -1.
        -11    1    3    3    0    0  0.23390278459E+02  0.85174711570E+01 -0.34938751391E+00  0.24895270900E+02  0.51100000000E-03 0.  1.
        -12    1    3    3    0    0 -0.15158540577E+02  0.30317180422E+01  0.24077852463E+02  0.28613207544E+02  0.00000000000E+00 0.  1.
</event>
<event>
 7    1  0.6065977E-013  0.5930194E+02  0.7816164E-02  0.1266605E+00
        -11   -1    0    0    0    0  0.00000000000E+00  0.00000000000E+00  0.45593999997E+02  0.45594000000E+02  0.51100000000E-03 0. -1.
         11   -1    0    0    0    0 -0.00000000000E+00 -0.00000000000E+00 -0.45593999997E+02  0.45594000000E+02  0.51100000000E-03 0.  1.
    9900012    2    1    2    0    0 -0.31470097736E+02  0.16732371077E+01  0.48532678525E+01  0.59301937483E+02  0.49999988065E+02 0.  0.
        -12    1    1    2    0    0  0.31470097736E+02 -0.16732371077E+01 -0.48532678525E+01  0.31886062517E+02  0.00000000000E+00 0.  1.
         11    1    3    3    0    0 -0.31613335800E+02 -0.29718030361E+00  0.45703822863E+01  0.31943382899E+02  0.51100000000E-03 0. -1.
        -11    1    3    3    0    0  0.35544892019E+01 -0.63962672470E+01 -0.10808576919E+02  0.13052661164E+02  0.51100000000E-03 0.  1.
        -12    1    3    3    0    0 -0.34112511384E+01  0.83666846583E+01  0.11091462485E+02  0.14305893421E+02  0.00000000000E+00 0.  1.
</event>
<event>
 7    1  0.6065977E-013  0.5930196E+02  0.7816164E-02  0.1266605E+00
        -11   -1    0    0    0    0  0.00000000000E+00  0.00000000000E+00  0.45593999997E+02  0.45594000000E+02  0.51100000000E-03 0. -1.
         11   -1    0    0    0    0 -0.00000000000E+00 -0.00000000000E+00 -0.45593999997E+02  0.45594000000E+02  0.51100000000E-03 0.  1.
    9900012    2    1    2    0    0  0.12796860501E+02 -0.23709396143E+02  0.17053576053E+02  0.59301959789E+02  0.50000028745E+02 0.  0.
        -12    1    1    2    0    0 -0.12796860501E+02  0.23709396143E+02 -0.17053576053E+02  0.31886040211E+02  0.00000000000E+00 0.  1.
         11    1    3    3    0    0  0.15088429468E+02 -0.39052090107E+01  0.29593279828E+02  0.33446577889E+02  0.51100000000E-03 0. -1.
        -11    1    3    3    0    0  0.27752923408E+01 -0.16021766057E+02 -0.95963367282E+01  0.18880914015E+02  0.51100000000E-03 0.  1.
         12    1    3    3    0    0 -0.50668613080E+01 -0.37824210750E+01 -0.29433670472E+01  0.69744678849E+01  0.00000000000E+00 0. -1.
</event>
<event>
 7    1  0.6065977E-013  0.5930200E+02  0.7816164E-02  0.1266605E+00
        -11   -1    0    0    0    0  0.00000000000E+00  0.00000000000E+00  0.45593999997E+02  0.45594000000E+02  0.51100000000E-03 0.  1.
         11   -1    0    0    0    0 -0.00000000000E+00 -0.00000000000E+00 -0.45593999997E+02  0.45594000000E+02  0.51100000000E-03 0. -1.
    9900012    2    1    2    0    0  0.19482816163E+02 -0.22849586718E+02  0.10725348101E+02  0.59302002592E+02  0.50000106806E+02 0.  0.
        -12    1    1    2    0    0 -0.19482816163E+02  0.22849586718E+02 -0.10725348101E+02  0.31885997408E+02  0.00000000000E+00 0.  1.
         11    1    3    3    0    0  0.12131514097E+01  0.13492466921E+01 -0.10441605235E+02  0.10598081105E+02  0.51100000000E-03 0. -1.
        -11    1    3    3    0    0  0.12496020614E+02 -0.11002004949E+02  0.28143042759E+02  0.32699013748E+02  0.51100000000E-03 0.  1.
        -12    1    3    3    0    0  0.57736441389E+01 -0.13196828461E+02 -0.69760894233E+01  0.16004907738E+02  0.00000000000E+00 0.  1.
</event>
<event>
 7    1  0.6065977E-013  0.5930194E+02  0.7816164E-02  0.1266605E+00
        -11   -1    0    0    0    0  0.00000000000E+00  0.00000000000E+00  0.45593999997E+02  0.45594000000E+02  0.51100000000E-03 0.  1.
         11   -1    0    0    0    0 -0.00000000000E+00 -0.00000000000E+00 -0.45593999997E+02  0.45594000000E+02  0.51100000000E-03 0. -1.
    9900012    2    1    2    0    0 -0.29499692916E+02  0.10609138308E+02 -0.58253914852E+01  0.59301939037E+02  0.49999990899E+02 0.  0.
        -12    1    1    2    0    0  0.29499692916E+02 -0.10609138308E+02  0.58253914852E+01  0.31886060963E+02  0.00000000000E+00 0.  1.
         11    1    3    3    0    0 -0.22232545524E+02  0.11583988009E+02  0.18644848887E+01  0.25138638842E+02  0.51100000000E-03 0. -1.
        -11    1    3    3    0    0  0.15354587005E+01 -0.32047775606E+01  0.11981382289E+02  0.12497269880E+02  0.51100000000E-03 0.  1.
        -12    1    3    3    0    0 -0.88026060928E+01  0.22299278595E+01 -0.19671258663E+02  0.21666030316E+02  0.00000000000E+00 0.  1.
</event>
<event>
 7    1  0.6065977E-013  0.5930191E+02  0.7816164E-02  0.1266605E+00
        -11   -1    0    0    0    0  0.00000000000E+00  0.00000000000E+00  0.45593999997E+02  0.45594000000E+02  0.51100000000E-03 0. -1.
         11   -1    0    0    0    0 -0.00000000000E+00 -0.00000000000E+00 -0.45593999997E+02  0.45594000000E+02  0.51100000000E-03 0.  1.
    9900012    2    1    2    0    0 -0.22729997595E+02  0.19119142826E+02  0.11598645432E+02  0.59301906026E+02  0.49999930694E+02 0.  0.
        -12    1    1    2    0    0  0.22729997595E+02 -0.19119142826E+02 -0.11598645432E+02  0.31886093974E+02  0.00000000000E+00 0.  1.
         11    1    3    3    0    0 -0.10412018095E+02 -0.44445631135E+01  0.17887116115E+02  0.21168684070E+02  0.51100000000E-03 0. -1.
        -11    1    3    3    0    0 -0.33116216876E+01  0.63002792202E+01 -0.15151063662E+02  0.16739626244E+02  0.51100000000E-03 0.  1.
         12    1    3    3    0    0 -0.90063578121E+01  0.17263426719E+02  0.88625929789E+01  0.21393595711E+02  0.00000000000E+00 0. -1.
</event>
<event>
 7    1  0.6065977E-013  0.5930193E+02  0.7816164E-02  0.1266605E+00
        -11   -1    0    0    0    0  0.00000000000E+00  0.00000000000E+00  0.45593999997E+02  0.45594000000E+02  0.51100000000E-03 0.  1.
         11   -1    0    0    0    0 -0.00000000000E+00 -0.00000000000E+00 -0.45593999997E+02  0.45594000000E+02  0.51100000000E-03 0. -1.
    9900012    2    1    2    0    0 -0.14104607219E+01  0.30549653952E+02  0.90249955285E+01  0.59301932504E+02  0.49999978984E+02 0.  0.
        -12    1    1    2    0    0  0.14104607219E+01 -0.30549653952E+02 -0.90249955285E+01  0.31886067496E+02  0.00000000000E+00 0.  1.
         11    1    3    3    0    0  0.65669239350E+01 -0.10221339772E+01 -0.92434832089E+01  0.11384692790E+02  0.51100000000E-03 0. -1.
        -11    1    3    3    0    0 -0.10002390755E+02  0.10014534297E+02  0.21787068864E+02  0.25981052480E+02  0.51100000000E-03 0.  1.
        -12    1    3    3    0    0  0.20250060982E+01  0.21557253633E+02 -0.35185901269E+01  0.21936187234E+02  0.00000000000E+00 0.  1.
</event>
<event>
 7    1  0.6065977E-013  0.5930201E+02  0.7816164E-02  0.1266605E+00
        -11   -1    0    0    0    0  0.00000000000E+00  0.00000000000E+00  0.45593999997E+02  0.45594000000E+02  0.51100000000E-03 0. -1.
         11   -1    0    0    0    0 -0.00000000000E+00 -0.00000000000E+00 -0.45593999997E+02  0.45594000000E+02  0.51100000000E-03 0.  1.
    9900012    2    1    2    0    0 -0.19443576559E+02 -0.70993786199E+01  0.24254124614E+02  0.59302009236E+02  0.50000118924E+02 0.  0.
        -12    1    1    2    0    0  0.19443576559E+02  0.70993786199E+01 -0.24254124614E+02  0.31885990764E+02  0.00000000000E+00 0.  1.
         11    1    3    3    0    0  0.49839154711E+01 -0.83945282141E+01 -0.30835071055E+01  0.10237945775E+02  0.51100000000E-03 0. -1.
        -11    1    3    3    0    0 -0.73440493242E+01  0.15025933420E+02  0.43052247191E+01  0.17269878278E+02  0.51100000000E-03 0.  1.
         12    1    3    3    0    0 -0.17083442706E+02 -0.13730783825E+02  0.23032407001E+02  0.31794185182E+02  0.00000000000E+00 0. -1.
</event>
<event>
 7    1  0.6065977E-013  0.5930195E+02  0.7816164E-02  0.1266605E+00
        -11   -1    0    0    0    0  0.00000000000E+00  0.00000000000E+00  0.45593999997E+02  0.45594000000E+02  0.51100000000E-03 0.  1.
         11   -1    0    0    0    0 -0.00000000000E+00 -0.00000000000E+00 -0.45593999997E+02  0.45594000000E+02  0.51100000000E-03 0. -1.
    9900012    2    1    2    0    0  0.22848841556E+02  0.20472560115E+01 -0.22146318869E+02  0.59301948864E+02  0.50000008820E+02 0.  0.
        -12    1    1    2    0    0 -0.22848841556E+02 -0.20472560115E+01  0.22146318869E+02  0.31886051136E+02  0.00000000000E+00 0.  1.
         11    1    3    3    0    0  0.95427806660E+01 -0.10138090198E+02 -0.15254941211E+02  0.20653299187E+02  0.51100000000E-03 0. -1.
        -11    1    3    3    0    0  0.18263013757E+02 -0.31194259380E+00  0.67712979887E+01  0.19480386454E+02  0.51100000000E-03 0.  1.
        -12    1    3    3    0    0 -0.49569528672E+01  0.12497288803E+02 -0.13662675647E+02  0.19168263223E+02  0.00000000000E+00 0.  1.
</event>
<event>
 7    1  0.6065977E-013  0.5930194E+02  0.7816164E-02  0.1266605E+00
        -11   -1    0    0    0    0  0.00000000000E+00  0.00000000000E+00  0.45593999997E+02  0.45594000000E+02  0.51100000000E-03 0.  1.
         11   -1    0    0    0    0 -0.00000000000E+00 -0.00000000000E+00 -0.45593999997E+02  0.45594000000E+02  0.51100000000E-03 0. -1.
    9900012    2    1    2    0    0 -0.18552407256E+02  0.25901288054E+02 -0.12854161297E+01  0.59301939841E+02  0.49999992364E+02 0.  0.
        -12    1    1    2    0    0  0.18552407256E+02 -0.25901288054E+02  0.12854161297E+01  0.31886060159E+02  0.00000000000E+00 0.  1.
         11    1    3    3    0    0  0.81830193393E+01  0.22425408674E+02 -0.14856117019E+02  0.28116987265E+02  0.51100000000E-03 0. -1.
        -11    1    3    3    0    0 -0.17913827085E+02  0.60039040108E+01  0.87950632165E+01  0.20839990438E+02  0.51100000000E-03 0.  1.
         12    1    3    3    0    0 -0.88215995107E+01 -0.25280246307E+01  0.47756376730E+01  0.10344962138E+02  0.00000000000E+00 0. -1.
</event>
<event>
 7    1  0.6065977E-013  0.5930196E+02  0.7816164E-02  0.1266605E+00
        -11   -1    0    0    0    0  0.00000000000E+00  0.00000000000E+00  0.45593999997E+02  0.45594000000E+02  0.51100000000E-03 0.  1.
         11   -1    0    0    0    0 -0.00000000000E+00 -0.00000000000E+00 -0.45593999997E+02  0.45594000000E+02  0.51100000000E-03 0. -1.
    9900012    2    1    2    0    0 -0.22396766987E+02  0.21962500667E+02 -0.57230372172E+01  0.59301956627E+02  0.50000022978E+02 0.  0.
        -12    1    1    2    0    0  0.22396766987E+02 -0.21962500667E+02  0.57230372172E+01  0.31886043373E+02  0.00000000000E+00 0.  1.
         11    1    3    3    0    0 -0.19261774615E+02  0.21135254052E+01 -0.17230696315E+02  0.25930288211E+02  0.51100000000E-03 0. -1.
        -11    1    3    3    0    0 -0.85039723649E+00  0.10011377397E+02  0.18524559132E+02  0.21073920949E+02  0.51100000000E-03 0.  1.
        -12    1    3    3    0    0 -0.22845951356E+01  0.98375978648E+01 -0.70169000338E+01  0.12297747467E+02  0.00000000000E+00 0.  1.
</event>
<event>
 7    1  0.6065977E-013  0.5930194E+02  0.7816164E-02  0.1266605E+00
        -11   -1    0    0    0    0  0.00000000000E+00  0.00000000000E+00  0.45593999997E+02  0.45594000000E+02  0.51100000000E-03 0.  1.
         11   -1    0    0    0    0 -0.00000000000E+00 -0.00000000000E+00 -0.45593999997E+02  0.45594000000E+02  0.51100000000E-03 0. -1.
    9900012    2    1    2    0    0 -0.92180089648E+01 -0.92358269159E+01 -0.29093792984E+02  0.59301937554E+02  0.49999988193E+02 0.  0.
        -12    1    1    2    0    0  0.92180089648E+01  0.92358269159E+01  0.29093792984E+02  0.31886062446E+02  0.00000000000E+00 0.  1.
         11    1    3    3    0    0 -0.96198481821E+00  0.14078893449E+02 -0.12392126932E+02  0.18780454353E+02  0.51100000000E-03 0. -1.
        -11    1    3    3    0    0 -0.66688544065E+01 -0.19780197730E+02  0.24175110819E+01  0.21013667015E+02  0.51100000000E-03 0.  1.
        -12    1    3    3    0    0 -0.15871697401E+01 -0.35345226353E+01 -0.19119177134E+02  0.19507816186E+02  0.00000000000E+00 0.  1.
</event>
<event>
 7    1  0.6065977E-013  0.5930194E+02  0.7816164E-02  0.1266605E+00
        -11   -1    0    0    0    0  0.00000000000E+00  0.00000000000E+00  0.45593999997E+02  0.45594000000E+02  0.51100000000E-03 0.  1.
         11   -1    0    0    0    0 -0.00000000000E+00 -0.00000000000E+00 -0.45593999997E+02  0.45594000000E+02  0.51100000000E-03 0. -1.
    9900012    2    1    2    0    0 -0.30740909454E+02  0.58131644762E+01  0.61582697733E+01  0.59301942202E+02  0.49999996670E+02 0.  0.
        -12    1    1    2    0    0  0.30740909454E+02 -0.58131644762E+01 -0.61582697733E+01  0.31886057798E+02  0.00000000000E+00 0.  1.
         11    1    3    3    0    0 -0.30245391828E+01  0.10910557139E+02  0.85255989761E+01  0.14173000124E+02  0.51100000000E-03 0. -1.
        -11    1    3    3    0    0 -0.10130158531E+02 -0.18270768581E+02 -0.81226728349E+01  0.22414703002E+02  0.51100000000E-03 0.  1.
        -12    1    3    3    0    0 -0.17586211740E+02  0.13173375918E+02  0.57553436322E+01  0.22714239076E+02  0.00000000000E+00 0.  1.
</event>
<event>
 7    1  0.6065977E-013  0.5930198E+02  0.7816164E-02  0.1266605E+00
        -11   -1    0    0    0    0  0.00000000000E+00  0.00000000000E+00  0.45593999997E+02  0.45594000000E+02  0.51100000000E-03 0.  1.
         11   -1    0    0    0    0 -0.00000000000E+00 -0.00000000000E+00 -0.45593999997E+02  0.45594000000E+02  0.51100000000E-03 0. -1.
    9900012    2    1    2    0    0 -0.27317936637E+01  0.31664425140E+02  0.25728513630E+01  0.59301982998E+02  0.50000071073E+02 0.  0.
        -12    1    1    2    0    0  0.27317936637E+01 -0.31664425140E+02 -0.25728513630E+01  0.31886017002E+02  0.00000000000E+00 0.  1.
         11    1    3    3    0    0 -0.13524501667E+01  0.79314962572E+01  0.21543917881E+01  0.83294152598E+01  0.51100000000E-03 0. -1.
        -11    1    3    3    0    0  0.21717768446E+01 -0.18482331062E+01  0.18964005822E+02  0.19177228615E+02  0.51100000000E-03 0.  1.
        -12    1    3    3    0    0 -0.35511203416E+01  0.25581161989E+02 -0.18545546247E+02  0.31795339124E+02  0.00000000000E+00 0.  1.
</event>
<event>
 7    1  0.6065977E-013  0.5930192E+02  0.7816164E-02  0.1266605E+00
        -11   -1    0    0    0    0  0.00000000000E+00  0.00000000000E+00  0.45593999997E+02  0.45594000000E+02  0.51100000000E-03 0. -1.
         11   -1    0    0    0    0 -0.00000000000E+00 -0.00000000000E+00 -0.45593999997E+02  0.45594000000E+02  0.51100000000E-03 0.  1.
    9900012    2    1    2    0    0  0.30245745431E+02 -0.32256091849E+01 -0.95662124569E+01  0.59301920089E+02  0.49999956342E+02 0.  0.
        -12    1    1    2    0    0 -0.30245745431E+02  0.32256091849E+01  0.95662124569E+01  0.31886079911E+02  0.00000000000E+00 0.  1.
         11    1    3    3    0    0  0.21886531617E+00 -0.14729062917E+02  0.34424557135E+01  0.15127580707E+02  0.51100000000E-03 0. -1.
        -11    1    3    3    0    0  0.30729037297E+02  0.59481774993E+01 -0.18478127688E+02  0.36346880910E+02  0.51100000000E-03 0.  1.
        -12    1    3    3    0    0 -0.70215718183E+00  0.55552762326E+01  0.54694595174E+01  0.78274584727E+01  0.00000000000E+00 0.  1.
</event>
<event>
 7    1  0.6065977E-013  0.5930196E+02  0.7816164E-02  0.1266605E+00
        -11   -1    0    0    0    0  0.00000000000E+00  0.00000000000E+00  0.45593999997E+02  0.45594000000E+02  0.51100000000E-03 0.  1.
         11   -1    0    0    0    0 -0.00000000000E+00 -0.00000000000E+00 -0.45593999997E+02  0.45594000000E+02  0.51100000000E-03 0. -1.
    9900012    2    1    2    0    0 -0.19562098400E+02  0.25089507007E+02 -0.21355788945E+01  0.59301956770E+02  0.50000023238E+02 0.  0.
        -12    1    1    2    0    0  0.19562098400E+02 -0.25089507007E+02  0.21355788945E+01  0.31886043230E+02  0.00000000000E+00 0.  1.
         11    1    3    3    0    0 -0.89815363859E+01  0.20449613777E+02 -0.13823999741E+01  0.22377795455E+02  0.51100000000E-03 0. -1.
        -11    1    3    3    0    0 -0.89741064217E+01  0.61176070639E+00  0.16684825585E+02  0.18955005732E+02  0.51100000000E-03 0.  1.
         12    1    3    3    0    0 -0.16064555924E+01  0.40281325238E+01 -0.17438004506E+02  0.17969155582E+02  0.00000000000E+00 0. -1.
</event>
<event>
 7    1  0.6065977E-013  0.5930196E+02  0.7816164E-02  0.1266605E+00
        -11   -1    0    0    0    0  0.00000000000E+00  0.00000000000E+00  0.45593999997E+02  0.45594000000E+02  0.51100000000E-03 0.  1.
         11   -1    0    0    0    0 -0.00000000000E+00 -0.00000000000E+00 -0.45593999997E+02  0.45594000000E+02  0.51100000000E-03 0. -1.
    9900012    2    1    2    0    0 -0.51574881119E+01 -0.11624378924E+02 -0.29240277819E+02  0.59301957349E+02  0.50000024295E+02 0.  0.
        -12    1    1    2    0    0  0.51574881119E+01  0.11624378924E+02  0.29240277819E+02  0.31886042651E+02  0.00000000000E+00 0.  1.
         11    1    3    3    0    0 -0.44061820083E+01 -0.12185187412E+02 -0.34939677805E+02  0.37264920737E+02  0.51100000000E-03 0. -1.
        -11    1    3    3    0    0  0.41937043338E+01  0.82897716604E+01 -0.26188399294E+01  0.96522429030E+01  0.51100000000E-03 0.  1.
         12    1    3    3    0    0 -0.49450104374E+01 -0.77289631723E+01  0.83182399152E+01  0.12384793710E+02  0.00000000000E+00 0. -1.
</event>
<event>
 7    1  0.6065977E-013  0.5930194E+02  0.7816164E-02  0.1266605E+00
        -11   -1    0    0    0    0  0.00000000000E+00  0.00000000000E+00  0.45593999997E+02  0.45594000000E+02  0.51100000000E-03 0. -1.
         11   -1    0    0    0    0 -0.00000000000E+00 -0.00000000000E+00 -0.45593999997E+02  0.45594000000E+02  0.51100000000E-03 0.  1.
    9900012    2    1    2    0    0 -0.26815150387E+02  0.17184845996E+02 -0.15329098179E+01  0.59301936670E+02  0.49999986582E+02 0.  0.
        -12    1    1    2    0    0  0.26815150387E+02 -0.17184845996E+02  0.15329098179E+01  0.31886063330E+02  0.00000000000E+00 0.  1.
         11    1    3    3    0    0 -0.48983941246E+01 -0.89976326085E+01  0.34393691820E+01  0.10806522021E+02  0.51100000000E-03 0.  1.
        -11    1    3    3    0    0 -0.82878081630E+01  0.29851336609E+02  0.47698951242E+01  0.31345525378E+02  0.51100000000E-03 0. -1.
        -12    1    3    3    0    0 -0.13628948099E+02 -0.36688580050E+01 -0.97421741240E+01  0.17149889271E+02  0.00000000000E+00 0.  1.
</event>
<event>
 7    1  0.6065977E-013  0.5930195E+02  0.7816164E-02  0.1266605E+00
        -11   -1    0    0    0    0  0.00000000000E+00  0.00000000000E+00  0.45593999997E+02  0.45594000000E+02  0.51100000000E-03 0. -1.
         11   -1    0    0    0    0 -0.00000000000E+00 -0.00000000000E+00 -0.45593999997E+02  0.45594000000E+02  0.51100000000E-03 0.  1.
    9900012    2    1    2    0    0  0.31347422753E+02 -0.10910876418E+01  0.57331234185E+01  0.59301951489E+02  0.50000013607E+02 0.  0.
        -12    1    1    2    0    0 -0.31347422753E+02  0.10910876418E+01 -0.57331234185E+01  0.31886048511E+02  0.00000000000E+00 0.  1.
         11    1    3    3    0    0 -0.29341204263E+01 -0.18746795962E+02 -0.19858223488E+00  0.18976060094E+02  0.51100000000E-03 0. -1.
        -11    1    3    3    0    0  0.72889847103E+01  0.66218197367E+01 -0.21214542083E+01  0.10073646954E+02  0.51100000000E-03 0.  1.
         12    1    3    3    0    0  0.26992558469E+02  0.11033888583E+02  0.80531598617E+01  0.30252244441E+02  0.00000000000E+00 0. -1.
</event>
<event>
 7    1  0.6065977E-013  0.5930196E+02  0.7816164E-02  0.1266605E+00
        -11   -1    0    0    0    0  0.00000000000E+00  0.00000000000E+00  0.45593999997E+02  0.45594000000E+02  0.51100000000E-03 0.  1.
         11   -1    0    0    0    0 -0.00000000000E+00 -0.00000000000E+00 -0.45593999997E+02  0.45594000000E+02  0.51100000000E-03 0. -1.
    9900012    2    1    2    0    0  0.44965626487E+01 -0.12972773384E+02 -0.28778601493E+02  0.59301955579E+02  0.50000021067E+02 0.  0.
        -12    1    1    2    0    0 -0.44965626487E+01  0.12972773384E+02  0.28778601493E+02  0.31886044421E+02  0.00000000000E+00 0.  1.
         11    1    3    3    0    0 -0.15607384159E+02 -0.10728237738E+02  0.75169077838E+00  0.18953906313E+02  0.51100000000E-03 0. -1.
        -11    1    3    3    0    0  0.69500213480E+01  0.52134925223E+01 -0.19647228061E+01  0.89074933053E+01  0.51100000000E-03 0.  1.
         12    1    3    3    0    0  0.13153925459E+02 -0.74580281680E+01 -0.27565569465E+02  0.31440555960E+02  0.00000000000E+00 0. -1.
</event>
<event>
 7    1  0.6065977E-013  0.5930195E+02  0.7816164E-02  0.1266605E+00
        -11   -1    0    0    0    0  0.00000000000E+00  0.00000000000E+00  0.45593999997E+02  0.45594000000E+02  0.51100000000E-03 0.  1.
         11   -1    0    0    0    0 -0.00000000000E+00 -0.00000000000E+00 -0.45593999997E+02  0.45594000000E+02  0.51100000000E-03 0. -1.
    9900012    2    1    2    0    0  0.10300394523E+02  0.28877797949E+02  0.87575475748E+01  0.59301953189E+02  0.50000016708E+02 0.  0.
        -12    1    1    2    0    0 -0.10300394523E+02 -0.28877797949E+02 -0.87575475748E+01  0.31886046811E+02  0.00000000000E+00 0.  1.
         11    1    3    3    0    0 -0.22111890860E+01  0.29830834780E+02 -0.94107881501E+01  0.31358108915E+02  0.51100000000E-03 0. -1.
        -11    1    3    3    0    0  0.12428168533E+02  0.61557328567E+01  0.13980505798E+02  0.19692815003E+02  0.51100000000E-03 0.  1.
         12    1    3    3    0    0  0.83415076447E-01 -0.71087696880E+01  0.41878299265E+01  0.82510292718E+01  0.00000000000E+00 0. -1.
</event>
<event>
 7    1  0.6065977E-013  0.5930164E+02  0.7816164E-02  0.1266606E+00
        -11   -1    0    0    0    0  0.00000000000E+00  0.00000000000E+00  0.45593999997E+02  0.45594000000E+02  0.51100000000E-03 0.  1.
         11   -1    0    0    0    0 -0.00000000000E+00 -0.00000000000E+00 -0.45593999997E+02  0.45594000000E+02  0.51100000000E-03 0. -1.
    9900012    2    1    2    0    0 -0.12715025256E+02 -0.29192802608E+02  0.16878019031E+01  0.59301635098E+02  0.49999436583E+02 0.  0.
        -12    1    1    2    0    0  0.12715025256E+02  0.29192802608E+02 -0.16878019031E+01  0.31886364902E+02  0.00000000000E+00 0.  1.
         11    1    3    3    0    0 -0.26589276436E+02 -0.11823288540E+01  0.12778498788E+01  0.26646208427E+02  0.51100000000E-03 0. -1.
        -11    1    3    3    0    0  0.32224787042E+00 -0.69674098756E+01  0.27921856620E+01  0.75129850989E+01  0.51100000000E-03 0.  1.
         12    1    3    3    0    0  0.13552003310E+02 -0.21043063879E+02 -0.23822336377E+01  0.25142441573E+02  0.00000000000E+00 0. -1.
</event>
<event>
 7    1  0.6065977E-013  0.5930191E+02  0.7816164E-02  0.1266605E+00
        -11   -1    0    0    0    0  0.00000000000E+00  0.00000000000E+00  0.45593999997E+02  0.45594000000E+02  0.51100000000E-03 0.  1.
         11   -1    0    0    0    0 -0.00000000000E+00 -0.00000000000E+00 -0.45593999997E+02  0.45594000000E+02  0.51100000000E-03 0. -1.
    9900012    2    1    2    0    0 -0.27852813674E+02 -0.12857698516E+02 -0.86961435056E+01  0.59301912869E+02  0.49999943173E+02 0.  0.
        -12    1    1    2    0    0  0.27852813674E+02  0.12857698516E+02  0.86961435056E+01  0.31886087131E+02  0.00000000000E+00 0.  1.
         11    1    3    3    0    0 -0.11095272941E+02 -0.26431431109E+02 -0.11746430358E+02  0.30979093894E+02  0.51100000000E-03 0. -1.
        -11    1    3    3    0    0  0.33687205278E+01 -0.24500004224E+00 -0.11140536631E+01  0.35566021482E+01  0.51100000000E-03 0.  1.
         12    1    3    3    0    0 -0.20126261261E+02  0.13818732635E+02  0.41643405156E+01  0.24766216826E+02  0.00000000000E+00 0. -1.
</event>
<event>
 7    1  0.6065977E-013  0.5930195E+02  0.7816164E-02  0.1266605E+00
        -11   -1    0    0    0    0  0.00000000000E+00  0.00000000000E+00  0.45593999997E+02  0.45594000000E+02  0.51100000000E-03 0.  1.
         11   -1    0    0    0    0 -0.00000000000E+00 -0.00000000000E+00 -0.45593999997E+02  0.45594000000E+02  0.51100000000E-03 0. -1.
    9900012    2    1    2    0    0  0.28955329899E+02 -0.11221389672E+02 -0.72380377393E+01  0.59301954368E+02  0.50000018859E+02 0.  0.
        -12    1    1    2    0    0 -0.28955329899E+02  0.11221389672E+02  0.72380377393E+01  0.31886045632E+02  0.00000000000E+00 0.  1.
         11    1    3    3    0    0  0.88357595649E-01 -0.24470272114E+02 -0.32712707294E+01  0.24688119346E+02  0.51100000000E-03 0.  1.
        -11    1    3    3    0    0  0.20114765432E+02  0.10573218779E+02  0.32540913250E+01  0.22956172468E+02  0.51100000000E-03 0. -1.
        -12    1    3    3    0    0  0.87522068706E+01  0.26756636625E+01 -0.72208583350E+01  0.11657662555E+02  0.00000000000E+00 0.  1.
</event>
<event>
 7    1  0.6065977E-013  0.5930191E+02  0.7816164E-02  0.1266605E+00
        -11   -1    0    0    0    0  0.00000000000E+00  0.00000000000E+00  0.45593999997E+02  0.45594000000E+02  0.51100000000E-03 0.  1.
         11   -1    0    0    0    0 -0.00000000000E+00 -0.00000000000E+00 -0.45593999997E+02  0.45594000000E+02  0.51100000000E-03 0. -1.
    9900012    2    1    2    0    0 -0.26388928343E+02  0.12832558771E+02 -0.12476885487E+02  0.59301909378E+02  0.49999936808E+02 0.  0.
        -12    1    1    2    0    0  0.26388928343E+02 -0.12832558771E+02  0.12476885487E+02  0.31886090622E+02  0.00000000000E+00 0.  1.
         11    1    3    3    0    0 -0.52803740054E+01  0.21753295218E+02  0.10290139628E+02  0.24636866203E+02  0.51100000000E-03 0. -1.
        -11    1    3    3    0    0 -0.31281073521E+01 -0.56991982811E+01 -0.15795806417E+01  0.66903656043E+01  0.51100000000E-03 0.  1.
         12    1    3    3    0    0 -0.17980446985E+02 -0.32215381660E+01 -0.21187444473E+02  0.27974677572E+02  0.00000000000E+00 0. -1.
</event>
<event>
 7    1  0.6065977E-013  0.5930217E+02  0.7816164E-02  0.1266604E+00
        -11   -1    0    0    0    0  0.00000000000E+00  0.00000000000E+00  0.45593999997E+02  0.45594000000E+02  0.51100000000E-03 0. -1.
         11   -1    0    0    0    0 -0.00000000000E+00 -0.00000000000E+00 -0.45593999997E+02  0.45594000000E+02  0.51100000000E-03 0.  1.
    9900012    2    1    2    0    0 -0.76459497876E+01 -0.15719558622E+01  0.30915601745E+02  0.59302172041E+02  0.50000415840E+02 0.  0.
        -12    1    1    2    0    0  0.76459497876E+01  0.15719558622E+01 -0.30915601745E+02  0.31885827959E+02  0.00000000000E+00 0.  1.
         11    1    3    3    0    0 -0.17502497432E+02 -0.29939600054E+01  0.30037042879E+02  0.34893053149E+02  0.51100000000E-03 0.  1.
        -11    1    3    3    0    0  0.80451271183E+01  0.16519486090E+01 -0.10248437614E+02  0.13133296553E+02  0.51100000000E-03 0. -1.
         12    1    3    3    0    0  0.18114205262E+01 -0.22994446590E+00  0.11126996479E+02  0.11275822339E+02  0.00000000000E+00 0. -1.
</event>
<event>
 7    1  0.6065977E-013  0.5930192E+02  0.7816164E-02  0.1266605E+00
        -11   -1    0    0    0    0  0.00000000000E+00  0.00000000000E+00  0.45593999997E+02  0.45594000000E+02  0.51100000000E-03 0. -1.
         11   -1    0    0    0    0 -0.00000000000E+00 -0.00000000000E+00 -0.45593999997E+02  0.45594000000E+02  0.51100000000E-03 0.  1.
    9900012    2    1    2    0    0 -0.95615699064E+01 -0.22395808917E+02  0.20584606048E+02  0.59301923379E+02  0.49999962342E+02 0.  0.
        -12    1    1    2    0    0  0.95615699064E+01  0.22395808917E+02 -0.20584606048E+02  0.31886076621E+02  0.00000000000E+00 0.  1.
         11    1    3    3    0    0 -0.17944886642E+02 -0.10233461691E+02 -0.40498249554E+01  0.21050980433E+02  0.51100000000E-03 0. -1.
        -11    1    3    3    0    0  0.92160411932E+01  0.33926504225E+01  0.90076367795E+00  0.98618896581E+01  0.51100000000E-03 0.  1.
         12    1    3    3    0    0 -0.83272445772E+00 -0.15554997649E+02  0.23733667325E+02  0.28389053288E+02  0.00000000000E+00 0. -1.
</event>
<event>
 7    1  0.6065977E-013  0.5930195E+02  0.7816164E-02  0.1266605E+00
        -11   -1    0    0    0    0  0.00000000000E+00  0.00000000000E+00  0.45593999997E+02  0.45594000000E+02  0.51100000000E-03 0.  1.
         11   -1    0    0    0    0 -0.00000000000E+00 -0.00000000000E+00 -0.45593999997E+02  0.45594000000E+02  0.51100000000E-03 0. -1.
    9900012    2    1    2    0    0 -0.18005844791E+02 -0.43200632053E+01 -0.25958559206E+02  0.59301949934E+02  0.50000010772E+02 0.  0.
        -12    1    1    2    0    0  0.18005844791E+02  0.43200632053E+01  0.25958559206E+02  0.31886050066E+02  0.00000000000E+00 0.  1.
         11    1    3    3    0    0 -0.18553209876E+02 -0.11051517912E+02 -0.19574906194E+02  0.29146776797E+02  0.51100000000E-03 0. -1.
        -11    1    3    3    0    0  0.13646591450E+02 -0.15278088359E+01 -0.10308164697E+01  0.13770484410E+02  0.51100000000E-03 0.  1.
        -12    1    3    3    0    0 -0.13099226365E+02  0.82592635426E+01 -0.53528365428E+01  0.16384688727E+02  0.00000000000E+00 0.  1.
</event>
<event>
 7    1  0.6065977E-013  0.5930194E+02  0.7816164E-02  0.1266605E+00
        -11   -1    0    0    0    0  0.00000000000E+00  0.00000000000E+00  0.45593999997E+02  0.45594000000E+02  0.51100000000E-03 0.  1.
         11   -1    0    0    0    0 -0.00000000000E+00 -0.00000000000E+00 -0.45593999997E+02  0.45594000000E+02  0.51100000000E-03 0. -1.
    9900012    2    1    2    0    0 -0.17271893705E+02  0.26331207600E+02 -0.50069885637E+01  0.59301941286E+02  0.49999995000E+02 0.  0.
        -12    1    1    2    0    0  0.17271893705E+02 -0.26331207600E+02  0.50069885637E+01  0.31886058714E+02  0.00000000000E+00 0.  1.
         11    1    3    3    0    0 -0.31415631486E+01  0.18926852227E+02 -0.68406567334E+01  0.20368842359E+02  0.51100000000E-03 0. -1.
        -11    1    3    3    0    0 -0.25472712868E+02  0.24369907744E+00  0.14074465954E+01  0.25512730083E+02  0.51100000000E-03 0.  1.
        -12    1    3    3    0    0  0.11342382311E+02  0.71606562954E+01  0.42622157426E+00  0.13420368844E+02  0.00000000000E+00 0.  1.
</event>
<event>
 7    1  0.6065977E-013  0.5930195E+02  0.7816164E-02  0.1266605E+00
        -11   -1    0    0    0    0  0.00000000000E+00  0.00000000000E+00  0.45593999997E+02  0.45594000000E+02  0.51100000000E-03 0. -1.
         11   -1    0    0    0    0 -0.00000000000E+00 -0.00000000000E+00 -0.45593999997E+02  0.45594000000E+02  0.51100000000E-03 0.  1.
    9900012    2    1    2    0    0 -0.11151904368E+01  0.28222561594E+02 -0.14797424534E+02  0.59301946537E+02  0.50000004576E+02 0.  0.
        -12    1    1    2    0    0  0.11151904368E+01 -0.28222561594E+02  0.14797424534E+02  0.31886053463E+02  0.00000000000E+00 0.  1.
         11    1    3    3    0    0  0.36505216305E+01  0.23895062443E+02 -0.97754310063E+01  0.26074113004E+02  0.51100000000E-03 0. -1.
        -11    1    3    3    0    0  0.93564193051E+00 -0.12206570975E+02 -0.91184335616E+01  0.15265046075E+02  0.51100000000E-03 0.  1.
        -12    1    3    3    0    0 -0.57013539978E+01  0.16534070125E+02  0.40964400343E+01  0.17962787458E+02  0.00000000000E+00 0.  1.
</event>
<event>
 7    1  0.6776048E-013  0.5930192E+02  0.7816164E-02  0.1266605E+00
        -11   -1    0    0    0    0  0.00000000000E+00  0.00000000000E+00  0.45593999997E+02  0.45594000000E+02  0.51100000000E-03 0. -1.
         11   -1    0    0    0    0 -0.00000000000E+00 -0.00000000000E+00 -0.45593999997E+02  0.45594000000E+02  0.51100000000E-03 0.  1.
    9900012    2    1    2    0    0  0.79070582322E+01  0.62253957834E+01  0.30256317813E+02  0.59301923255E+02  0.49999962116E+02 0.  0.
        -12    1    1    2    0    0 -0.79070582322E+01 -0.62253957834E+01 -0.30256317813E+02  0.31886076745E+02  0.00000000000E+00 0.  1.
         11    1    3    3    0    0  0.93804878789E+01  0.82034915721E+01  0.33438323285E+02  0.35684902847E+02  0.51100000000E-03 0. -1.
        -11    1    3    3    0    0 -0.86810257529E+01 -0.89385883315E+01 -0.50136092996E+01  0.13431114918E+02  0.51100000000E-03 0.  1.
         12    1    3    3    0    0  0.72075961062E+01  0.69604925429E+01  0.18316038277E+01  0.10185905490E+02  0.00000000000E+00 0. -1.
</event>
<event>
 7    1  0.6065977E-013  0.5930192E+02  0.7816164E-02  0.1266605E+00
        -11   -1    0    0    0    0  0.00000000000E+00  0.00000000000E+00  0.45593999997E+02  0.45594000000E+02  0.51100000000E-03 0. -1.
         11   -1    0    0    0    0 -0.00000000000E+00 -0.00000000000E+00 -0.45593999997E+02  0.45594000000E+02  0.51100000000E-03 0.  1.
    9900012    2    1    2    0    0 -0.31316016292E+02 -0.43043300255E+01  0.41835530947E+01  0.59301917615E+02  0.49999951830E+02 0.  0.
        -12    1    1    2    0    0  0.31316016292E+02  0.43043300255E+01 -0.41835530947E+01  0.31886082385E+02  0.00000000000E+00 0.  1.
         11    1    3    3    0    0 -0.19789624056E+02  0.10675652277E+02  0.25515913056E+00  0.22486971301E+02  0.51100000000E-03 0. -1.
        -11    1    3    3    0    0 -0.15173801445E+02 -0.17146240542E+02  0.13334711293E+02  0.26496270314E+02  0.51100000000E-03 0.  1.
        -12    1    3    3    0    0  0.36474092095E+01  0.21662582399E+01 -0.94063173290E+01  0.10318676000E+02  0.00000000000E+00 0.  1.
</event>
<event>
 7    1  0.6065977E-013  0.5930194E+02  0.7816164E-02  0.1266605E+00
        -11   -1    0    0    0    0  0.00000000000E+00  0.00000000000E+00  0.45593999997E+02  0.45594000000E+02  0.51100000000E-03 0.  1.
         11   -1    0    0    0    0 -0.00000000000E+00 -0.00000000000E+00 -0.45593999997E+02  0.45594000000E+02  0.51100000000E-03 0. -1.
    9900012    2    1    2    0    0  0.43073017285E+01 -0.19285826878E+02 -0.25024480062E+02  0.59301943974E+02  0.49999999901E+02 0.  0.
        -12    1    1    2    0    0 -0.43073017285E+01  0.19285826878E+02  0.25024480062E+02  0.31886056026E+02  0.00000000000E+00 0.  1.
         11    1    3    3    0    0  0.38768422633E+01 -0.10452844214E+02 -0.39290136772E+02  0.40841237811E+02  0.51100000000E-03 0. -1.
        -11    1    3    3    0    0 -0.33937560398E+01 -0.50945669949E+01  0.57101983686E+01  0.83712937228E+01  0.51100000000E-03 0.  1.
         12    1    3    3    0    0  0.38242155051E+01 -0.37384156687E+01  0.85554583417E+01  0.10089412440E+02  0.00000000000E+00 0. -1.
</event>
<event>
 7    1  0.6065977E-013  0.5930191E+02  0.7816164E-02  0.1266605E+00
        -11   -1    0    0    0    0  0.00000000000E+00  0.00000000000E+00  0.45593999997E+02  0.45594000000E+02  0.51100000000E-03 0.  1.
         11   -1    0    0    0    0 -0.00000000000E+00 -0.00000000000E+00 -0.45593999997E+02  0.45594000000E+02  0.51100000000E-03 0. -1.
    9900012    2    1    2    0    0  0.28491489896E+02  0.12986539465E+02 -0.60255736158E+01  0.59301909911E+02  0.49999937779E+02 0.  0.
        -12    1    1    2    0    0 -0.28491489896E+02 -0.12986539465E+02  0.60255736158E+01  0.31886090089E+02  0.00000000000E+00 0.  1.
         11    1    3    3    0    0  0.12522231659E+01 -0.15097722007E+02 -0.15647214470E+01  0.15230155158E+02  0.51100000000E-03 0.  1.
        -11    1    3    3    0    0  0.48201781269E+01  0.38296029087E+01  0.68030608891E+01  0.91750538600E+01  0.51100000000E-03 0. -1.
         12    1    3    3    0    0  0.22419088603E+02  0.24254658564E+02 -0.11263913058E+02  0.34896700893E+02  0.00000000000E+00 0. -1.
</event>
<event>
 7    1  0.6065977E-013  0.5930194E+02  0.7816164E-02  0.1266605E+00
        -11   -1    0    0    0    0  0.00000000000E+00  0.00000000000E+00  0.45593999997E+02  0.45594000000E+02  0.51100000000E-03 0.  1.
         11   -1    0    0    0    0 -0.00000000000E+00 -0.00000000000E+00 -0.45593999997E+02  0.45594000000E+02  0.51100000000E-03 0. -1.
    9900012    2    1    2    0    0  0.24628060630E+01 -0.10488691363E+01 -0.31773497978E+02  0.59301941700E+02  0.49999995754E+02 0.  0.
        -12    1    1    2    0    0 -0.24628060630E+01  0.10488691363E+01  0.31773497978E+02  0.31886058300E+02  0.00000000000E+00 0.  1.
         11    1    3    3    0    0 -0.11072442357E+02 -0.86644583755E+01 -0.31153243175E+02  0.34178887918E+02  0.51100000000E-03 0. -1.
        -11    1    3    3    0    0 -0.89031988225E+00  0.10231797307E+02 -0.17508929474E+01  0.10418635803E+02  0.51100000000E-03 0.  1.
         12    1    3    3    0    0  0.14425568302E+02 -0.26162080675E+01  0.11306381446E+01  0.14704417979E+02  0.00000000000E+00 0. -1.
</event>
<event>
 7    1  0.6065977E-013  0.5930198E+02  0.7816164E-02  0.1266605E+00
        -11   -1    0    0    0    0  0.00000000000E+00  0.00000000000E+00  0.45593999997E+02  0.45594000000E+02  0.51100000000E-03 0. -1.
         11   -1    0    0    0    0 -0.00000000000E+00 -0.00000000000E+00 -0.45593999997E+02  0.45594000000E+02  0.51100000000E-03 0.  1.
    9900012    2    1    2    0    0 -0.33513498812E+01 -0.26375192212E+02  0.17602149232E+02  0.59301984761E+02  0.50000074287E+02 0.  0.
        -12    1    1    2    0    0  0.33513498812E+01  0.26375192212E+02 -0.17602149232E+02  0.31886015239E+02  0.00000000000E+00 0.  1.
         11    1    3    3    0    0 -0.67187006871E+01 -0.16612412726E+02  0.40965992335E+01  0.18381929198E+02  0.51100000000E-03 0. -1.
        -11    1    3    3    0    0  0.10562310817E+02  0.56901517929E+01  0.19462539718E+02  0.22863304437E+02  0.51100000000E-03 0.  1.
        -12    1    3    3    0    0 -0.71949600114E+01 -0.15452931279E+02 -0.59569897200E+01  0.18056751126E+02  0.00000000000E+00 0.  1.
</event>
<event>
 7    1  0.6065977E-013  0.5930184E+02  0.7816164E-02  0.1266605E+00
        -11   -1    0    0    0    0  0.00000000000E+00  0.00000000000E+00  0.45593999997E+02  0.45594000000E+02  0.51100000000E-03 0.  1.
         11   -1    0    0    0    0 -0.00000000000E+00 -0.00000000000E+00 -0.45593999997E+02  0.45594000000E+02  0.51100000000E-03 0. -1.
    9900012    2    1    2    0    0  0.14200101976E+02 -0.97570101954E+01 -0.26830668237E+02  0.59301844664E+02  0.49999818783E+02 0.  0.
        -12    1    1    2    0    0 -0.14200101976E+02  0.97570101954E+01  0.26830668237E+02  0.31886155336E+02  0.00000000000E+00 0.  1.
         11    1    3    3    0    0 -0.18166616612E+01 -0.14920016589E+02 -0.28037013338E+02  0.31811653082E+02  0.51100000000E-03 0. -1.
        -11    1    3    3    0    0  0.24460628449E+01  0.40635545770E+00  0.10221384253E+02  0.10517844100E+02  0.51100000000E-03 0.  1.
        -12    1    3    3    0    0  0.13570700793E+02  0.47566509360E+01 -0.90150391522E+01  0.16972347482E+02  0.00000000000E+00 0.  1.
</event>
<event>
 7    1  0.6065977E-013  0.5930199E+02  0.7816164E-02  0.1266605E+00
        -11   -1    0    0    0    0  0.00000000000E+00  0.00000000000E+00  0.45593999997E+02  0.45594000000E+02  0.51100000000E-03 0.  1.
         11   -1    0    0    0    0 -0.00000000000E+00 -0.00000000000E+00 -0.45593999997E+02  0.45594000000E+02  0.51100000000E-03 0. -1.
    9900012    2    1    2    0    0  0.87553770589E+01  0.29195422486E+02  0.93642184479E+01  0.59301985688E+02  0.50000075977E+02 0.  0.
        -12    1    1    2    0    0 -0.87553770589E+01 -0.29195422486E+02 -0.93642184479E+01  0.31886014312E+02  0.00000000000E+00 0.  1.
         11    1    3    3    0    0  0.81499432938E+01  0.26111637156E+02 -0.93898554105E+01  0.28920728821E+02  0.51100000000E-03 0. -1.
        -11    1    3    3    0    0  0.90092366993E+01 -0.65268896479E+01  0.82897428601E+01  0.13873949377E+02  0.51100000000E-03 0.  1.
        -12    1    3    3    0    0 -0.84038029342E+01  0.96106749785E+01  0.10464330998E+02  0.16507307489E+02  0.00000000000E+00 0.  1.
</event>
<event>
 7    1  0.6065977E-013  0.5930195E+02  0.7816164E-02  0.1266605E+00
        -11   -1    0    0    0    0  0.00000000000E+00  0.00000000000E+00  0.45593999997E+02  0.45594000000E+02  0.51100000000E-03 0.  1.
         11   -1    0    0    0    0 -0.00000000000E+00 -0.00000000000E+00 -0.45593999997E+02  0.45594000000E+02  0.51100000000E-03 0. -1.
    9900012    2    1    2    0    0  0.23660671140E+02  0.43276822868E+01 -0.20932371706E+02  0.59301946967E+02  0.50000005361E+02 0.  0.
        -12    1    1    2    0    0 -0.23660671140E+02 -0.43276822868E+01  0.20932371706E+02  0.31886053033E+02  0.00000000000E+00 0.  1.
         11    1    3    3    0    0  0.21896236584E+01  0.11173581111E+02  0.74443690156E+01  0.13603749370E+02  0.51100000000E-03 0. -1.
        -11    1    3    3    0    0  0.42244047856E+01 -0.10705803236E+02  0.85319407112E+00  0.11540700114E+02  0.51100000000E-03 0.  1.
         12    1    3    3    0    0  0.17246642696E+02  0.38599044119E+01 -0.29229934793E+02  0.34157497484E+02  0.00000000000E+00 0. -1.
</event>
<event>
 7    1  0.6065977E-013  0.5930194E+02  0.7816164E-02  0.1266605E+00
        -11   -1    0    0    0    0  0.00000000000E+00  0.00000000000E+00  0.45593999997E+02  0.45594000000E+02  0.51100000000E-03 0.  1.
         11   -1    0    0    0    0 -0.00000000000E+00 -0.00000000000E+00 -0.45593999997E+02  0.45594000000E+02  0.51100000000E-03 0. -1.
    9900012    2    1    2    0    0 -0.13416887189E+02  0.28193555758E+02 -0.64677273644E+01  0.59301938070E+02  0.49999989135E+02 0.  0.
        -12    1    1    2    0    0  0.13416887189E+02 -0.28193555758E+02  0.64677273644E+01  0.31886061930E+02  0.00000000000E+00 0.  1.
         11    1    3    3    0    0 -0.55953224646E+01  0.10070656950E+02  0.17880631770E+02  0.21270701861E+02  0.51100000000E-03 0.  1.
        -11    1    3    3    0    0 -0.14253913570E+02  0.16595210358E+02 -0.14780775381E+02  0.26401635935E+02  0.51100000000E-03 0. -1.
         12    1    3    3    0    0  0.64323488463E+01  0.15276884500E+01 -0.95675837532E+01  0.11629600275E+02  0.00000000000E+00 0. -1.
</event>
<event>
 7    1  0.6065977E-013  0.5930195E+02  0.7816164E-02  0.1266605E+00
        -11   -1    0    0    0    0  0.00000000000E+00  0.00000000000E+00  0.45593999997E+02  0.45594000000E+02  0.51100000000E-03 0.  1.
         11   -1    0    0    0    0 -0.00000000000E+00 -0.00000000000E+00 -0.45593999997E+02  0.45594000000E+02  0.51100000000E-03 0. -1.
    9900012    2    1    2    0    0 -0.10723249965E+02  0.86469101671E+01 -0.28756960812E+02  0.59301953829E+02  0.50000017876E+02 0.  0.
        -12    1    1    2    0    0  0.10723249965E+02 -0.86469101671E+01  0.28756960812E+02  0.31886046171E+02  0.00000000000E+00 0.  1.
         11    1    3    3    0    0 -0.13426722276E+02 -0.86165274923E+01 -0.23977629907E+02  0.28800141551E+02  0.51100000000E-03 0. -1.
        -11    1    3    3    0    0 -0.25355968464E+01  0.94521124179E+01  0.93456019437E+01  0.13531886656E+02  0.51100000000E-03 0.  1.
        -12    1    3    3    0    0  0.52390691573E+01  0.78113252415E+01 -0.14124932848E+02  0.16969925622E+02  0.00000000000E+00 0.  1.
</event>
<event>
 7    1  0.6065977E-013  0.5930194E+02  0.7816164E-02  0.1266605E+00
        -11   -1    0    0    0    0  0.00000000000E+00  0.00000000000E+00  0.45593999997E+02  0.45594000000E+02  0.51100000000E-03 0.  1.
         11   -1    0    0    0    0 -0.00000000000E+00 -0.00000000000E+00 -0.45593999997E+02  0.45594000000E+02  0.51100000000E-03 0. -1.
    9900012    2    1    2    0    0  0.15359048244E+02 -0.22711379510E+02 -0.16279236429E+02  0.59301942531E+02  0.49999997271E+02 0.  0.
        -12    1    1    2    0    0 -0.15359048244E+02  0.22711379510E+02  0.16279236429E+02  0.31886057469E+02  0.00000000000E+00 0.  1.
         11    1    3    3    0    0  0.28900786192E+01 -0.39561119543E+01 -0.24288174170E+02  0.24777384467E+02  0.51100000000E-03 0. -1.
        -11    1    3    3    0    0  0.69253500967E+01 -0.24007739106E+02  0.25066643531E+01  0.25112056415E+02  0.51100000000E-03 0.  1.
        -12    1    3    3    0    0  0.55436195285E+01  0.52524715503E+01  0.55022733886E+01  0.94125016498E+01  0.00000000000E+00 0.  1.
</event>
<event>
 7    1  0.6065977E-013  0.5930193E+02  0.7816164E-02  0.1266605E+00
        -11   -1    0    0    0    0  0.00000000000E+00  0.00000000000E+00  0.45593999997E+02  0.45594000000E+02  0.51100000000E-03 0.  1.
         11   -1    0    0    0    0 -0.00000000000E+00 -0.00000000000E+00 -0.45593999997E+02  0.45594000000E+02  0.51100000000E-03 0. -1.
    9900012    2    1    2    0    0 -0.21267714059E+02  0.17211571202E+02 -0.16375827107E+02  0.59301928464E+02  0.49999971615E+02 0.  0.
        -12    1    1    2    0    0  0.21267714059E+02 -0.17211571202E+02  0.16375827107E+02  0.31886071536E+02  0.00000000000E+00 0.  1.
         11    1    3    3    0    0 -0.13995173491E+02 -0.56278374650E+01  0.99260363615E+01  0.18057232171E+02  0.51100000000E-03 0.  1.
        -11    1    3    3    0    0 -0.98830532745E+01  0.18724127390E+02 -0.85457650155E+01  0.22831946665E+02  0.51100000000E-03 0. -1.
         12    1    3    3    0    0  0.26105127056E+01  0.41152812766E+01 -0.17756098453E+02  0.18412749628E+02  0.00000000000E+00 0. -1.
</event>
<event>
 7    1  0.6065977E-013  0.5930195E+02  0.7816164E-02  0.1266605E+00
        -11   -1    0    0    0    0  0.00000000000E+00  0.00000000000E+00  0.45593999997E+02  0.45594000000E+02  0.51100000000E-03 0.  1.
         11   -1    0    0    0    0 -0.00000000000E+00 -0.00000000000E+00 -0.45593999997E+02  0.45594000000E+02  0.51100000000E-03 0. -1.
    9900012    2    1    2    0    0  0.91908835403E+01 -0.21765413376E+02 -0.21412960994E+02  0.59301945709E+02  0.50000003067E+02 0.  0.
        -12    1    1    2    0    0 -0.91908835403E+01  0.21765413376E+02  0.21412960994E+02  0.31886054291E+02  0.00000000000E+00 0.  1.
         11    1    3    3    0    0  0.14504474732E+02 -0.16058204917E+02 -0.23574285205E+02  0.31999885243E+02  0.51100000000E-03 0. -1.
        -11    1    3    3    0    0 -0.85601944529E+01 -0.73360143755E+01  0.12209073264E+02  0.16617927254E+02  0.51100000000E-03 0.  1.
         12    1    3    3    0    0  0.32466032607E+01  0.16288059165E+01 -0.10047749054E+02  0.10684133212E+02  0.00000000000E+00 0. -1.
</event>
<event>
 7    1  0.6065977E-013  0.5930195E+02  0.7816164E-02  0.1266605E+00
        -11   -1    0    0    0    0  0.00000000000E+00  0.00000000000E+00  0.45593999997E+02  0.45594000000E+02  0.51100000000E-03 0.  1.
         11   -1    0    0    0    0 -0.00000000000E+00 -0.00000000000E+00 -0.45593999997E+02  0.45594000000E+02  0.51100000000E-03 0. -1.
    9900012    2    1    2    0    0 -0.13190286241E+02  0.23078758050E+02 -0.17609871371E+02  0.59301948286E+02  0.50000007766E+02 0.  0.
        -12    1    1    2    0    0  0.13190286241E+02 -0.23078758050E+02  0.17609871371E+02  0.31886051714E+02  0.00000000000E+00 0.  1.
         11    1    3    3    0    0 -0.15804119397E+02  0.21293181273E+02 -0.27884260126E+02  0.38479887235E+02  0.51100000000E-03 0. -1.
        -11    1    3    3    0    0  0.99763205316E+01 -0.12198381348E+01  0.46025900750E+01  0.11054357154E+02  0.51100000000E-03 0.  1.
        -12    1    3    3    0    0 -0.73624873757E+01  0.30054149117E+01  0.56717986800E+01  0.97677038968E+01  0.00000000000E+00 0.  1.
</event>
<event>
 7    1  0.6065977E-013  0.5930194E+02  0.7816164E-02  0.1266605E+00
        -11   -1    0    0    0    0  0.00000000000E+00  0.00000000000E+00  0.45593999997E+02  0.45594000000E+02  0.51100000000E-03 0. -1.
         11   -1    0    0    0    0 -0.00000000000E+00 -0.00000000000E+00 -0.45593999997E+02  0.45594000000E+02  0.51100000000E-03 0.  1.
    9900012    2    1    2    0    0  0.19763341047E+02  0.11410535981E+02  0.22269500873E+02  0.59301942704E+02  0.49999997587E+02 0.  0.
        -12    1    1    2    0    0 -0.19763341047E+02 -0.11410535981E+02 -0.22269500873E+02  0.31886057296E+02  0.00000000000E+00 0.  1.
         11    1    3    3    0    0  0.18081838289E+02 -0.12133551425E+02  0.15029758330E+02  0.26458828051E+02  0.51100000000E-03 0. -1.
        -11    1    3    3    0    0 -0.88731895953E+01  0.17552267740E+02  0.25524032904E+01  0.19832558061E+02  0.51100000000E-03 0.  1.
        -12    1    3    3    0    0  0.10554692353E+02  0.59918196669E+01  0.46873392523E+01  0.13010556593E+02  0.00000000000E+00 0.  1.
</event>
<event>
 7    1  0.6065977E-013  0.5930194E+02  0.7816164E-02  0.1266605E+00
        -11   -1    0    0    0    0  0.00000000000E+00  0.00000000000E+00  0.45593999997E+02  0.45594000000E+02  0.51100000000E-03 0. -1.
         11   -1    0    0    0    0 -0.00000000000E+00 -0.00000000000E+00 -0.45593999997E+02  0.45594000000E+02  0.51100000000E-03 0.  1.
    9900012    2    1    2    0    0 -0.16945325944E+02  0.11736552766E+02  0.24327552806E+02  0.59301943992E+02  0.49999999936E+02 0.  0.
        -12    1    1    2    0    0  0.16945325944E+02 -0.11736552766E+02 -0.24327552806E+02  0.31886056008E+02  0.00000000000E+00 0.  1.
         11    1    3    3    0    0 -0.52491470075E+00  0.59967537157E+01  0.15877568308E+01  0.62255572108E+01  0.51100000000E-03 0. -1.
        -11    1    3    3    0    0  0.42386036216E+01 -0.13302869647E+02 -0.37548881679E+01  0.14457914335E+02  0.51100000000E-03 0.  1.
        -12    1    3    3    0    0 -0.20659014865E+02  0.19042668697E+02  0.26494684144E+02  0.38618472447E+02  0.00000000000E+00 0.  1.
</event>
<event>
 7    1  0.6065977E-013  0.5930190E+02  0.7816164E-02  0.1266605E+00
        -11   -1    0    0    0    0  0.00000000000E+00  0.00000000000E+00  0.45593999997E+02  0.45594000000E+02  0.51100000000E-03 0.  1.
         11   -1    0    0    0    0 -0.00000000000E+00 -0.00000000000E+00 -0.45593999997E+02  0.45594000000E+02  0.51100000000E-03 0. -1.
    9900012    2    1    2    0    0 -0.12424642359E+02  0.27188344784E+02 -0.11097102396E+02  0.59301897832E+02  0.49999915750E+02 0.  0.
        -12    1    1    2    0    0  0.12424642359E+02 -0.27188344784E+02  0.11097102396E+02  0.31886102168E+02  0.00000000000E+00 0.  1.
         11    1    3    3    0    0  0.12461556879E+02  0.17922186375E+02  0.10939037122E+02  0.24416340793E+02  0.51100000000E-03 0. -1.
        -11    1    3    3    0    0 -0.15245515114E+02  0.74515598009E+01 -0.11554969697E+02  0.20529705295E+02  0.51100000000E-03 0.  1.
         12    1    3    3    0    0 -0.96406841238E+01  0.18145986089E+01 -0.10481169821E+02  0.14355851744E+02  0.00000000000E+00 0. -1.
</event>
<event>
 7    1  0.6065977E-013  0.5930195E+02  0.7816164E-02  0.1266605E+00
        -11   -1    0    0    0    0  0.00000000000E+00  0.00000000000E+00  0.45593999997E+02  0.45594000000E+02  0.51100000000E-03 0. -1.
         11   -1    0    0    0    0 -0.00000000000E+00 -0.00000000000E+00 -0.45593999997E+02  0.45594000000E+02  0.51100000000E-03 0.  1.
    9900012    2    1    2    0    0 -0.30155477214E+02  0.38538379926E+01  0.96184844846E+01  0.59301951059E+02  0.50000012824E+02 0.  0.
        -12    1    1    2    0    0  0.30155477214E+02 -0.38538379926E+01 -0.96184844846E+01  0.31886048941E+02  0.00000000000E+00 0.  1.
         11    1    3    3    0    0 -0.44721877439E+01 -0.18002891118E+02 -0.44014759438E+01  0.19065087006E+02  0.51100000000E-03 0. -1.
        -11    1    3    3    0    0 -0.47365827869E+01  0.88276044822E+01 -0.27734878149E+01  0.10394905113E+02  0.51100000000E-03 0.  1.
         12    1    3    3    0    0 -0.20946706683E+02  0.13029124628E+02  0.16793448243E+02  0.29841958940E+02  0.00000000000E+00 0. -1.
</event>
<event>
 7    1  0.6065977E-013  0.5930194E+02  0.7816164E-02  0.1266605E+00
        -11   -1    0    0    0    0  0.00000000000E+00  0.00000000000E+00  0.45593999997E+02  0.45594000000E+02  0.51100000000E-03 0. -1.
         11   -1    0    0    0    0 -0.00000000000E+00 -0.00000000000E+00 -0.45593999997E+02  0.45594000000E+02  0.51100000000E-03 0.  1.
    9900012    2    1    2    0    0  0.73113198298E+01  0.27996173824E+02  0.13396994364E+02  0.59301943417E+02  0.49999998886E+02 0.  0.
        -12    1    1    2    0    0 -0.73113198298E+01 -0.27996173824E+02 -0.13396994364E+02  0.31886056583E+02  0.00000000000E+00 0.  1.
         11    1    3    3    0    0  0.11379116827E+02  0.30767620377E+02  0.15835439672E+02  0.36426527605E+02  0.51100000000E-03 0. -1.
        -11    1    3    3    0    0 -0.13333413529E+01  0.87794115446E+01 -0.57165093568E+01  0.10560982233E+02  0.51100000000E-03 0.  1.
         12    1    3    3    0    0 -0.27344556444E+01 -0.11550858098E+02  0.32780640488E+01  0.12314433580E+02  0.00000000000E+00 0. -1.
</event>
<event>
 7    1  0.6065977E-013  0.5930196E+02  0.7816164E-02  0.1266605E+00
        -11   -1    0    0    0    0  0.00000000000E+00  0.00000000000E+00  0.45593999997E+02  0.45594000000E+02  0.51100000000E-03 0.  1.
         11   -1    0    0    0    0 -0.00000000000E+00 -0.00000000000E+00 -0.45593999997E+02  0.45594000000E+02  0.51100000000E-03 0. -1.
    9900012    2    1    2    0    0 -0.16753785606E+01  0.14374704174E+02 -0.28412679441E+02  0.59301962830E+02  0.50000034291E+02 0.  0.
        -12    1    1    2    0    0  0.16753785606E+01 -0.14374704174E+02  0.28412679441E+02  0.31886037170E+02  0.00000000000E+00 0.  1.
         11    1    3    3    0    0  0.67271110542E+01  0.12657397118E+00 -0.35942373101E+01  0.76281443489E+01  0.51100000000E-03 0. -1.
        -11    1    3    3    0    0 -0.16377169531E+02  0.18508479288E+02 -0.31783159780E+02  0.40260957927E+02  0.51100000000E-03 0.  1.
        -12    1    3    3    0    0  0.79746799159E+01 -0.42603490848E+01  0.69647176491E+01  0.11412860554E+02  0.00000000000E+00 0.  1.
</event>
<event>
 7    1  0.6065977E-013  0.5930196E+02  0.7816164E-02  0.1266605E+00
        -11   -1    0    0    0    0  0.00000000000E+00  0.00000000000E+00  0.45593999997E+02  0.45594000000E+02  0.51100000000E-03 0. -1.
         11   -1    0    0    0    0 -0.00000000000E+00 -0.00000000000E+00 -0.45593999997E+02  0.45594000000E+02  0.51100000000E-03 0.  1.
    9900012    2    1    2    0    0  0.30446954898E+02 -0.63974144964E+01  0.69839648628E+01  0.59301956972E+02  0.50000023607E+02 0.  0.
        -12    1    1    2    0    0 -0.30446954898E+02  0.63974144964E+01 -0.69839648628E+01  0.31886043028E+02  0.00000000000E+00 0.  1.
         11    1    3    3    0    0  0.37554141027E+02  0.40259095060E+01  0.15203727742E+02  0.40714552597E+02  0.51100000000E-03 0. -1.
        -11    1    3    3    0    0  0.19888701862E+00  0.21302018113E+01 -0.87908352982E+00  0.23130291646E+01  0.51100000000E-03 0.  1.
         12    1    3    3    0    0 -0.73060731481E+01 -0.12553525814E+02 -0.73406793489E+01  0.16274375211E+02  0.00000000000E+00 0. -1.
</event>
<event>
 7    1  0.6065977E-013  0.5930194E+02  0.7816164E-02  0.1266605E+00
        -11   -1    0    0    0    0  0.00000000000E+00  0.00000000000E+00  0.45593999997E+02  0.45594000000E+02  0.51100000000E-03 0. -1.
         11   -1    0    0    0    0 -0.00000000000E+00 -0.00000000000E+00 -0.45593999997E+02  0.45594000000E+02  0.51100000000E-03 0.  1.
    9900012    2    1    2    0    0 -0.61089883982E+01 -0.10962353619E+02  0.29312593178E+02  0.59301936353E+02  0.49999986003E+02 0.  0.
        -12    1    1    2    0    0  0.61089883982E+01  0.10962353619E+02 -0.29312593178E+02  0.31886063647E+02  0.00000000000E+00 0.  1.
         11    1    3    3    0    0  0.12961165201E+02 -0.19748943478E+02  0.24002018151E+02  0.33676541501E+02  0.51100000000E-03 0. -1.
        -11    1    3    3    0    0 -0.16202961887E+02  0.40502828175E+00  0.32556301710E+01  0.16531761851E+02  0.51100000000E-03 0.  1.
         12    1    3    3    0    0 -0.28671917124E+01  0.83815615777E+01  0.20549448559E+01  0.90936330010E+01  0.00000000000E+00 0. -1.
</event>
<event>
 7    1  0.6065977E-013  0.5930185E+02  0.7816164E-02  0.1266605E+00
        -11   -1    0    0    0    0  0.00000000000E+00  0.00000000000E+00  0.45593999997E+02  0.45594000000E+02  0.51100000000E-03 0. -1.
         11   -1    0    0    0    0 -0.00000000000E+00 -0.00000000000E+00 -0.45593999997E+02  0.45594000000E+02  0.51100000000E-03 0.  1.
    9900012    2    1    2    0    0 -0.22272176800E+02 -0.10562146537E+02  0.20226666142E+02  0.59301845919E+02  0.49999821073E+02 0.  0.
        -12    1    1    2    0    0  0.22272176800E+02  0.10562146537E+02 -0.20226666142E+02  0.31886154081E+02  0.00000000000E+00 0.  1.
         11    1    3    3    0    0  0.87751109502E+01 -0.17481452100E+02  0.79608749206E+01  0.21118221266E+02  0.51100000000E-03 0. -1.
        -11    1    3    3    0    0 -0.26222974937E+02  0.11940663712E+02  0.75914478840E+01  0.29796878119E+02  0.51100000000E-03 0.  1.
        -12    1    3    3    0    0 -0.48243128131E+01 -0.50213581490E+01  0.46743433369E+01  0.83867465331E+01  0.00000000000E+00 0.  1.
</event>
<event>
 7    1  0.6065977E-013  0.5930191E+02  0.7816164E-02  0.1266605E+00
        -11   -1    0    0    0    0  0.00000000000E+00  0.00000000000E+00  0.45593999997E+02  0.45594000000E+02  0.51100000000E-03 0.  1.
         11   -1    0    0    0    0 -0.00000000000E+00 -0.00000000000E+00 -0.45593999997E+02  0.45594000000E+02  0.51100000000E-03 0. -1.
    9900012    2    1    2    0    0 -0.23129497477E+02 -0.20816934217E+02 -0.69573094011E+01  0.59301912786E+02  0.49999943022E+02 0.  0.
        -12    1    1    2    0    0  0.23129497477E+02  0.20816934217E+02  0.69573094011E+01  0.31886087214E+02  0.00000000000E+00 0.  1.
         11    1    3    3    0    0 -0.22299755067E+02 -0.27484095680E+02  0.85886462765E+01  0.36420041687E+02  0.51100000000E-03 0. -1.
        -11    1    3    3    0    0  0.17536816453E+00  0.90433155349E+01 -0.22267395584E+01  0.93150780555E+01  0.51100000000E-03 0.  1.
         12    1    3    3    0    0 -0.10051105745E+01 -0.23761540728E+01 -0.13319216119E+02  0.13566793043E+02  0.00000000000E+00 0. -1.
</event>
<event>
 7    1  0.6065977E-013  0.5930193E+02  0.7816164E-02  0.1266605E+00
        -11   -1    0    0    0    0  0.00000000000E+00  0.00000000000E+00  0.45593999997E+02  0.45594000000E+02  0.51100000000E-03 0.  1.
         11   -1    0    0    0    0 -0.00000000000E+00 -0.00000000000E+00 -0.45593999997E+02  0.45594000000E+02  0.51100000000E-03 0. -1.
    9900012    2    1    2    0    0  0.29648962497E+00  0.50145489765E+01 -0.31487899137E+02  0.59301930948E+02  0.49999976146E+02 0.  0.
        -12    1    1    2    0    0 -0.29648962497E+00 -0.50145489765E+01  0.31487899137E+02  0.31886069052E+02  0.00000000000E+00 0.  1.
         11    1    3    3    0    0  0.78267377000E+01  0.15704578646E+02 -0.21509237696E+02  0.27758582817E+02  0.51100000000E-03 0. -1.
        -11    1    3    3    0    0  0.15574962827E+01 -0.78257620852E+01 -0.17611448323E+02  0.19334721596E+02  0.51100000000E-03 0.  1.
         12    1    3    3    0    0 -0.90877443577E+01 -0.28642675844E+01  0.76327868817E+01  0.12208626536E+02  0.00000000000E+00 0. -1.
</event>
<event>
 7    1  0.6065977E-013  0.5930184E+02  0.7816164E-02  0.1266605E+00
        -11   -1    0    0    0    0  0.00000000000E+00  0.00000000000E+00  0.45593999997E+02  0.45594000000E+02  0.51100000000E-03 0.  1.
         11   -1    0    0    0    0 -0.00000000000E+00 -0.00000000000E+00 -0.45593999997E+02  0.45594000000E+02  0.51100000000E-03 0. -1.
    9900012    2    1    2    0    0 -0.20702021315E+02 -0.21680721434E+02 -0.10867362595E+02  0.59301844098E+02  0.49999817753E+02 0.  0.
        -12    1    1    2    0    0  0.20702021315E+02  0.21680721434E+02  0.10867362595E+02  0.31886155902E+02  0.00000000000E+00 0.  1.
         11    1    3    3    0    0 -0.48592092973E+01 -0.81180195927E+01  0.11390900104E+01  0.95295164313E+01  0.51100000000E-03 0. -1.
        -11    1    3    3    0    0 -0.69314659419E+01 -0.79414866268E+01 -0.28395403677E+02  0.30288799583E+02  0.51100000000E-03 0.  1.
        -12    1    3    3    0    0 -0.89113460760E+01 -0.56212152142E+01  0.16388951072E+02  0.19483528084E+02  0.00000000000E+00 0.  1.
</event>
<event>
 7    1  0.6065977E-013  0.5930195E+02  0.7816164E-02  0.1266605E+00
        -11   -1    0    0    0    0  0.00000000000E+00  0.00000000000E+00  0.45593999997E+02  0.45594000000E+02  0.51100000000E-03 0.  1.
         11   -1    0    0    0    0 -0.00000000000E+00 -0.00000000000E+00 -0.45593999997E+02  0.45594000000E+02  0.51100000000E-03 0. -1.
    9900012    2    1    2    0    0  0.25573371073E+01 -0.14816343131E+02 -0.28118606992E+02  0.59301952016E+02  0.50000014569E+02 0.  0.
        -12    1    1    2    0    0 -0.25573371073E+01  0.14816343131E+02  0.28118606992E+02  0.31886047984E+02  0.00000000000E+00 0.  1.
         11    1    3    3    0    0  0.22014624699E+02 -0.12731415906E+02 -0.22669944286E+02  0.34068446190E+02  0.51100000000E-03 0. -1.
        -11    1    3    3    0    0 -0.80442112965E+01  0.58465816390E+01 -0.54397964645E+01  0.11335044688E+02  0.51100000000E-03 0.  1.
         12    1    3    3    0    0 -0.11413076296E+02 -0.79315088643E+01 -0.88662419841E-02  0.13898461138E+02  0.00000000000E+00 0. -1.
</event>
<event>
 7    1  0.6065977E-013  0.5930194E+02  0.7816164E-02  0.1266605E+00
        -11   -1    0    0    0    0  0.00000000000E+00  0.00000000000E+00  0.45593999997E+02  0.45594000000E+02  0.51100000000E-03 0.  1.
         11   -1    0    0    0    0 -0.00000000000E+00 -0.00000000000E+00 -0.45593999997E+02  0.45594000000E+02  0.51100000000E-03 0. -1.
    9900012    2    1    2    0    0 -0.24456461502E+01  0.10895401110E+02 -0.29866868387E+02  0.59301940700E+02  0.49999993932E+02 0.  0.
        -12    1    1    2    0    0  0.24456461502E+01 -0.10895401110E+02  0.29866868387E+02  0.31886059300E+02  0.00000000000E+00 0.  1.
         11    1    3    3    0    0  0.14345341741E+02  0.16325247640E+02 -0.18412342454E+02  0.28483625034E+02  0.51100000000E-03 0. -1.
        -11    1    3    3    0    0 -0.20472035451E+02 -0.16194457703E+01 -0.28770666138E+01  0.20736546305E+02  0.51100000000E-03 0.  1.
         12    1    3    3    0    0  0.36810475594E+01 -0.38104007598E+01 -0.85774593185E+01  0.10081769361E+02  0.00000000000E+00 0. -1.
</event>
<event>
 7    1  0.7954892E-013  0.5930193E+02  0.7816164E-02  0.1266605E+00
        -11   -1    0    0    0    0  0.00000000000E+00  0.00000000000E+00  0.45593999997E+02  0.45594000000E+02  0.51100000000E-03 0. -1.
         11   -1    0    0    0    0 -0.00000000000E+00 -0.00000000000E+00 -0.45593999997E+02  0.45594000000E+02  0.51100000000E-03 0.  1.
    9900012    2    1    2    0    0  0.42737159513E+01  0.96210893312E+01  0.30098028277E+02  0.59301932288E+02  0.49999978589E+02 0.  0.
        -12    1    1    2    0    0 -0.42737159513E+01 -0.96210893312E+01 -0.30098028277E+02  0.31886067712E+02  0.00000000000E+00 0.  1.
         11    1    3    3    0    0 -0.50157338306E+00  0.84859060335E+01  0.22538041384E+02  0.24087870117E+02  0.51100000000E-03 0. -1.
        -11    1    3    3    0    0  0.91875051591E+01 -0.15033327388E+02  0.33587071912E+01  0.17935777030E+02  0.51100000000E-03 0.  1.
         12    1    3    3    0    0 -0.44122158247E+01  0.16168510686E+02  0.42012797019E+01  0.17278285141E+02  0.00000000000E+00 0. -1.
</event>
<event>
 7    1  0.6065977E-013  0.5930190E+02  0.7816164E-02  0.1266605E+00
        -11   -1    0    0    0    0  0.00000000000E+00  0.00000000000E+00  0.45593999997E+02  0.45594000000E+02  0.51100000000E-03 0.  1.
         11   -1    0    0    0    0 -0.00000000000E+00 -0.00000000000E+00 -0.45593999997E+02  0.45594000000E+02  0.51100000000E-03 0. -1.
    9900012    2    1    2    0    0 -0.17306948018E+02  0.21863230430E+02 -0.15465826396E+02  0.59301904588E+02  0.49999928070E+02 0.  0.
        -12    1    1    2    0    0  0.17306948018E+02 -0.21863230430E+02  0.15465826396E+02  0.31886095412E+02  0.00000000000E+00 0.  1.
         11    1    3    3    0    0 -0.58486048413E+01  0.14435466282E+02 -0.56126150885E+01  0.16555673159E+02  0.51100000000E-03 0. -1.
        -11    1    3    3    0    0 -0.11421691802E+02 -0.62625774634E+01 -0.21255560206E+02  0.24929375444E+02  0.51100000000E-03 0.  1.
        -12    1    3    3    0    0 -0.36651374840E-01  0.13690341611E+02  0.11402348898E+02  0.17816855984E+02  0.00000000000E+00 0.  1.
</event>
<event>
 7    1  0.6065977E-013  0.5930193E+02  0.7816164E-02  0.1266605E+00
        -11   -1    0    0    0    0  0.00000000000E+00  0.00000000000E+00  0.45593999997E+02  0.45594000000E+02  0.51100000000E-03 0. -1.
         11   -1    0    0    0    0 -0.00000000000E+00 -0.00000000000E+00 -0.45593999997E+02  0.45594000000E+02  0.51100000000E-03 0.  1.
    9900012    2    1    2    0    0 -0.13771853348E+02 -0.22668872686E+02  0.17696893196E+02  0.59301925261E+02  0.49999965773E+02 0.  0.
        -12    1    1    2    0    0  0.13771853348E+02  0.22668872686E+02 -0.17696893196E+02  0.31886074739E+02  0.00000000000E+00 0.  1.
         11    1    3    3    0    0 -0.29362979031E+02 -0.80440328165E+01  0.15480643068E+02  0.34154667493E+02  0.51100000000E-03 0. -1.
        -11    1    3    3    0    0 -0.60302507492E+00 -0.52527142953E+01 -0.25043468587E+01  0.58503333374E+01  0.51100000000E-03 0.  1.
         12    1    3    3    0    0  0.16194150758E+02 -0.93721255745E+01  0.47205969863E+01  0.19296924430E+02  0.00000000000E+00 0. -1.
</event>
<event>
 7    1  0.6065977E-013  0.5930192E+02  0.7816164E-02  0.1266605E+00
        -11   -1    0    0    0    0  0.00000000000E+00  0.00000000000E+00  0.45593999997E+02  0.45594000000E+02  0.51100000000E-03 0.  1.
         11   -1    0    0    0    0 -0.00000000000E+00 -0.00000000000E+00 -0.45593999997E+02  0.45594000000E+02  0.51100000000E-03 0. -1.
    9900012    2    1    2    0    0  0.15228070919E+02  0.26029737528E+02  0.10357654599E+02  0.59301915442E+02  0.49999947866E+02 0.  0.
        -12    1    1    2    0    0 -0.15228070919E+02 -0.26029737528E+02 -0.10357654599E+02  0.31886084558E+02  0.00000000000E+00 0.  1.
         11    1    3    3    0    0  0.99352419489E+01  0.73120586615E+00  0.32456448211E+01  0.10477495176E+02  0.51100000000E-03 0. -1.
        -11    1    3    3    0    0  0.74002914010E+01  0.36178834131E+02  0.77160216784E+01  0.37725446885E+02  0.51100000000E-03 0.  1.
        -12    1    3    3    0    0 -0.21074624313E+01 -0.10880302469E+02 -0.60401190088E+00  0.11098973380E+02  0.00000000000E+00 0.  1.
</event>
<event>
 7    1  0.6065977E-013  0.5930193E+02  0.7816164E-02  0.1266605E+00
        -11   -1    0    0    0    0  0.00000000000E+00  0.00000000000E+00  0.45593999997E+02  0.45594000000E+02  0.51100000000E-03 0. -1.
         11   -1    0    0    0    0 -0.00000000000E+00 -0.00000000000E+00 -0.45593999997E+02  0.45594000000E+02  0.51100000000E-03 0.  1.
    9900012    2    1    2    0    0 -0.17990570007E+02 -0.22727117447E+02  0.13286798442E+02  0.59301929538E+02  0.49999973574E+02 0.  0.
        -12    1    1    2    0    0  0.17990570007E+02  0.22727117447E+02 -0.13286798442E+02  0.31886070462E+02  0.00000000000E+00 0.  1.
         11    1    3    3    0    0 -0.52394392284E+01  0.48880971667E+01  0.13128210510E+02  0.14956441047E+02  0.51100000000E-03 0. -1.
        -11    1    3    3    0    0 -0.22793162671E+02 -0.25231234624E+02  0.71155516317E+00  0.34009554190E+02  0.51100000000E-03 0.  1.
        -12    1    3    3    0    0  0.10042031892E+02 -0.23839799900E+01 -0.55296723082E+00  0.10335934301E+02  0.00000000000E+00 0.  1.
</event>
<event>
 7    1  0.6065977E-013  0.5930214E+02  0.7816164E-02  0.1266604E+00
        -11   -1    0    0    0    0  0.00000000000E+00  0.00000000000E+00  0.45593999997E+02  0.45594000000E+02  0.51100000000E-03 0.  1.
         11   -1    0    0    0    0 -0.00000000000E+00 -0.00000000000E+00 -0.45593999997E+02  0.45594000000E+02  0.51100000000E-03 0. -1.
    9900012    2    1    2    0    0  0.18086622339E+02  0.23787905589E+02 -0.11122838134E+02  0.59302142820E+02  0.50000362549E+02 0.  0.
        -12    1    1    2    0    0 -0.18086622339E+02 -0.23787905589E+02  0.11122838134E+02  0.31885857180E+02  0.00000000000E+00 0.  1.
         11    1    3    3    0    0  0.10701628297E+01  0.89869110965E+01 -0.86582990916E+01  0.12525013491E+02  0.51100000000E-03 0. -1.
        -11    1    3    3    0    0  0.25136825916E+02 -0.29626971742E+01 -0.78789947995E+01  0.26508793843E+02  0.51100000000E-03 0.  1.
        -12    1    3    3    0    0 -0.81203664076E+01  0.17763691667E+02  0.54144557573E+01  0.20268335486E+02  0.00000000000E+00 0.  1.
</event>
<event>
 7    1  0.6065977E-013  0.5930188E+02  0.7816164E-02  0.1266605E+00
        -11   -1    0    0    0    0  0.00000000000E+00  0.00000000000E+00  0.45593999997E+02  0.45594000000E+02  0.51100000000E-03 0.  1.
         11   -1    0    0    0    0 -0.00000000000E+00 -0.00000000000E+00 -0.45593999997E+02  0.45594000000E+02  0.51100000000E-03 0. -1.
    9900012    2    1    2    0    0 -0.16022062941E+02  0.14198465811E+02 -0.23630954504E+02  0.59301875384E+02  0.49999874810E+02 0.  0.
        -12    1    1    2    0    0  0.16022062941E+02 -0.14198465811E+02  0.23630954504E+02  0.31886124616E+02  0.00000000000E+00 0.  1.
         11    1    3    3    0    0 -0.19993391219E+02 -0.28558477941E+01  0.82639206098E+00  0.20213225451E+02  0.51100000000E-03 0. -1.
        -11    1    3    3    0    0  0.96094855219E+01 -0.26548955538E+01 -0.87161777230E+01  0.13242448292E+02  0.51100000000E-03 0.  1.
         12    1    3    3    0    0 -0.56381572441E+01  0.19709209159E+02 -0.15741168842E+02  0.25846201641E+02  0.00000000000E+00 0. -1.
</event>
<event>
 7    1  0.6065977E-013  0.5930200E+02  0.7816164E-02  0.1266605E+00
        -11   -1    0    0    0    0  0.00000000000E+00  0.00000000000E+00  0.45593999997E+02  0.45594000000E+02  0.51100000000E-03 0.  1.
         11   -1    0    0    0    0 -0.00000000000E+00 -0.00000000000E+00 -0.45593999997E+02  0.45594000000E+02  0.51100000000E-03 0. -1.
    9900012    2    1    2    0    0 -0.30811045083E+02  0.16447516223E+01  0.80430726119E+01  0.59302004265E+02  0.50000109857E+02 0.  0.
        -12    1    1    2    0    0  0.30811045083E+02 -0.16447516223E+01 -0.80430726119E+01  0.31885995735E+02  0.00000000000E+00 0.  1.
         11    1    3    3    0    0  0.65550825583E+01 -0.25349249692E+01  0.60239238650E+01  0.92564902062E+01  0.51100000000E-03 0. -1.
        -11    1    3    3    0    0 -0.31525052904E+02 -0.11266579391E+02  0.81201414406E+00  0.33487671448E+02  0.51100000000E-03 0.  1.
        -12    1    3    3    0    0 -0.58410747376E+01  0.15446255983E+02  0.12071346029E+01  0.16557842611E+02  0.00000000000E+00 0.  1.
</event>
<event>
 7    1  0.6065977E-013  0.5930194E+02  0.7816164E-02  0.1266605E+00
        -11   -1    0    0    0    0  0.00000000000E+00  0.00000000000E+00  0.45593999997E+02  0.45594000000E+02  0.51100000000E-03 0. -1.
         11   -1    0    0    0    0 -0.00000000000E+00 -0.00000000000E+00 -0.45593999997E+02  0.45594000000E+02  0.51100000000E-03 0.  1.
    9900012    2    1    2    0    0  0.11868339150E+02  0.29396997609E+02  0.34175908465E+01  0.59301939256E+02  0.49999991298E+02 0.  0.
        -12    1    1    2    0    0 -0.11868339150E+02 -0.29396997609E+02 -0.34175908465E+01  0.31886060744E+02  0.00000000000E+00 0.  1.
         11    1    3    3    0    0  0.16031949140E+02  0.72358752023E+01  0.45223545934E+01  0.18161304317E+02  0.51100000000E-03 0. -1.
        -11    1    3    3    0    0 -0.14068227105E+02 -0.22734672241E+01  0.26925414784E+01  0.14502877196E+02  0.51100000000E-03 0.  1.
         12    1    3    3    0    0  0.99046171142E+01  0.24434589630E+02 -0.37973052253E+01  0.26637757743E+02  0.00000000000E+00 0. -1.
</event>
<event>
 7    1  0.6065977E-013  0.5930194E+02  0.7816164E-02  0.1266605E+00
        -11   -1    0    0    0    0  0.00000000000E+00  0.00000000000E+00  0.45593999997E+02  0.45594000000E+02  0.51100000000E-03 0. -1.
         11   -1    0    0    0    0 -0.00000000000E+00 -0.00000000000E+00 -0.45593999997E+02  0.45594000000E+02  0.51100000000E-03 0.  1.
    9900012    2    1    2    0    0 -0.61029352531E+01  0.28566163197E+02 -0.12784734928E+02  0.59301938066E+02  0.49999989128E+02 0.  0.
        -12    1    1    2    0    0  0.61029352531E+01 -0.28566163197E+02  0.12784734928E+02  0.31886061934E+02  0.00000000000E+00 0.  1.
         11    1    3    3    0    0 -0.51487905208E+01  0.12357080806E+02  0.13346667541E+02  0.18903465941E+02  0.51100000000E-03 0. -1.
        -11    1    3    3    0    0 -0.37584174883E+01  0.96784497929E+01 -0.30388887812E+02  0.32113588948E+02  0.51100000000E-03 0.  1.
        -12    1    3    3    0    0  0.28042727560E+01  0.65306325979E+01  0.42574853427E+01  0.82848831773E+01  0.00000000000E+00 0.  1.
</event>
<event>
 7    1  0.6134735E-013  0.5930195E+02  0.7816164E-02  0.1266605E+00
        -11   -1    0    0    0    0  0.00000000000E+00  0.00000000000E+00  0.45593999997E+02  0.45594000000E+02  0.51100000000E-03 0.  1.
         11   -1    0    0    0    0 -0.00000000000E+00 -0.00000000000E+00 -0.45593999997E+02  0.45594000000E+02  0.51100000000E-03 0. -1.
    9900012    2    1    2    0    0 -0.15217724448E+02  0.11670250860E+02 -0.25474419360E+02  0.59301953926E+02  0.50000018052E+02 0.  0.
        -12    1    1    2    0    0  0.15217724448E+02 -0.11670250860E+02  0.25474419360E+02  0.31886046074E+02  0.00000000000E+00 0.  1.
         11    1    3    3    0    0 -0.77936531650E+01 -0.10871332744E+02 -0.18379606649E+02  0.22731846518E+02  0.51100000000E-03 0. -1.
        -11    1    3    3    0    0 -0.11166239470E+02  0.10770723747E+02  0.76811903731E+01  0.17311674666E+02  0.51100000000E-03 0.  1.
         12    1    3    3    0    0  0.37421681868E+01  0.11770859858E+02 -0.14776003084E+02  0.19258432742E+02  0.00000000000E+00 0. -1.
</event>
<event>
 7    1  0.6065977E-013  0.5930190E+02  0.7816164E-02  0.1266605E+00
        -11   -1    0    0    0    0  0.00000000000E+00  0.00000000000E+00  0.45593999997E+02  0.45594000000E+02  0.51100000000E-03 0.  1.
         11   -1    0    0    0    0 -0.00000000000E+00 -0.00000000000E+00 -0.45593999997E+02  0.45594000000E+02  0.51100000000E-03 0. -1.
    9900012    2    1    2    0    0 -0.16788313799E+02  0.12318774099E+02 -0.24147960138E+02  0.59301895592E+02  0.49999911664E+02 0.  0.
        -12    1    1    2    0    0  0.16788313799E+02 -0.12318774099E+02  0.24147960138E+02  0.31886104408E+02  0.00000000000E+00 0.  1.
         11    1    3    3    0    0 -0.20510734380E+02  0.14265304655E+02 -0.11754635366E+02  0.27610878193E+02  0.51100000000E-03 0. -1.
        -11    1    3    3    0    0  0.14276019417E+02  0.21733835136E+01 -0.14160293026E+02  0.20224792339E+02  0.51100000000E-03 0.  1.
         12    1    3    3    0    0 -0.10553598836E+02 -0.41199140695E+01  0.17669682547E+01  0.11466225060E+02  0.00000000000E+00 0. -1.
</event>
<event>
 7    1  0.6065977E-013  0.5930188E+02  0.7816164E-02  0.1266605E+00
        -11   -1    0    0    0    0  0.00000000000E+00  0.00000000000E+00  0.45593999997E+02  0.45594000000E+02  0.51100000000E-03 0. -1.
         11   -1    0    0    0    0 -0.00000000000E+00 -0.00000000000E+00 -0.45593999997E+02  0.45594000000E+02  0.51100000000E-03 0.  1.
    9900012    2    1    2    0    0 -0.27622094683E+02  0.12345898689E+02  0.10065945912E+02  0.59301880822E+02  0.49999884728E+02 0.  0.
        -12    1    1    2    0    0  0.27622094683E+02 -0.12345898689E+02 -0.10065945912E+02  0.31886119178E+02  0.00000000000E+00 0.  1.
         11    1    3    3    0    0 -0.94274234258E+01 -0.28632766282E+01  0.25797660170E-01  0.98526814258E+01  0.51100000000E-03 0. -1.
        -11    1    3    3    0    0  0.13191536999E+02  0.95524385998E+00 -0.97184259302E+00  0.13261735087E+02  0.51100000000E-03 0.  1.
        -12    1    3    3    0    0 -0.31386208257E+02  0.14253931457E+02  0.11011990845E+02  0.36187464309E+02  0.00000000000E+00 0.  1.
</event>
<event>
 7    1  0.6065977E-013  0.5930195E+02  0.7816164E-02  0.1266605E+00
        -11   -1    0    0    0    0  0.00000000000E+00  0.00000000000E+00  0.45593999997E+02  0.45594000000E+02  0.51100000000E-03 0.  1.
         11   -1    0    0    0    0 -0.00000000000E+00 -0.00000000000E+00 -0.45593999997E+02  0.45594000000E+02  0.51100000000E-03 0. -1.
    9900012    2    1    2    0    0  0.26002135585E+01  0.20671358918E+02 -0.24138226073E+02  0.59301950574E+02  0.50000011939E+02 0.  0.
        -12    1    1    2    0    0 -0.26002135585E+01 -0.20671358918E+02  0.24138226073E+02  0.31886049426E+02  0.00000000000E+00 0.  1.
         11    1    3    3    0    0  0.17167170166E+02  0.81879878184E+01 -0.22340519257E+02  0.29340308058E+02  0.51100000000E-03 0. -1.
        -11    1    3    3    0    0 -0.75593437501E+01  0.24261294160E+01  0.10121848980E+02  0.12863965521E+02  0.51100000000E-03 0.  1.
         12    1    3    3    0    0 -0.70076128578E+01  0.10057241683E+02 -0.11919555796E+02  0.17097676995E+02  0.00000000000E+00 0. -1.
</event>
<event>
 7    1  0.6065977E-013  0.5930195E+02  0.7816164E-02  0.1266605E+00
        -11   -1    0    0    0    0  0.00000000000E+00  0.00000000000E+00  0.45593999997E+02  0.45594000000E+02  0.51100000000E-03 0.  1.
         11   -1    0    0    0    0 -0.00000000000E+00 -0.00000000000E+00 -0.45593999997E+02  0.45594000000E+02  0.51100000000E-03 0. -1.
    9900012    2    1    2    0    0  0.20000932286E+02 -0.79573721687E+01 -0.23523665543E+02  0.59301954389E+02  0.50000018896E+02 0.  0.
        -12    1    1    2    0    0 -0.20000932286E+02  0.79573721687E+01  0.23523665543E+02  0.31886045611E+02  0.00000000000E+00 0.  1.
         11    1    3    3    0    0  0.64999056063E+01  0.40464511913E+01  0.11416946057E+02  0.13746606769E+02  0.51100000000E-03 0. -1.
        -11    1    3    3    0    0  0.16120304072E+02 -0.16116305126E+02 -0.21807096745E+02  0.31545981725E+02  0.51100000000E-03 0.  1.
         12    1    3    3    0    0 -0.26192773924E+01  0.41124817662E+01 -0.13133514854E+02  0.14009365894E+02  0.00000000000E+00 0. -1.
</event>
<event>
 7    1  0.6065977E-013  0.5930194E+02  0.7816164E-02  0.1266605E+00
        -11   -1    0    0    0    0  0.00000000000E+00  0.00000000000E+00  0.45593999997E+02  0.45594000000E+02  0.51100000000E-03 0. -1.
         11   -1    0    0    0    0 -0.00000000000E+00 -0.00000000000E+00 -0.45593999997E+02  0.45594000000E+02  0.51100000000E-03 0.  1.
    9900012    2    1    2    0    0  0.12102964340E+02 -0.22382488538E+02 -0.19216217034E+02  0.59301944489E+02  0.50000000841E+02 0.  0.
        -12    1    1    2    0    0 -0.12102964340E+02  0.22382488538E+02  0.19216217034E+02  0.31886055511E+02  0.00000000000E+00 0.  1.
         11    1    3    3    0    0  0.94811930686E+01  0.74790631926E+01  0.82727611055E+01  0.14637895505E+02  0.51100000000E-03 0. -1.
        -11    1    3    3    0    0  0.41600798578E+01 -0.19278602084E+02 -0.27656694451E+02  0.33968566513E+02  0.51100000000E-03 0.  1.
         12    1    3    3    0    0 -0.15383085868E+01 -0.10582949646E+02  0.16771631153E+00  0.10695482471E+02  0.00000000000E+00 0. -1.
</event>
<event>
 7    1  0.6065977E-013  0.5930193E+02  0.7816164E-02  0.1266605E+00
        -11   -1    0    0    0    0  0.00000000000E+00  0.00000000000E+00  0.45593999997E+02  0.45594000000E+02  0.51100000000E-03 0.  1.
         11   -1    0    0    0    0 -0.00000000000E+00 -0.00000000000E+00 -0.45593999997E+02  0.45594000000E+02  0.51100000000E-03 0. -1.
    9900012    2    1    2    0    0 -0.24037784121E+02  0.20582375859E+02 -0.39079384364E+01  0.59301933383E+02  0.49999980587E+02 0.  0.
        -12    1    1    2    0    0  0.24037784121E+02 -0.20582375859E+02  0.39079384364E+01  0.31886066617E+02  0.00000000000E+00 0.  1.
         11    1    3    3    0    0  0.80230140331E+00  0.15809888373E+02 -0.16304089510E+02  0.22724867280E+02  0.51100000000E-03 0. -1.
        -11    1    3    3    0    0 -0.14753447734E+02  0.92327533404E+01  0.17270688468E+02  0.24519066758E+02  0.51100000000E-03 0.  1.
         12    1    3    3    0    0 -0.10086637791E+02 -0.44602658537E+01 -0.48745373939E+01  0.12057999345E+02  0.00000000000E+00 0. -1.
</event>
<event>
 7    1  0.6065977E-013  0.5930192E+02  0.7816164E-02  0.1266605E+00
        -11   -1    0    0    0    0  0.00000000000E+00  0.00000000000E+00  0.45593999997E+02  0.45594000000E+02  0.51100000000E-03 0. -1.
         11   -1    0    0    0    0 -0.00000000000E+00 -0.00000000000E+00 -0.45593999997E+02  0.45594000000E+02  0.51100000000E-03 0.  1.
    9900012    2    1    2    0    0 -0.14967912766E+02 -0.25864276335E+02  0.11123072502E+02  0.59301922399E+02  0.49999960554E+02 0.  0.
        -12    1    1    2    0    0  0.14967912766E+02  0.25864276335E+02 -0.11123072502E+02  0.31886077601E+02  0.00000000000E+00 0.  1.
         11    1    3    3    0    0 -0.18848935020E+02 -0.55339381442E+01 -0.73020119904E-01  0.19644646980E+02  0.51100000000E-03 0. -1.
        -11    1    3    3    0    0 -0.63767884481E+01 -0.25201010570E+02  0.11191031208E+02  0.28301829348E+02  0.51100000000E-03 0.  1.
        -12    1    3    3    0    0  0.10257810703E+02  0.48706723790E+01  0.50614136890E-02  0.11355446071E+02  0.00000000000E+00 0.  1.
</event>
<event>
 7    1  0.6065977E-013  0.5930195E+02  0.7816164E-02  0.1266605E+00
        -11   -1    0    0    0    0  0.00000000000E+00  0.00000000000E+00  0.45593999997E+02  0.45594000000E+02  0.51100000000E-03 0.  1.
         11   -1    0    0    0    0 -0.00000000000E+00 -0.00000000000E+00 -0.45593999997E+02  0.45594000000E+02  0.51100000000E-03 0. -1.
    9900012    2    1    2    0    0 -0.29740063437E+02  0.75029922054E+01 -0.87151535633E+01  0.59301950277E+02  0.50000011397E+02 0.  0.
        -12    1    1    2    0    0  0.29740063437E+02 -0.75029922054E+01  0.87151535633E+01  0.31886049723E+02  0.00000000000E+00 0.  1.
         11    1    3    3    0    0 -0.14226439888E+02  0.14178743458E+02  0.42562261205E+01  0.20531532310E+02  0.51100000000E-03 0. -1.
        -11    1    3    3    0    0  0.97502892433E+01 -0.76023608338E+00 -0.73173239837E+01  0.12214308403E+02  0.51100000000E-03 0.  1.
        -12    1    3    3    0    0 -0.25263912793E+02 -0.59155151693E+01 -0.56540557002E+01  0.26556109564E+02  0.00000000000E+00 0.  1.
</event>
<event>
 7    1  0.6065977E-013  0.5930193E+02  0.7816164E-02  0.1266605E+00
        -11   -1    0    0    0    0  0.00000000000E+00  0.00000000000E+00  0.45593999997E+02  0.45594000000E+02  0.51100000000E-03 0. -1.
         11   -1    0    0    0    0 -0.00000000000E+00 -0.00000000000E+00 -0.45593999997E+02  0.45594000000E+02  0.51100000000E-03 0.  1.
    9900012    2    1    2    0    0 -0.46903688701E+01 -0.91445515906E+01  0.30184414535E+02  0.59301933063E+02  0.49999980002E+02 0.  0.
        -12    1    1    2    0    0  0.46903688701E+01  0.91445515906E+01 -0.30184414535E+02  0.31886066937E+02  0.00000000000E+00 0.  1.
         11    1    3    3    0    0 -0.29910864951E+00 -0.21809219476E+02  0.21766971132E+02  0.30814486084E+02  0.51100000000E-03 0. -1.
        -11    1    3    3    0    0  0.65943494050E+01  0.14135656291E+02  0.76611560037E+01  0.17378018714E+02  0.51100000000E-03 0.  1.
        -12    1    3    3    0    0 -0.10985609626E+02 -0.14709884059E+01  0.75628739921E+00  0.11109428265E+02  0.00000000000E+00 0.  1.
</event>
<event>
 7    1  0.6065977E-013  0.5930192E+02  0.7816164E-02  0.1266605E+00
        -11   -1    0    0    0    0  0.00000000000E+00  0.00000000000E+00  0.45593999997E+02  0.45594000000E+02  0.51100000000E-03 0.  1.
         11   -1    0    0    0    0 -0.00000000000E+00 -0.00000000000E+00 -0.45593999997E+02  0.45594000000E+02  0.51100000000E-03 0. -1.
    9900012    2    1    2    0    0 -0.30697220799E+02  0.20281672588E+01 -0.83838802381E+01  0.59301917220E+02  0.49999951110E+02 0.  0.
        -12    1    1    2    0    0  0.30697220799E+02 -0.20281672588E+01  0.83838802381E+01  0.31886082780E+02  0.00000000000E+00 0.  1.
         11    1    3    3    0    0  0.53847733989E+01  0.17494169461E+02 -0.67049643689E+00  0.18316422014E+02  0.51100000000E-03 0. -1.
        -11    1    3    3    0    0 -0.14722069836E+02 -0.10844576019E+02 -0.50501536327E+01  0.18969665819E+02  0.51100000000E-03 0.  1.
         12    1    3    3    0    0 -0.21359924361E+02 -0.46214261823E+01 -0.26632301684E+01  0.22015829387E+02  0.00000000000E+00 0. -1.
</event>
<event>
 7    1  0.6065977E-013  0.5930174E+02  0.7816164E-02  0.1266605E+00
        -11   -1    0    0    0    0  0.00000000000E+00  0.00000000000E+00  0.45593999997E+02  0.45594000000E+02  0.51100000000E-03 0. -1.
         11   -1    0    0    0    0 -0.00000000000E+00 -0.00000000000E+00 -0.45593999997E+02  0.45594000000E+02  0.51100000000E-03 0.  1.
    9900012    2    1    2    0    0  0.23668012402E+02 -0.15873452290E+01  0.21308199170E+02  0.59301736064E+02  0.49999620722E+02 0.  0.
        -12    1    1    2    0    0 -0.23668012402E+02  0.15873452290E+01 -0.21308199170E+02  0.31886263936E+02  0.00000000000E+00 0.  1.
         11    1    3    3    0    0  0.17320223128E+02  0.66778627100E+01  0.27339671018E+02  0.33046052581E+02  0.51100000000E-03 0. -1.
        -11    1    3    3    0    0  0.86902453729E+01 -0.14902113545E+02 -0.42278678809E+00  0.17256074342E+02  0.51100000000E-03 0.  1.
        -12    1    3    3    0    0 -0.23424560983E+01  0.66369056062E+01 -0.56086850597E+01  0.89996091413E+01  0.00000000000E+00 0.  1.
</event>
<event>
 7    1  0.6065977E-013  0.5930192E+02  0.7816164E-02  0.1266605E+00
        -11   -1    0    0    0    0  0.00000000000E+00  0.00000000000E+00  0.45593999997E+02  0.45594000000E+02  0.51100000000E-03 0.  1.
         11   -1    0    0    0    0 -0.00000000000E+00 -0.00000000000E+00 -0.45593999997E+02  0.45594000000E+02  0.51100000000E-03 0. -1.
    9900012    2    1    2    0    0 -0.14957979614E+02  0.26406400469E+02 -0.97817574775E+01  0.59301922800E+02  0.49999961286E+02 0.  0.
        -12    1    1    2    0    0  0.14957979614E+02 -0.26406400469E+02  0.97817574775E+01  0.31886077200E+02  0.00000000000E+00 0.  1.
         11    1    3    3    0    0 -0.15135199926E+02  0.11794872381E+02  0.70717245172E+01  0.20450001937E+02  0.51100000000E-03 0. -1.
        -11    1    3    3    0    0 -0.69446675560E+00  0.24068071858E+02 -0.16791865912E+02  0.29355086920E+02  0.51100000000E-03 0.  1.
        -12    1    3    3    0    0  0.87168706832E+00 -0.94565437697E+01 -0.61616082634E-01  0.94968339437E+01  0.00000000000E+00 0.  1.
</event>
<event>
 7    1  0.6065977E-013  0.5930197E+02  0.7816164E-02  0.1266605E+00
        -11   -1    0    0    0    0  0.00000000000E+00  0.00000000000E+00  0.45593999997E+02  0.45594000000E+02  0.51100000000E-03 0.  1.
         11   -1    0    0    0    0 -0.00000000000E+00 -0.00000000000E+00 -0.45593999997E+02  0.45594000000E+02  0.51100000000E-03 0. -1.
    9900012    2    1    2    0    0 -0.31598438733E+02 -0.40429228326E+01 -0.13828295133E+01  0.59301972137E+02  0.50000051265E+02 0.  0.
        -12    1    1    2    0    0  0.31598438733E+02  0.40429228326E+01  0.13828295133E+01  0.31886027863E+02  0.00000000000E+00 0.  1.
         11    1    3    3    0    0 -0.10966905041E+02  0.34506196405E+00 -0.22150529820E+02  0.24719183754E+02  0.51100000000E-03 0. -1.
        -11    1    3    3    0    0 -0.16303259435E+02 -0.45847297112E+01  0.23860195809E+02  0.29259613105E+02  0.51100000000E-03 0.  1.
        -12    1    3    3    0    0 -0.43282742569E+01  0.19674491451E+00 -0.30924955030E+01  0.53231752780E+01  0.00000000000E+00 0.  1.
</event>
<event>
 7    1  0.6065977E-013  0.5930193E+02  0.7816164E-02  0.1266605E+00
        -11   -1    0    0    0    0  0.00000000000E+00  0.00000000000E+00  0.45593999997E+02  0.45594000000E+02  0.51100000000E-03 0.  1.
         11   -1    0    0    0    0 -0.00000000000E+00 -0.00000000000E+00 -0.45593999997E+02  0.45594000000E+02  0.51100000000E-03 0. -1.
    9900012    2    1    2    0    0 -0.25426708630E+02 -0.19240673062E+02  0.17254464564E-01  0.59301932363E+02  0.49999978727E+02 0.  0.
        -12    1    1    2    0    0  0.25426708630E+02  0.19240673062E+02 -0.17254464564E-01  0.31886067637E+02  0.00000000000E+00 0.  1.
         11    1    3    3    0    0 -0.23778088718E+01 -0.10730748978E+02 -0.21293591087E+02  0.23962887353E+02  0.51100000000E-03 0. -1.
        -11    1    3    3    0    0 -0.91101282140E+01  0.34305567379E+01  0.59805179993E+01  0.11424961768E+02  0.51100000000E-03 0.  1.
         12    1    3    3    0    0 -0.13938771544E+02 -0.11940480822E+02  0.15330327553E+02  0.23914083242E+02  0.00000000000E+00 0. -1.
</event>
<event>
 7    1  0.6065977E-013  0.5930189E+02  0.7816164E-02  0.1266605E+00
        -11   -1    0    0    0    0  0.00000000000E+00  0.00000000000E+00  0.45593999997E+02  0.45594000000E+02  0.51100000000E-03 0.  1.
         11   -1    0    0    0    0 -0.00000000000E+00 -0.00000000000E+00 -0.45593999997E+02  0.45594000000E+02  0.51100000000E-03 0. -1.
    9900012    2    1    2    0    0 -0.24705537421E+01  0.88710357518E+01 -0.30527443566E+02  0.59301894534E+02  0.49999909736E+02 0.  0.
        -12    1    1    2    0    0  0.24705537421E+01 -0.88710357518E+01  0.30527443566E+02  0.31886105466E+02  0.00000000000E+00 0.  1.
         11    1    3    3    0    0  0.52562926101E+01  0.15382177848E+02 -0.15241030047E+02  0.22282930788E+02  0.51100000000E-03 0. -1.
        -11    1    3    3    0    0 -0.18527068462E+02 -0.46577939226E+01 -0.17421842352E+02  0.25854746203E+02  0.51100000000E-03 0.  1.
        -12    1    3    3    0    0  0.10800222110E+02 -0.18533481732E+01  0.21354288330E+01  0.11164217544E+02  0.00000000000E+00 0.  1.
</event>
<event>
 7    1  0.6065977E-013  0.5930195E+02  0.7816164E-02  0.1266605E+00
        -11   -1    0    0    0    0  0.00000000000E+00  0.00000000000E+00  0.45593999997E+02  0.45594000000E+02  0.51100000000E-03 0. -1.
         11   -1    0    0    0    0 -0.00000000000E+00 -0.00000000000E+00 -0.45593999997E+02  0.45594000000E+02  0.51100000000E-03 0.  1.
    9900012    2    1    2    0    0  0.87803813076E+01 -0.10685051674E+02  0.28730723495E+02  0.59301954498E+02  0.50000019095E+02 0.  0.
        -12    1    1    2    0    0 -0.87803813076E+01  0.10685051674E+02 -0.28730723495E+02  0.31886045502E+02  0.00000000000E+00 0.  1.
         11    1    3    3    0    0  0.11951738114E+02 -0.64760993560E+01  0.89559058916E+01  0.16278579711E+02  0.51100000000E-03 0. -1.
        -11    1    3    3    0    0 -0.85526014807E+01 -0.19756773028E+02  0.13520076456E+02  0.25421831960E+02  0.51100000000E-03 0.  1.
        -12    1    3    3    0    0  0.53812446746E+01  0.15547820709E+02  0.62547411476E+01  0.17601542827E+02  0.00000000000E+00 0.  1.
</event>
<event>
 7    1  0.6065977E-013  0.5930194E+02  0.7816164E-02  0.1266605E+00
        -11   -1    0    0    0    0  0.00000000000E+00  0.00000000000E+00  0.45593999997E+02  0.45594000000E+02  0.51100000000E-03 0. -1.
         11   -1    0    0    0    0 -0.00000000000E+00 -0.00000000000E+00 -0.45593999997E+02  0.45594000000E+02  0.51100000000E-03 0.  1.
    9900012    2    1    2    0    0 -0.30413646316E+02 -0.94360261677E+01  0.16408303152E+01  0.59301940410E+02  0.49999993401E+02 0.  0.
        -12    1    1    2    0    0  0.30413646316E+02  0.94360261677E+01 -0.16408303152E+01  0.31886059590E+02  0.00000000000E+00 0.  1.
         11    1    3    3    0    0 -0.26434887143E+02  0.11094720231E+02  0.10552613544E+01  0.28688144800E+02  0.51100000000E-03 0. -1.
        -11    1    3    3    0    0  0.89721901441E+01 -0.94957124368E+01  0.30667782385E+01  0.13419160916E+02  0.51100000000E-03 0.  1.
         12    1    3    3    0    0 -0.12950949318E+02 -0.11035033962E+02 -0.24812092777E+01  0.17194634694E+02  0.00000000000E+00 0. -1.
</event>
<event>
 7    1  0.6065977E-013  0.5930197E+02  0.7816164E-02  0.1266605E+00
        -11   -1    0    0    0    0  0.00000000000E+00  0.00000000000E+00  0.45593999997E+02  0.45594000000E+02  0.51100000000E-03 0. -1.
         11   -1    0    0    0    0 -0.00000000000E+00 -0.00000000000E+00 -0.45593999997E+02  0.45594000000E+02  0.51100000000E-03 0.  1.
    9900012    2    1    2    0    0  0.25317408613E+02  0.19048398378E+02 -0.35925334288E+01  0.59301969264E+02  0.50000046025E+02 0.  0.
        -12    1    1    2    0    0 -0.25317408613E+02 -0.19048398378E+02  0.35925334288E+01  0.31886030736E+02  0.00000000000E+00 0.  1.
         11    1    3    3    0    0  0.17843990236E+02 -0.49033381125E+01 -0.96292699058E+01  0.20860813775E+02  0.51100000000E-03 0. -1.
        -11    1    3    3    0    0 -0.43571717590E+01  0.23211127237E+02 -0.26221287358E+01  0.23761669401E+02  0.51100000000E-03 0.  1.
        -12    1    3    3    0    0  0.11830590136E+02  0.74060925408E+00  0.86588652128E+01  0.14679486088E+02  0.00000000000E+00 0.  1.
</event>
<event>
 7    1  0.6065977E-013  0.5930194E+02  0.7816164E-02  0.1266605E+00
        -11   -1    0    0    0    0  0.00000000000E+00  0.00000000000E+00  0.45593999997E+02  0.45594000000E+02  0.51100000000E-03 0.  1.
         11   -1    0    0    0    0 -0.00000000000E+00 -0.00000000000E+00 -0.45593999997E+02  0.45594000000E+02  0.51100000000E-03 0. -1.
    9900012    2    1    2    0    0  0.10161236066E+02 -0.24980644522E+02 -0.17012860349E+02  0.59301941348E+02  0.49999995113E+02 0.  0.
        -12    1    1    2    0    0 -0.10161236066E+02  0.24980644522E+02  0.17012860349E+02  0.31886058652E+02  0.00000000000E+00 0.  1.
         11    1    3    3    0    0  0.21766514641E+02 -0.27633104449E+02 -0.19617520184E+02  0.40276751601E+02  0.51100000000E-03 0. -1.
        -11    1    3    3    0    0 -0.13155119426E+02  0.45603208973E+01 -0.17419669198E+01  0.14031683535E+02  0.51100000000E-03 0.  1.
        -12    1    3    3    0    0  0.15498408515E+01 -0.19078609700E+01  0.43466267548E+01  0.49935062122E+01  0.00000000000E+00 0.  1.
</event>
<event>
 7    1  0.6065977E-013  0.5930196E+02  0.7816164E-02  0.1266605E+00
        -11   -1    0    0    0    0  0.00000000000E+00  0.00000000000E+00  0.45593999997E+02  0.45594000000E+02  0.51100000000E-03 0.  1.
         11   -1    0    0    0    0 -0.00000000000E+00 -0.00000000000E+00 -0.45593999997E+02  0.45594000000E+02  0.51100000000E-03 0. -1.
    9900012    2    1    2    0    0  0.84601072984E+01  0.29661102848E+02 -0.80848589846E+01  0.59301962578E+02  0.50000033831E+02 0.  0.
        -12    1    1    2    0    0 -0.84601072984E+01 -0.29661102848E+02  0.80848589846E+01  0.31886037422E+02  0.00000000000E+00 0.  1.
         11    1    3    3    0    0  0.39872603405E+01  0.26216712707E+02  0.14296592385E+02  0.30126513643E+02  0.51100000000E-03 0. -1.
        -11    1    3    3    0    0  0.49058268204E+01 -0.18611016156E+01  0.87335942414E+00  0.53191722063E+01  0.51100000000E-03 0.  1.
         12    1    3    3    0    0 -0.43297986247E+00  0.53054917568E+01 -0.23254810793E+02  0.23856276729E+02  0.00000000000E+00 0. -1.
</event>
<event>
 7    1  0.6065977E-013  0.5930195E+02  0.7816164E-02  0.1266605E+00
        -11   -1    0    0    0    0  0.00000000000E+00  0.00000000000E+00  0.45593999997E+02  0.45594000000E+02  0.51100000000E-03 0. -1.
         11   -1    0    0    0    0 -0.00000000000E+00 -0.00000000000E+00 -0.45593999997E+02  0.45594000000E+02  0.51100000000E-03 0.  1.
    9900012    2    1    2    0    0 -0.17569588451E+02 -0.24017263129E+02 -0.11454298619E+02  0.59301947824E+02  0.50000006923E+02 0.  0.
        -12    1    1    2    0    0  0.17569588451E+02  0.24017263129E+02  0.11454298619E+02  0.31886052176E+02  0.00000000000E+00 0.  1.
         11    1    3    3    0    0 -0.37191191404E+01  0.18757637064E+01  0.23049134103E+01  0.47605632810E+01  0.51100000000E-03 0. -1.
        -11    1    3    3    0    0  0.88273626667E+01 -0.27740870910E+02 -0.12707466400E+02  0.31764098493E+02  0.51100000000E-03 0.  1.
        -12    1    3    3    0    0 -0.22677831978E+02  0.18478440746E+01 -0.10517456288E+01  0.22777286050E+02  0.00000000000E+00 0.  1.
</event>
<event>
 7    1  0.6065977E-013  0.5930196E+02  0.7816164E-02  0.1266605E+00
        -11   -1    0    0    0    0  0.00000000000E+00  0.00000000000E+00  0.45593999997E+02  0.45594000000E+02  0.51100000000E-03 0. -1.
         11   -1    0    0    0    0 -0.00000000000E+00 -0.00000000000E+00 -0.45593999997E+02  0.45594000000E+02  0.51100000000E-03 0.  1.
    9900012    2    1    2    0    0  0.12329231573E+02  0.23762507686E+02  0.17322038879E+02  0.59301956758E+02  0.50000023216E+02 0.  0.
        -12    1    1    2    0    0 -0.12329231573E+02 -0.23762507686E+02 -0.17322038879E+02  0.31886043242E+02  0.00000000000E+00 0.  1.
         11    1    3    3    0    0 -0.66122901981E+00  0.18433336118E+02  0.20476408308E+02  0.27559179990E+02  0.51100000000E-03 0. -1.
        -11    1    3    3    0    0 -0.13579372723E+01 -0.77908714427E+01 -0.84686433633E+01  0.11587044151E+02  0.51100000000E-03 0.  1.
        -12    1    3    3    0    0  0.14348397865E+02  0.13120043011E+02  0.53142739350E+01  0.20155732618E+02  0.00000000000E+00 0.  1.
</event>
<event>
 7    1  0.6065977E-013  0.5930193E+02  0.7816164E-02  0.1266605E+00
        -11   -1    0    0    0    0  0.00000000000E+00  0.00000000000E+00  0.45593999997E+02  0.45594000000E+02  0.51100000000E-03 0.  1.
         11   -1    0    0    0    0 -0.00000000000E+00 -0.00000000000E+00 -0.45593999997E+02  0.45594000000E+02  0.51100000000E-03 0. -1.
    9900012    2    1    2    0    0 -0.15812379825E+02  0.19189852943E+02  0.19960945802E+02  0.59301934563E+02  0.49999982739E+02 0.  0.
        -12    1    1    2    0    0  0.15812379825E+02 -0.19189852943E+02 -0.19960945802E+02  0.31886065437E+02  0.00000000000E+00 0.  1.
         11    1    3    3    0    0 -0.56766888791E+01  0.53089371183E+01 -0.50242673115E+01  0.92548836965E+01  0.51100000000E-03 0. -1.
        -11    1    3    3    0    0  0.46697730201E+01  0.46810336855E+01  0.30931049166E+02  0.31629869731E+02  0.51100000000E-03 0.  1.
        -12    1    3    3    0    0 -0.14805463966E+02  0.91998821396E+01 -0.59458360521E+01  0.18417181136E+02  0.00000000000E+00 0.  1.
</event>
<event>
 7    1  0.6065977E-013  0.5930195E+02  0.7816164E-02  0.1266605E+00
        -11   -1    0    0    0    0  0.00000000000E+00  0.00000000000E+00  0.45593999997E+02  0.45594000000E+02  0.51100000000E-03 0. -1.
         11   -1    0    0    0    0 -0.00000000000E+00 -0.00000000000E+00 -0.45593999997E+02  0.45594000000E+02  0.51100000000E-03 0.  1.
    9900012    2    1    2    0    0 -0.54150424027E+01  0.30417829175E+02  0.78837171673E+01  0.59301952702E+02  0.50000015819E+02 0.  0.
        -12    1    1    2    0    0  0.54150424027E+01 -0.30417829175E+02 -0.78837171673E+01  0.31886047298E+02  0.00000000000E+00 0.  1.
         11    1    3    3    0    0  0.63968373056E+01 -0.35828415333E+01  0.15115622091E+02  0.16799949775E+02  0.51100000000E-03 0. -1.
        -11    1    3    3    0    0 -0.14645142161E+02  0.13422860911E+02 -0.86805496675E+01  0.21679606241E+02  0.51100000000E-03 0.  1.
         12    1    3    3    0    0  0.28332624530E+01  0.20577809797E+02  0.14486447435E+01  0.20822396687E+02  0.00000000000E+00 0. -1.
</event>
<event>
 7    1  0.6065977E-013  0.5930195E+02  0.7816164E-02  0.1266605E+00
        -11   -1    0    0    0    0  0.00000000000E+00  0.00000000000E+00  0.45593999997E+02  0.45594000000E+02  0.51100000000E-03 0. -1.
         11   -1    0    0    0    0 -0.00000000000E+00 -0.00000000000E+00 -0.45593999997E+02  0.45594000000E+02  0.51100000000E-03 0.  1.
    9900012    2    1    2    0    0 -0.27422828470E+02 -0.41880740005E+01  0.15721601530E+02  0.59301949134E+02  0.50000009313E+02 0.  0.
        -12    1    1    2    0    0  0.27422828470E+02  0.41880740005E+01 -0.15721601530E+02  0.31886050866E+02  0.00000000000E+00 0.  1.
         11    1    3    3    0    0 -0.15494575671E+02 -0.26263445519E+02  0.55236646956E+01  0.30989696960E+02  0.51100000000E-03 0. -1.
        -11    1    3    3    0    0 -0.47984646726E+01  0.12540035192E+02  0.13824141572E+01  0.13497733698E+02  0.51100000000E-03 0.  1.
         12    1    3    3    0    0 -0.71297881265E+01  0.95353363267E+01  0.88155226772E+01  0.14814518476E+02  0.00000000000E+00 0. -1.
</event>
<event>
 7    1  0.6065977E-013  0.5930198E+02  0.7816164E-02  0.1266605E+00
        -11   -1    0    0    0    0  0.00000000000E+00  0.00000000000E+00  0.45593999997E+02  0.45594000000E+02  0.51100000000E-03 0.  1.
         11   -1    0    0    0    0 -0.00000000000E+00 -0.00000000000E+00 -0.45593999997E+02  0.45594000000E+02  0.51100000000E-03 0. -1.
    9900012    2    1    2    0    0  0.26448437073E+02 -0.17537451892E+02 -0.31041801186E+01  0.59301984622E+02  0.50000074035E+02 0.  0.
        -12    1    1    2    0    0 -0.26448437073E+02  0.17537451892E+02  0.31041801186E+01  0.31886015378E+02  0.00000000000E+00 0.  1.
         11    1    3    3    0    0  0.18039083847E+02  0.12849531561E+02 -0.39811954780E+01  0.22502642624E+02  0.51100000000E-03 0. -1.
        -11    1    3    3    0    0 -0.60458619257E+01 -0.80043817463E+01 -0.10458833814E+01  0.10085457147E+02  0.51100000000E-03 0.  1.
         12    1    3    3    0    0  0.14455215152E+02 -0.22382601707E+02  0.19228987408E+01  0.26713884851E+02  0.00000000000E+00 0. -1.
</event>
<event>
 7    1  0.6065977E-013  0.5930194E+02  0.7816164E-02  0.1266605E+00
        -11   -1    0    0    0    0  0.00000000000E+00  0.00000000000E+00  0.45593999997E+02  0.45594000000E+02  0.51100000000E-03 0.  1.
         11   -1    0    0    0    0 -0.00000000000E+00 -0.00000000000E+00 -0.45593999997E+02  0.45594000000E+02  0.51100000000E-03 0. -1.
    9900012    2    1    2    0    0  0.25736141559E+02  0.48804836457E+01 -0.18181101303E+02  0.59301944309E+02  0.50000000512E+02 0.  0.
        -12    1    1    2    0    0 -0.25736141559E+02 -0.48804836457E+01  0.18181101303E+02  0.31886055691E+02  0.00000000000E+00 0.  1.
         11    1    3    3    0    0 -0.18745724026E+01  0.50456680312E+01 -0.24248262041E+01  0.59036065210E+01  0.51100000000E-03 0. -1.
        -11    1    3    3    0    0  0.24446578846E+01 -0.90018136284E+01 -0.23780971590E+02  0.25544933173E+02  0.51100000000E-03 0.  1.
        -12    1    3    3    0    0  0.25166056077E+02  0.88366292429E+01  0.80246964914E+01  0.27853404615E+02  0.00000000000E+00 0.  1.
</event>
<event>
 7    1  0.6065977E-013  0.5930197E+02  0.7816164E-02  0.1266605E+00
        -11   -1    0    0    0    0  0.00000000000E+00  0.00000000000E+00  0.45593999997E+02  0.45594000000E+02  0.51100000000E-03 0. -1.
         11   -1    0    0    0    0 -0.00000000000E+00 -0.00000000000E+00 -0.45593999997E+02  0.45594000000E+02  0.51100000000E-03 0.  1.
    9900012    2    1    2    0    0 -0.15746892788E+02 -0.25905902625E+01  0.27605134211E+02  0.59301965045E+02  0.50000038330E+02 0.  0.
        -12    1    1    2    0    0  0.15746892788E+02  0.25905902625E+01 -0.27605134211E+02  0.31886034955E+02  0.00000000000E+00 0.  1.
         11    1    3    3    0    0 -0.92840083860E+01  0.75613226255E+01  0.18494861058E+02  0.22032392003E+02  0.51100000000E-03 0. -1.
        -11    1    3    3    0    0  0.98703106091E+01  0.31423890522E+01 -0.54130770377E+01  0.11687559358E+02  0.51100000000E-03 0.  1.
        -12    1    3    3    0    0 -0.16333195011E+02 -0.13294301940E+02  0.14523350191E+02  0.25582013683E+02  0.00000000000E+00 0.  1.
</event>
<event>
 7    1  0.6065977E-013  0.5930194E+02  0.7816164E-02  0.1266605E+00
        -11   -1    0    0    0    0  0.00000000000E+00  0.00000000000E+00  0.45593999997E+02  0.45594000000E+02  0.51100000000E-03 0. -1.
         11   -1    0    0    0    0 -0.00000000000E+00 -0.00000000000E+00 -0.45593999997E+02  0.45594000000E+02  0.51100000000E-03 0.  1.
    9900012    2    1    2    0    0  0.88118666259E+01  0.20905647349E+02  0.22405927433E+02  0.59301942410E+02  0.49999997049E+02 0.  0.
        -12    1    1    2    0    0 -0.88118666259E+01 -0.20905647349E+02 -0.22405927433E+02  0.31886057590E+02  0.00000000000E+00 0.  1.
         11    1    3    3    0    0  0.20831648816E+02 -0.58008755927E+01  0.20666142712E+02  0.29911489513E+02  0.51100000000E-03 0. -1.
        -11    1    3    3    0    0 -0.10358840382E+02  0.22183415815E+02  0.20044944886E+01  0.24564761543E+02  0.51100000000E-03 0.  1.
         12    1    3    3    0    0 -0.16609418087E+01  0.45231071273E+01 -0.26470976795E+00  0.48256913534E+01  0.00000000000E+00 0. -1.
</event>
<event>
 7    1  0.6065977E-013  0.5930195E+02  0.7816164E-02  0.1266605E+00
        -11   -1    0    0    0    0  0.00000000000E+00  0.00000000000E+00  0.45593999997E+02  0.45594000000E+02  0.51100000000E-03 0. -1.
         11   -1    0    0    0    0 -0.00000000000E+00 -0.00000000000E+00 -0.45593999997E+02  0.45594000000E+02  0.51100000000E-03 0.  1.
    9900012    2    1    2    0    0 -0.34748513827E+01  0.92415216581E+01  0.30318966187E+02  0.59301952498E+02  0.50000015447E+02 0.  0.
        -12    1    1    2    0    0  0.34748513827E+01 -0.92415216581E+01 -0.30318966187E+02  0.31886047502E+02  0.00000000000E+00 0.  1.
         11    1    3    3    0    0  0.15507238435E+02  0.16455146234E+02  0.14784404535E+02  0.27015271592E+02  0.51100000000E-03 0.  1.
        -11    1    3    3    0    0 -0.22731239945E+02 -0.82700613355E+01  0.14692792650E+02  0.28301613736E+02  0.51100000000E-03 0. -1.
         12    1    3    3    0    0  0.37491501267E+01  0.10564367601E+01  0.84176900193E+00  0.39850671705E+01  0.00000000000E+00 0. -1.
</event>
<event>
 7    1  0.6065977E-013  0.5930193E+02  0.7816164E-02  0.1266605E+00
        -11   -1    0    0    0    0  0.00000000000E+00  0.00000000000E+00  0.45593999997E+02  0.45594000000E+02  0.51100000000E-03 0.  1.
         11   -1    0    0    0    0 -0.00000000000E+00 -0.00000000000E+00 -0.45593999997E+02  0.45594000000E+02  0.51100000000E-03 0. -1.
    9900012    2    1    2    0    0 -0.26064303587E+02 -0.75373771008E+01 -0.16749973947E+02  0.59301927770E+02  0.49999970350E+02 0.  0.
        -12    1    1    2    0    0  0.26064303587E+02  0.75373771008E+01  0.16749973947E+02  0.31886072230E+02  0.00000000000E+00 0.  1.
         11    1    3    3    0    0 -0.11808567586E+02 -0.15018418757E+02 -0.21060515219E+02  0.28434846086E+02  0.51100000000E-03 0. -1.
        -11    1    3    3    0    0 -0.85675433655E+01  0.65861464970E+01  0.15140517606E+02  0.18601489151E+02  0.51100000000E-03 0.  1.
        -12    1    3    3    0    0 -0.56881926359E+01  0.89489515889E+00 -0.10829976333E+02  0.12265592533E+02  0.00000000000E+00 0.  1.
</event>
<event>
 7    1  0.6065977E-013  0.5930190E+02  0.7816164E-02  0.1266605E+00
        -11   -1    0    0    0    0  0.00000000000E+00  0.00000000000E+00  0.45593999997E+02  0.45594000000E+02  0.51100000000E-03 0. -1.
         11   -1    0    0    0    0 -0.00000000000E+00 -0.00000000000E+00 -0.45593999997E+02  0.45594000000E+02  0.51100000000E-03 0.  1.
    9900012    2    1    2    0    0  0.26250735618E+02  0.75790359012E+01  0.16437167576E+02  0.59301899838E+02  0.49999919408E+02 0.  0.
        -12    1    1    2    0    0 -0.26250735618E+02 -0.75790359012E+01 -0.16437167576E+02  0.31886100162E+02  0.00000000000E+00 0.  1.
         11    1    3    3    0    0  0.13163953116E+02  0.14648580066E+02  0.27468194207E+02  0.33798997808E+02  0.51100000000E-03 0. -1.
        -11    1    3    3    0    0  0.18486250909E+01  0.31853120530E+00 -0.11879796751E+02  0.12026988317E+02  0.51100000000E-03 0.  1.
        -12    1    3    3    0    0  0.11238157411E+02 -0.73880753704E+01  0.84877012053E+00  0.13475913713E+02  0.00000000000E+00 0.  1.
</event>
<event>
 7    1  0.6065977E-013  0.5930194E+02  0.7816164E-02  0.1266605E+00
        -11   -1    0    0    0    0  0.00000000000E+00  0.00000000000E+00  0.45593999997E+02  0.45594000000E+02  0.51100000000E-03 0. -1.
         11   -1    0    0    0    0 -0.00000000000E+00 -0.00000000000E+00 -0.45593999997E+02  0.45594000000E+02  0.51100000000E-03 0.  1.
    9900012    2    1    2    0    0 -0.28684600499E+02  0.92938352561E+01 -0.10370099758E+02  0.59301942725E+02  0.49999997623E+02 0.  0.
        -12    1    1    2    0    0  0.28684600499E+02 -0.92938352561E+01  0.10370099758E+02  0.31886057275E+02  0.00000000000E+00 0.  1.
         11    1    3    3    0    0 -0.23782163087E+02  0.22869417239E+02  0.97022379087E-01  0.32994104618E+02  0.51100000000E-03 0. -1.
        -11    1    3    3    0    0 -0.20883844975E+01 -0.12469086655E+02 -0.15764693640E+02  0.20208043885E+02  0.51100000000E-03 0.  1.
         12    1    3    3    0    0 -0.28140529145E+01 -0.11064953278E+01  0.52975715033E+01  0.60997942218E+01  0.00000000000E+00 0. -1.
</event>
<event>
 7    1  0.6065977E-013  0.5930201E+02  0.7816164E-02  0.1266605E+00
        -11   -1    0    0    0    0  0.00000000000E+00  0.00000000000E+00  0.45593999997E+02  0.45594000000E+02  0.51100000000E-03 0. -1.
         11   -1    0    0    0    0 -0.00000000000E+00 -0.00000000000E+00 -0.45593999997E+02  0.45594000000E+02  0.51100000000E-03 0.  1.
    9900012    2    1    2    0    0  0.19358322413E+01 -0.20069556498E+02  0.24701859164E+02  0.59302009492E+02  0.50000119392E+02 0.  0.
        -12    1    1    2    0    0 -0.19358322413E+01  0.20069556498E+02 -0.24701859164E+02  0.31885990508E+02  0.00000000000E+00 0.  1.
         11    1    3    3    0    0  0.84411297409E+01  0.14564598651E+02  0.14062547066E+02  0.21934799644E+02  0.51100000000E-03 0. -1.
        -11    1    3    3    0    0 -0.19238844029E+01 -0.18930789406E+02  0.28190758474E+01  0.19235989905E+02  0.51100000000E-03 0.  1.
         12    1    3    3    0    0 -0.45814130967E+01 -0.15703365743E+02  0.78202362513E+01  0.18131219944E+02  0.00000000000E+00 0. -1.
</event>
<event>
 7    1  0.6065977E-013  0.5930195E+02  0.7816164E-02  0.1266605E+00
        -11   -1    0    0    0    0  0.00000000000E+00  0.00000000000E+00  0.45593999997E+02  0.45594000000E+02  0.51100000000E-03 0. -1.
         11   -1    0    0    0    0 -0.00000000000E+00 -0.00000000000E+00 -0.45593999997E+02  0.45594000000E+02  0.51100000000E-03 0.  1.
    9900012    2    1    2    0    0  0.59792970993E+01  0.20861641836E+01  0.31250855894E+02  0.59301951814E+02  0.50000014200E+02 0.  0.
        -12    1    1    2    0    0 -0.59792970993E+01 -0.20861641836E+01 -0.31250855894E+02  0.31886048186E+02  0.00000000000E+00 0.  1.
         11    1    3    3    0    0  0.10655189329E+02  0.34908858811E+01  0.22166068101E+01  0.11429465861E+02  0.51100000000E-03 0. -1.
        -11    1    3    3    0    0 -0.76949278786E+01 -0.18764787905E+02  0.13333315792E+02  0.24271516031E+02  0.51100000000E-03 0.  1.
        -12    1    3    3    0    0  0.30190356493E+01  0.17360066207E+02  0.15700933292E+02  0.23600969921E+02  0.00000000000E+00 0.  1.
</event>
<event>
 7    1  0.6065977E-013  0.5930192E+02  0.7816164E-02  0.1266605E+00
        -11   -1    0    0    0    0  0.00000000000E+00  0.00000000000E+00  0.45593999997E+02  0.45594000000E+02  0.51100000000E-03 0. -1.
         11   -1    0    0    0    0 -0.00000000000E+00 -0.00000000000E+00 -0.45593999997E+02  0.45594000000E+02  0.51100000000E-03 0.  1.
    9900012    2    1    2    0    0  0.21721331024E+02 -0.10154506149E+02  0.21018841692E+02  0.59301922746E+02  0.49999961187E+02 0.  0.
        -12    1    1    2    0    0 -0.21721331024E+02  0.10154506149E+02 -0.21018841692E+02  0.31886077254E+02  0.00000000000E+00 0.  1.
         11    1    3    3    0    0 -0.78798721645E+01  0.10094711382E+01 -0.86988201600E+00  0.79917527671E+01  0.51100000000E-03 0. -1.
        -11    1    3    3    0    0  0.26535852631E+02 -0.62976118870E+01 -0.14126878044E+01  0.27309468641E+02  0.51100000000E-03 0.  1.
        -12    1    3    3    0    0  0.30653505570E+01 -0.48663654007E+01  0.23301411512E+02  0.24000701338E+02  0.00000000000E+00 0.  1.
</event>
<event>
 7    1  0.6065977E-013  0.5930193E+02  0.7816164E-02  0.1266605E+00
        -11   -1    0    0    0    0  0.00000000000E+00  0.00000000000E+00  0.45593999997E+02  0.45594000000E+02  0.51100000000E-03 0.  1.
         11   -1    0    0    0    0 -0.00000000000E+00 -0.00000000000E+00 -0.45593999997E+02  0.45594000000E+02  0.51100000000E-03 0. -1.
    9900012    2    1    2    0    0 -0.24334593896E+01  0.17980512770E+02 -0.26220234350E+02  0.59301933240E+02  0.49999980326E+02 0.  0.
        -12    1    1    2    0    0  0.24334593896E+01 -0.17980512770E+02  0.26220234350E+02  0.31886066760E+02  0.00000000000E+00 0.  1.
         11    1    3    3    0    0  0.17235963457E+02  0.12514109911E+02 -0.93260483992E+01  0.23252022754E+02  0.51100000000E-03 0. -1.
        -11    1    3    3    0    0 -0.19713229517E+02  0.83119036491E+01 -0.21694869704E+02  0.30469107831E+02  0.51100000000E-03 0.  1.
        -12    1    3    3    0    0  0.43806669667E-01 -0.28455007901E+01  0.48006837536E+01  0.55808026549E+01  0.00000000000E+00 0.  1.
</event>
<event>
 7    1  0.6065977E-013  0.5930195E+02  0.7816164E-02  0.1266605E+00
        -11   -1    0    0    0    0  0.00000000000E+00  0.00000000000E+00  0.45593999997E+02  0.45594000000E+02  0.51100000000E-03 0.  1.
         11   -1    0    0    0    0 -0.00000000000E+00 -0.00000000000E+00 -0.45593999997E+02  0.45594000000E+02  0.51100000000E-03 0. -1.
    9900012    2    1    2    0    0 -0.14617451394E+02 -0.15923205479E+02 -0.23441457829E+02  0.59301948142E+02  0.50000007503E+02 0.  0.
        -12    1    1    2    0    0  0.14617451394E+02  0.15923205479E+02  0.23441457829E+02  0.31886051858E+02  0.00000000000E+00 0.  1.
         11    1    3    3    0    0 -0.33131902013E+02 -0.10745443232E+02 -0.17693230493E+02  0.39067094681E+02  0.51100000000E-03 0. -1.
        -11    1    3    3    0    0  0.15759807029E+02 -0.40820599494E+01 -0.38971734327E+01  0.16739853406E+02  0.51100000000E-03 0.  1.
         12    1    3    3    0    0  0.27546435905E+01 -0.10957022976E+01 -0.18510539032E+01  0.34950000555E+01  0.00000000000E+00 0. -1.
</event>
<event>
 7    1  0.6065977E-013  0.5930194E+02  0.7816164E-02  0.1266605E+00
        -11   -1    0    0    0    0  0.00000000000E+00  0.00000000000E+00  0.45593999997E+02  0.45594000000E+02  0.51100000000E-03 0.  1.
         11   -1    0    0    0    0 -0.00000000000E+00 -0.00000000000E+00 -0.45593999997E+02  0.45594000000E+02  0.51100000000E-03 0. -1.
    9900012    2    1    2    0    0  0.14633875555E+02  0.15511768257E+02 -0.23705596463E+02  0.59301943927E+02  0.49999999817E+02 0.  0.
        -12    1    1    2    0    0 -0.14633875555E+02 -0.15511768257E+02  0.23705596463E+02  0.31886056073E+02  0.00000000000E+00 0.  1.
         11    1    3    3    0    0  0.20001428853E+02  0.21237890176E+01 -0.19090442043E+02  0.27731076676E+02  0.51100000000E-03 0. -1.
        -11    1    3    3    0    0 -0.13985705326E+00  0.21541924890E+02 -0.29652374349E+01  0.21745498873E+02  0.51100000000E-03 0.  1.
        -12    1    3    3    0    0 -0.52276962451E+01 -0.81539456506E+01 -0.16499169848E+01  0.98253683778E+01  0.00000000000E+00 0.  1.
</event>
<event>
 7    1  0.6065977E-013  0.5930193E+02  0.7816164E-02  0.1266605E+00
        -11   -1    0    0    0    0  0.00000000000E+00  0.00000000000E+00  0.45593999997E+02  0.45594000000E+02  0.51100000000E-03 0. -1.
         11   -1    0    0    0    0 -0.00000000000E+00 -0.00000000000E+00 -0.45593999997E+02  0.45594000000E+02  0.51100000000E-03 0.  1.
    9900012    2    1    2    0    0 -0.25673999042E+02 -0.12269998011E+02  0.14388002701E+02  0.59301926241E+02  0.49999967562E+02 0.  0.
        -12    1    1    2    0    0  0.25673999042E+02  0.12269998011E+02 -0.14388002701E+02  0.31886073759E+02  0.00000000000E+00 0.  1.
         11    1    3    3    0    0 -0.63945712674E+01 -0.72017399837E+01 -0.19879959223E+01  0.98340087723E+01  0.51100000000E-03 0.  1.
        -11    1    3    3    0    0  0.91928166405E+01 -0.38961064648E+01  0.18363543701E+02  0.20902326686E+02  0.51100000000E-03 0. -1.
        -12    1    3    3    0    0 -0.28472244415E+02 -0.11721515627E+01 -0.19875450778E+01  0.28565590783E+02  0.00000000000E+00 0.  1.
</event>
<event>
 7    1  0.6065977E-013  0.5930192E+02  0.7816164E-02  0.1266605E+00
        -11   -1    0    0    0    0  0.00000000000E+00  0.00000000000E+00  0.45593999997E+02  0.45594000000E+02  0.51100000000E-03 0. -1.
         11   -1    0    0    0    0 -0.00000000000E+00 -0.00000000000E+00 -0.45593999997E+02  0.45594000000E+02  0.51100000000E-03 0.  1.
    9900012    2    1    2    0    0 -0.60355883882E+01  0.25308767293E+02  0.18432578524E+02  0.59301921845E+02  0.49999959543E+02 0.  0.
        -12    1    1    2    0    0  0.60355883882E+01 -0.25308767293E+02 -0.18432578524E+02  0.31886078155E+02  0.00000000000E+00 0.  1.
         11    1    3    3    0    0 -0.50263345424E+01 -0.83807982418E+01 -0.65188033276E+01  0.11747196056E+02  0.51100000000E-03 0. -1.
        -11    1    3    3    0    0 -0.28430015949E+01  0.25867319601E+02  0.56238984737E+01  0.26623844871E+02  0.51100000000E-03 0.  1.
         12    1    3    3    0    0  0.18337477492E+01  0.78222459340E+01  0.19327483377E+02  0.20930880917E+02  0.00000000000E+00 0. -1.
</event>
<event>
 7    1  0.6065977E-013  0.5930234E+02  0.7816164E-02  0.1266603E+00
        -11   -1    0    0    0    0  0.00000000000E+00  0.00000000000E+00  0.45593999997E+02  0.45594000000E+02  0.51100000000E-03 0. -1.
         11   -1    0    0    0    0 -0.00000000000E+00 -0.00000000000E+00 -0.45593999997E+02  0.45594000000E+02  0.51100000000E-03 0.  1.
    9900012    2    1    2    0    0  0.22500930589E+01 -0.19788209142E+01  0.31744555506E+02  0.59302337780E+02  0.50000718104E+02 0.  0.
        -12    1    1    2    0    0 -0.22500930589E+01  0.19788209142E+01 -0.31744555506E+02  0.31885662220E+02  0.00000000000E+00 0.  1.
         11    1    3    3    0    0  0.18206935049E+02  0.21175424558E+00  0.35621285708E+02  0.40005166160E+02  0.51100000000E-03 0. -1.
        -11    1    3    3    0    0 -0.12280610019E+02  0.21959651331E+01 -0.50431696745E+01  0.13456195820E+02  0.51100000000E-03 0.  1.
         12    1    3    3    0    0 -0.36762319712E+01 -0.43865402929E+01  0.11664394718E+01  0.58409757994E+01  0.00000000000E+00 0. -1.
</event>
<event>
 7    1  0.6065977E-013  0.5930197E+02  0.7816164E-02  0.1266605E+00
        -11   -1    0    0    0    0  0.00000000000E+00  0.00000000000E+00  0.45593999997E+02  0.45594000000E+02  0.51100000000E-03 0.  1.
         11   -1    0    0    0    0 -0.00000000000E+00 -0.00000000000E+00 -0.45593999997E+02  0.45594000000E+02  0.51100000000E-03 0. -1.
    9900012    2    1    2    0    0  0.14405701084E+02 -0.28748802790E+01 -0.28300698291E+02  0.59301973529E+02  0.50000053803E+02 0.  0.
        -12    1    1    2    0    0 -0.14405701084E+02  0.28748802790E+01  0.28300698291E+02  0.31886026471E+02  0.00000000000E+00 0.  1.
         11    1    3    3    0    0  0.43123760678E+01  0.13724554650E+02 -0.39645730364E+01  0.14922393485E+02  0.51100000000E-03 0.  1.
        -11    1    3    3    0    0 -0.55318431992E+01 -0.20279034871E+02 -0.12781865662E+02  0.24601151081E+02  0.51100000000E-03 0. -1.
        -12    1    3    3    0    0  0.15625168215E+02  0.36795999415E+01 -0.11554259593E+02  0.19778428963E+02  0.00000000000E+00 0.  1.
</event>
<event>
 7    1  0.6065977E-013  0.5930197E+02  0.7816164E-02  0.1266605E+00
        -11   -1    0    0    0    0  0.00000000000E+00  0.00000000000E+00  0.45593999997E+02  0.45594000000E+02  0.51100000000E-03 0.  1.
         11   -1    0    0    0    0 -0.00000000000E+00 -0.00000000000E+00 -0.45593999997E+02  0.45594000000E+02  0.51100000000E-03 0. -1.
    9900012    2    1    2    0    0 -0.11771476872E+02  0.14017647263E+02 -0.26108553111E+02  0.59301974094E+02  0.50000054834E+02 0.  0.
        -12    1    1    2    0    0  0.11771476872E+02 -0.14017647263E+02  0.26108553111E+02  0.31886025906E+02  0.00000000000E+00 0.  1.
         11    1    3    3    0    0 -0.44300900939E+01 -0.26498509398E+01 -0.11565848987E+02  0.12665554520E+02  0.51100000000E-03 0. -1.
        -11    1    3    3    0    0 -0.19934591282E+02  0.22744699606E+02 -0.86000874932E+01  0.31443135895E+02  0.51100000000E-03 0.  1.
        -12    1    3    3    0    0  0.12593204503E+02 -0.60772014034E+01 -0.59426166305E+01  0.15193283680E+02  0.00000000000E+00 0.  1.
</event>
<event>
 7    1  0.6065977E-013  0.5930196E+02  0.7816164E-02  0.1266605E+00
        -11   -1    0    0    0    0  0.00000000000E+00  0.00000000000E+00  0.45593999997E+02  0.45594000000E+02  0.51100000000E-03 0. -1.
         11   -1    0    0    0    0 -0.00000000000E+00 -0.00000000000E+00 -0.45593999997E+02  0.45594000000E+02  0.51100000000E-03 0.  1.
    9900012    2    1    2    0    0  0.28401302405E+01  0.10472161907E+02  0.29983116615E+02  0.59301956082E+02  0.50000021984E+02 0.  0.
        -12    1    1    2    0    0 -0.28401302405E+01 -0.10472161907E+02 -0.29983116615E+02  0.31886043918E+02  0.00000000000E+00 0.  1.
         11    1    3    3    0    0 -0.53935847566E+01  0.20422707724E+01  0.22278374021E+02  0.23012769840E+02  0.51100000000E-03 0. -1.
        -11    1    3    3    0    0  0.11896041799E+02 -0.82807585669E+01 -0.46107484856E+01  0.15210055055E+02  0.51100000000E-03 0.  1.
        -12    1    3    3    0    0 -0.36623268019E+01  0.16710649701E+02  0.12315491080E+02  0.21079131187E+02  0.00000000000E+00 0.  1.
</event>
<event>
 7    1  0.6065977E-013  0.5930193E+02  0.7816164E-02  0.1266605E+00
        -11   -1    0    0    0    0  0.00000000000E+00  0.00000000000E+00  0.45593999997E+02  0.45594000000E+02  0.51100000000E-03 0.  1.
         11   -1    0    0    0    0 -0.00000000000E+00 -0.00000000000E+00 -0.45593999997E+02  0.45594000000E+02  0.51100000000E-03 0. -1.
    9900012    2    1    2    0    0 -0.71147319008E+01 -0.20888176149E+02 -0.23017080762E+02  0.59301932202E+02  0.49999978432E+02 0.  0.
        -12    1    1    2    0    0  0.71147319008E+01  0.20888176149E+02  0.23017080762E+02  0.31886067798E+02  0.00000000000E+00 0.  1.
         11    1    3    3    0    0 -0.39261445424E+01 -0.26598125098E+02 -0.98109762563E+00  0.26904226852E+02  0.51100000000E-03 0. -1.
        -11    1    3    3    0    0 -0.98121039755E+01 -0.17682852158E+01 -0.22322253745E+01  0.10216997965E+02  0.51100000000E-03 0.  1.
         12    1    3    3    0    0  0.66235166171E+01  0.74782341652E+01 -0.19803757762E+02  0.22180707385E+02  0.00000000000E+00 0. -1.
</event>
<event>
 7    1  0.6065977E-013  0.5930191E+02  0.7816164E-02  0.1266605E+00
        -11   -1    0    0    0    0  0.00000000000E+00  0.00000000000E+00  0.45593999997E+02  0.45594000000E+02  0.51100000000E-03 0. -1.
         11   -1    0    0    0    0 -0.00000000000E+00 -0.00000000000E+00 -0.45593999997E+02  0.45594000000E+02  0.51100000000E-03 0.  1.
    9900012    2    1    2    0    0 -0.64568908803E+01  0.10593948765E+02  0.29373450150E+02  0.59301909553E+02  0.49999937127E+02 0.  0.
        -12    1    1    2    0    0  0.64568908803E+01 -0.10593948765E+02 -0.29373450150E+02  0.31886090447E+02  0.00000000000E+00 0.  1.
         11    1    3    3    0    0  0.17884246743E+02  0.72482395297E+01  0.18622008993E+02  0.26817204870E+02  0.51100000000E-03 0. -1.
        -11    1    3    3    0    0 -0.14833948119E+02 -0.63452278590E+01  0.97966098281E+01  0.18875420466E+02  0.51100000000E-03 0.  1.
         12    1    3    3    0    0 -0.95071895039E+01  0.96909370945E+01  0.95483132812E+00  0.13609284217E+02  0.00000000000E+00 0. -1.
</event>
<event>
 7    1  0.6065977E-013  0.5930199E+02  0.7816164E-02  0.1266605E+00
        -11   -1    0    0    0    0  0.00000000000E+00  0.00000000000E+00  0.45593999997E+02  0.45594000000E+02  0.51100000000E-03 0.  1.
         11   -1    0    0    0    0 -0.00000000000E+00 -0.00000000000E+00 -0.45593999997E+02  0.45594000000E+02  0.51100000000E-03 0. -1.
    9900012    2    1    2    0    0  0.68091870055E+01  0.19021117732E+02 -0.24668802617E+02  0.59301987863E+02  0.50000079945E+02 0.  0.
        -12    1    1    2    0    0 -0.68091870055E+01 -0.19021117732E+02  0.24668802617E+02  0.31886012137E+02  0.00000000000E+00 0.  1.
         11    1    3    3    0    0  0.12810701498E+02  0.18271960134E+02 -0.16692499329E+02  0.27867869207E+02  0.51100000000E-03 0. -1.
        -11    1    3    3    0    0 -0.74212205633E+01 -0.13045211818E+02  0.78864130141E+00  0.15029105808E+02  0.51100000000E-03 0.  1.
        -12    1    3    3    0    0  0.14197060705E+01  0.13794369415E+02 -0.87649445895E+01  0.16405012848E+02  0.00000000000E+00 0.  1.
</event>
<event>
 7    1  0.6065977E-013  0.5930195E+02  0.7816164E-02  0.1266605E+00
        -11   -1    0    0    0    0  0.00000000000E+00  0.00000000000E+00  0.45593999997E+02  0.45594000000E+02  0.51100000000E-03 0. -1.
         11   -1    0    0    0    0 -0.00000000000E+00 -0.00000000000E+00 -0.45593999997E+02  0.45594000000E+02  0.51100000000E-03 0.  1.
    9900012    2    1    2    0    0  0.12210025439E+02  0.28603914778E+02  0.70321872955E+01  0.59301947877E+02  0.50000007019E+02 0.  0.
        -12    1    1    2    0    0 -0.12210025439E+02 -0.28603914778E+02 -0.70321872955E+01  0.31886052123E+02  0.00000000000E+00 0.  1.
         11    1    3    3    0    0  0.21619126025E+02  0.48199889670E+01  0.88385914971E+01  0.23848262068E+02  0.51100000000E-03 0. -1.
        -11    1    3    3    0    0 -0.92197428721E+01  0.79898736705E+01 -0.11628052053E+02  0.16853881888E+02  0.51100000000E-03 0.  1.
        -12    1    3    3    0    0 -0.18935771441E+00  0.15794052141E+02  0.98216478514E+01  0.18599803921E+02  0.00000000000E+00 0.  1.
</event>
<event>
 7    1  0.6065977E-013  0.5930194E+02  0.7816164E-02  0.1266605E+00
        -11   -1    0    0    0    0  0.00000000000E+00  0.00000000000E+00  0.45593999997E+02  0.45594000000E+02  0.51100000000E-03 0. -1.
         11   -1    0    0    0    0 -0.00000000000E+00 -0.00000000000E+00 -0.45593999997E+02  0.45594000000E+02  0.51100000000E-03 0.  1.
    9900012    2    1    2    0    0 -0.22422811716E+02 -0.22121461508E+02  0.49577604890E+01  0.59301938255E+02  0.49999989472E+02 0.  0.
        -12    1    1    2    0    0  0.22422811716E+02  0.22121461508E+02 -0.49577604890E+01  0.31886061745E+02  0.00000000000E+00 0.  1.
         11    1    3    3    0    0 -0.22953667214E+01 -0.14928695781E+02  0.10741215668E+02  0.18533979076E+02  0.51100000000E-03 0. -1.
        -11    1    3    3    0    0 -0.22437317904E+02 -0.54451538618E+01 -0.17326679473E+02  0.28866879934E+02  0.51100000000E-03 0.  1.
        -12    1    3    3    0    0  0.23098729089E+01 -0.17476118656E+01  0.11543224294E+02  0.11901079245E+02  0.00000000000E+00 0.  1.
</event>
<event>
 7    1  0.6065977E-013  0.5930195E+02  0.7816164E-02  0.1266605E+00
        -11   -1    0    0    0    0  0.00000000000E+00  0.00000000000E+00  0.45593999997E+02  0.45594000000E+02  0.51100000000E-03 0. -1.
         11   -1    0    0    0    0 -0.00000000000E+00 -0.00000000000E+00 -0.45593999997E+02  0.45594000000E+02  0.51100000000E-03 0.  1.
    9900012    2    1    2    0    0 -0.26919372283E+01 -0.30616570878E+02 -0.84911106197E+01  0.59301954495E+02  0.50000019090E+02 0.  0.
        -12    1    1    2    0    0  0.26919372283E+01  0.30616570878E+02  0.84911106197E+01  0.31886045505E+02  0.00000000000E+00 0.  1.
         11    1    3    3    0    0  0.13103709221E+02 -0.53654728130E+01  0.10587435201E+02  0.17680194520E+02  0.51100000000E-03 0. -1.
        -11    1    3    3    0    0 -0.13317849946E+02 -0.28220466859E+02 -0.11766229863E+02  0.33349723273E+02  0.51100000000E-03 0.  1.
        -12    1    3    3    0    0 -0.24777965033E+01  0.29693687938E+01 -0.73123159581E+01  0.82720367030E+01  0.00000000000E+00 0.  1.
</event>
<event>
 7    1  0.6065977E-013  0.5930192E+02  0.7816164E-02  0.1266605E+00
        -11   -1    0    0    0    0  0.00000000000E+00  0.00000000000E+00  0.45593999997E+02  0.45594000000E+02  0.51100000000E-03 0. -1.
         11   -1    0    0    0    0 -0.00000000000E+00 -0.00000000000E+00 -0.45593999997E+02  0.45594000000E+02  0.51100000000E-03 0.  1.
    9900012    2    1    2    0    0  0.19280198606E+02 -0.24778376774E+02 -0.55702959633E+01  0.59301918225E+02  0.49999952941E+02 0.  0.
        -12    1    1    2    0    0 -0.19280198606E+02  0.24778376774E+02  0.55702959633E+01  0.31886081775E+02  0.00000000000E+00 0.  1.
         11    1    3    3    0    0  0.11005950595E+02  0.10176841957E+02  0.28606855251E+01  0.15260490905E+02  0.51100000000E-03 0. -1.
        -11    1    3    3    0    0 -0.43914985049E+01 -0.22576181134E+02  0.26477513372E+01  0.23151237572E+02  0.51100000000E-03 0.  1.
         12    1    3    3    0    0  0.12665746516E+02 -0.12379037597E+02 -0.11078732826E+02  0.20890189747E+02  0.00000000000E+00 0. -1.
</event>
<event>
 7    1  0.6065977E-013  0.5930194E+02  0.7816164E-02  0.1266605E+00
        -11   -1    0    0    0    0  0.00000000000E+00  0.00000000000E+00  0.45593999997E+02  0.45594000000E+02  0.51100000000E-03 0.  1.
         11   -1    0    0    0    0 -0.00000000000E+00 -0.00000000000E+00 -0.45593999997E+02  0.45594000000E+02  0.51100000000E-03 0. -1.
    9900012    2    1    2    0    0 -0.26759921291E+02  0.16492492788E+02  0.53502666269E+01  0.59301936291E+02  0.49999985890E+02 0.  0.
        -12    1    1    2    0    0  0.26759921291E+02 -0.16492492788E+02 -0.53502666269E+01  0.31886063709E+02  0.00000000000E+00 0.  1.
         11    1    3    3    0    0 -0.11845127677E+02 -0.11625379767E+01 -0.14227831968E+02  0.18549656250E+02  0.51100000000E-03 0. -1.
        -11    1    3    3    0    0  0.11244783166E+01  0.13397186941E+02  0.20062241844E+02  0.24150416507E+02  0.51100000000E-03 0.  1.
        -12    1    3    3    0    0 -0.16039271931E+02  0.42578438238E+01 -0.48414324832E+00  0.16601863534E+02  0.00000000000E+00 0.  1.
</event>
<event>
 7    1  0.6065977E-013  0.5930195E+02  0.7816164E-02  0.1266605E+00
        -11   -1    0    0    0    0  0.00000000000E+00  0.00000000000E+00  0.45593999997E+02  0.45594000000E+02  0.51100000000E-03 0.  1.
         11   -1    0    0    0    0 -0.00000000000E+00 -0.00000000000E+00 -0.45593999997E+02  0.45594000000E+02  0.51100000000E-03 0. -1.
    9900012    2    1    2    0    0  0.37532595551E+01 -0.15061662164E+02 -0.27852819229E+02  0.59301950332E+02  0.50000011498E+02 0.  0.
        -12    1    1    2    0    0 -0.37532595551E+01  0.15061662164E+02  0.27852819229E+02  0.31886049668E+02  0.00000000000E+00 0.  1.
         11    1    3    3    0    0 -0.15189131965E+02  0.78080378522E+01 -0.23109567867E+02  0.28735471324E+02  0.51100000000E-03 0. -1.
        -11    1    3    3    0    0  0.12995708921E+02 -0.11451947931E+02 -0.25899167492E+01  0.17514086639E+02  0.51100000000E-03 0.  1.
         12    1    3    3    0    0  0.59466825986E+01 -0.11417752085E+02 -0.21533346127E+01  0.13052392369E+02  0.00000000000E+00 0. -1.
</event>
<event>
 7    1  0.6065977E-013  0.5930194E+02  0.7816164E-02  0.1266605E+00
        -11   -1    0    0    0    0  0.00000000000E+00  0.00000000000E+00  0.45593999997E+02  0.45594000000E+02  0.51100000000E-03 0.  1.
         11   -1    0    0    0    0 -0.00000000000E+00 -0.00000000000E+00 -0.45593999997E+02  0.45594000000E+02  0.51100000000E-03 0. -1.
    9900012    2    1    2    0    0 -0.24063515109E+01 -0.31789377555E+02  0.60456303308E+00  0.59301944280E+02  0.50000000459E+02 0.  0.
        -12    1    1    2    0    0  0.24063515109E+01  0.31789377555E+02 -0.60456303308E+00  0.31886055720E+02  0.00000000000E+00 0.  1.
         11    1    3    3    0    0  0.43006154237E+01  0.10421239930E+02 -0.36769389737E+01  0.11858221417E+02  0.51100000000E-03 0.  1.
        -11    1    3    3    0    0  0.36305979117E+01 -0.27885639449E+02 -0.31135288239E+01  0.28292829315E+02  0.51100000000E-03 0. -1.
        -12    1    3    3    0    0 -0.10337564846E+02 -0.14324978036E+02  0.73950308307E+01  0.19150893548E+02  0.00000000000E+00 0.  1.
</event>
<event>
 7    1  0.6065977E-013  0.5930194E+02  0.7816164E-02  0.1266605E+00
        -11   -1    0    0    0    0  0.00000000000E+00  0.00000000000E+00  0.45593999997E+02  0.45594000000E+02  0.51100000000E-03 0.  1.
         11   -1    0    0    0    0 -0.00000000000E+00 -0.00000000000E+00 -0.45593999997E+02  0.45594000000E+02  0.51100000000E-03 0. -1.
    9900012    2    1    2    0    0  0.17591958978E+02 -0.96471504064E+01 -0.24782579150E+02  0.59301940962E+02  0.49999994410E+02 0.  0.
        -12    1    1    2    0    0 -0.17591958978E+02  0.96471504064E+01  0.24782579150E+02  0.31886059038E+02  0.00000000000E+00 0.  1.
         11    1    3    3    0    0  0.18344257283E+02 -0.22714085988E+02 -0.29254115568E+02  0.41330917670E+02  0.51100000000E-03 0. -1.
        -11    1    3    3    0    0 -0.42447422182E+01  0.10005547468E+02  0.67538846781E+01  0.12796240664E+02  0.51100000000E-03 0.  1.
         12    1    3    3    0    0  0.34924439131E+01  0.30613881134E+01 -0.22823482592E+01  0.51747826276E+01  0.00000000000E+00 0. -1.
</event>
<event>
 7    1  0.6065977E-013  0.5930196E+02  0.7816164E-02  0.1266605E+00
        -11   -1    0    0    0    0  0.00000000000E+00  0.00000000000E+00  0.45593999997E+02  0.45594000000E+02  0.51100000000E-03 0.  1.
         11   -1    0    0    0    0 -0.00000000000E+00 -0.00000000000E+00 -0.45593999997E+02  0.45594000000E+02  0.51100000000E-03 0. -1.
    9900012    2    1    2    0    0 -0.24979857029E+02 -0.15964615885E+01 -0.19752921638E+02  0.59301955089E+02  0.50000020174E+02 0.  0.
        -12    1    1    2    0    0  0.24979857029E+02  0.15964615885E+01  0.19752921638E+02  0.31886044911E+02  0.00000000000E+00 0.  1.
         11    1    3    3    0    0 -0.20682518154E+02  0.86969620341E+01 -0.42086773317E+01  0.22827980002E+02  0.51100000000E-03 0.  1.
        -11    1    3    3    0    0  0.47620021257E+01 -0.12251531587E+02 -0.21683579400E+02  0.25356543659E+02  0.51100000000E-03 0. -1.
        -12    1    3    3    0    0 -0.90593410010E+01  0.19581079648E+01  0.61393350939E+01  0.11117431429E+02  0.00000000000E+00 0.  1.
</event>
<event>
 7    1  0.6065977E-013  0.5930196E+02  0.7816164E-02  0.1266605E+00
        -11   -1    0    0    0    0  0.00000000000E+00  0.00000000000E+00  0.45593999997E+02  0.45594000000E+02  0.51100000000E-03 0. -1.
         11   -1    0    0    0    0 -0.00000000000E+00 -0.00000000000E+00 -0.45593999997E+02  0.45594000000E+02  0.51100000000E-03 0.  1.
    9900012    2    1    2    0    0 -0.67653810616E+01  0.40363682763E+01  0.30897524920E+02  0.59301957662E+02  0.50000024866E+02 0.  0.
        -12    1    1    2    0    0  0.67653810616E+01 -0.40363682763E+01 -0.30897524920E+02  0.31886042338E+02  0.00000000000E+00 0.  1.
         11    1    3    3    0    0 -0.33640915553E+01  0.10506704959E+02  0.26008993691E+02  0.28252003720E+02  0.51100000000E-03 0. -1.
        -11    1    3    3    0    0  0.59453833154E+01  0.49018369236E+01 -0.82716293815E+01  0.11304664563E+02  0.51100000000E-03 0.  1.
        -12    1    3    3    0    0 -0.93466728218E+01 -0.11372173606E+02  0.13160160611E+02  0.19745289379E+02  0.00000000000E+00 0.  1.
</event>
<event>
 7    1  0.6065977E-013  0.5930194E+02  0.7816164E-02  0.1266605E+00
        -11   -1    0    0    0    0  0.00000000000E+00  0.00000000000E+00  0.45593999997E+02  0.45594000000E+02  0.51100000000E-03 0. -1.
         11   -1    0    0    0    0 -0.00000000000E+00 -0.00000000000E+00 -0.45593999997E+02  0.45594000000E+02  0.51100000000E-03 0.  1.
    9900012    2    1    2    0    0 -0.52699539551E+01  0.30559250401E+02  0.74216334594E+01  0.59301939676E+02  0.49999992064E+02 0.  0.
        -12    1    1    2    0    0  0.52699539551E+01 -0.30559250401E+02 -0.74216334594E+01  0.31886060324E+02  0.00000000000E+00 0.  1.
         11    1    3    3    0    0  0.12140429056E+02  0.26583781651E+02  0.16243802076E+02  0.33435737926E+02  0.51100000000E-03 0. -1.
        -11    1    3    3    0    0 -0.21330463329E+01 -0.57985485233E+01 -0.23061915100E+01  0.65948139607E+01  0.51100000000E-03 0.  1.
        -12    1    3    3    0    0 -0.15277336679E+02  0.97740172736E+01 -0.65159771071E+01  0.19271387789E+02  0.00000000000E+00 0.  1.
</event>
<event>
 7    1  0.6065977E-013  0.5930193E+02  0.7816164E-02  0.1266605E+00
        -11   -1    0    0    0    0  0.00000000000E+00  0.00000000000E+00  0.45593999997E+02  0.45594000000E+02  0.51100000000E-03 0.  1.
         11   -1    0    0    0    0 -0.00000000000E+00 -0.00000000000E+00 -0.45593999997E+02  0.45594000000E+02  0.51100000000E-03 0. -1.
    9900012    2    1    2    0    0  0.25889929772E+02  0.38411028309E+01 -0.18212048063E+02  0.59301933620E+02  0.49999981019E+02 0.  0.
        -12    1    1    2    0    0 -0.25889929772E+02 -0.38411028309E+01  0.18212048063E+02  0.31886066380E+02  0.00000000000E+00 0.  1.
         11    1    3    3    0    0 -0.66509896012E+00  0.22582346691E+01 -0.25847129250E+02  0.25954114725E+02  0.51100000000E-03 0.  1.
        -11    1    3    3    0    0  0.22095841021E+02 -0.35399452333E+01 -0.95400312034E+00  0.22397935728E+02  0.51100000000E-03 0. -1.
        -12    1    3    3    0    0  0.44591877110E+01  0.51228133952E+01  0.85890843074E+01  0.10949883167E+02  0.00000000000E+00 0.  1.
</event>
<event>
 7    1  0.6065977E-013  0.5930194E+02  0.7816164E-02  0.1266605E+00
        -11   -1    0    0    0    0  0.00000000000E+00  0.00000000000E+00  0.45593999997E+02  0.45594000000E+02  0.51100000000E-03 0.  1.
         11   -1    0    0    0    0 -0.00000000000E+00 -0.00000000000E+00 -0.45593999997E+02  0.45594000000E+02  0.51100000000E-03 0. -1.
    9900012    2    1    2    0    0  0.96128288785E+01 -0.16608918152E+02 -0.25464840979E+02  0.59301940862E+02  0.49999994227E+02 0.  0.
        -12    1    1    2    0    0 -0.96128288785E+01  0.16608918152E+02  0.25464840979E+02  0.31886059138E+02  0.00000000000E+00 0.  1.
         11    1    3    3    0    0  0.14049014927E+02 -0.25465588961E+02 -0.28735025938E+02  0.40884871988E+02  0.51100000000E-03 0. -1.
        -11    1    3    3    0    0  0.31270652587E+01 -0.25719722392E+01  0.23502951063E+01  0.46816093045E+01  0.51100000000E-03 0.  1.
         12    1    3    3    0    0 -0.75632513070E+01  0.11428643049E+02  0.91988985237E+00  0.13735459570E+02  0.00000000000E+00 0. -1.
</event>
<event>
 7    1  0.6065977E-013  0.5930193E+02  0.7816164E-02  0.1266605E+00
        -11   -1    0    0    0    0  0.00000000000E+00  0.00000000000E+00  0.45593999997E+02  0.45594000000E+02  0.51100000000E-03 0.  1.
         11   -1    0    0    0    0 -0.00000000000E+00 -0.00000000000E+00 -0.45593999997E+02  0.45594000000E+02  0.51100000000E-03 0. -1.
    9900012    2    1    2    0    0 -0.76914085642E+01  0.29785417721E+02 -0.83900107577E+01  0.59301934782E+02  0.49999983139E+02 0.  0.
        -12    1    1    2    0    0  0.76914085642E+01 -0.29785417721E+02  0.83900107577E+01  0.31886065218E+02  0.00000000000E+00 0.  1.
         11    1    3    3    0    0  0.97848601359E+01 -0.92049209210E+01  0.28482017407E+01  0.13732673100E+02  0.51100000000E-03 0. -1.
        -11    1    3    3    0    0 -0.88379676784E+01  0.79334248560E+01 -0.39881967217E+01  0.12528152936E+02  0.51100000000E-03 0.  1.
         12    1    3    3    0    0 -0.86383010217E+01  0.31056913786E+02 -0.72500157767E+01  0.33041108747E+02  0.00000000000E+00 0. -1.
</event>
<event>
 7    1  0.6065977E-013  0.5930194E+02  0.7816164E-02  0.1266605E+00
        -11   -1    0    0    0    0  0.00000000000E+00  0.00000000000E+00  0.45593999997E+02  0.45594000000E+02  0.51100000000E-03 0.  1.
         11   -1    0    0    0    0 -0.00000000000E+00 -0.00000000000E+00 -0.45593999997E+02  0.45594000000E+02  0.51100000000E-03 0. -1.
    9900012    2    1    2    0    0  0.19664314137E+02 -0.16981384883E+02 -0.18484260587E+02  0.59301943918E+02  0.49999999799E+02 0.  0.
        -12    1    1    2    0    0 -0.19664314137E+02  0.16981384883E+02  0.18484260587E+02  0.31886056082E+02  0.00000000000E+00 0.  1.
         11    1    3    3    0    0  0.83102907256E+01  0.10366384900E+02 -0.14492811698E+02  0.19661242560E+02  0.51100000000E-03 0. -1.
        -11    1    3    3    0    0 -0.66435857635E+01 -0.16928525441E+02 -0.48694713101E+01  0.18826150868E+02  0.51100000000E-03 0.  1.
        -12    1    3    3    0    0  0.17997609175E+02 -0.10419244342E+02  0.87802242123E+00  0.20814550489E+02  0.00000000000E+00 0.  1.
</event>
<event>
 7    1  0.6065977E-013  0.5930200E+02  0.7816164E-02  0.1266605E+00
        -11   -1    0    0    0    0  0.00000000000E+00  0.00000000000E+00  0.45593999997E+02  0.45594000000E+02  0.51100000000E-03 0.  1.
         11   -1    0    0    0    0 -0.00000000000E+00 -0.00000000000E+00 -0.45593999997E+02  0.45594000000E+02  0.51100000000E-03 0. -1.
    9900012    2    1    2    0    0  0.29294895523E+02  0.42494067423E+01 -0.11851958400E+02  0.59301995558E+02  0.50000093979E+02 0.  0.
        -12    1    1    2    0    0 -0.29294895523E+02 -0.42494067423E+01  0.11851958400E+02  0.31886004442E+02  0.00000000000E+00 0.  1.
         11    1    3    3    0    0  0.27276146392E+02 -0.18854834299E+02 -0.11128055825E+02  0.34976085618E+02  0.51100000000E-03 0. -1.
        -11    1    3    3    0    0 -0.61889719772E+00  0.11351672447E+01  0.16229020236E+01  0.20749577476E+01  0.51100000000E-03 0.  1.
         12    1    3    3    0    0  0.26376463283E+01  0.21969073797E+02 -0.23468045987E+01  0.22250952192E+02  0.00000000000E+00 0. -1.
</event>
<event>
 7    1  0.6065977E-013  0.5930199E+02  0.7816164E-02  0.1266605E+00
        -11   -1    0    0    0    0  0.00000000000E+00  0.00000000000E+00  0.45593999997E+02  0.45594000000E+02  0.51100000000E-03 0.  1.
         11   -1    0    0    0    0 -0.00000000000E+00 -0.00000000000E+00 -0.45593999997E+02  0.45594000000E+02  0.51100000000E-03 0. -1.
    9900012    2    1    2    0    0  0.29040991369E+02 -0.97510930925E+01 -0.88461751639E+01  0.59301987216E+02  0.50000078766E+02 0.  0.
        -12    1    1    2    0    0 -0.29040991369E+02  0.97510930925E+01  0.88461751639E+01  0.31886012784E+02  0.00000000000E+00 0.  1.
         11    1    3    3    0    0  0.12820421267E+02 -0.12994086925E+02  0.10999739119E+01  0.18287138632E+02  0.51100000000E-03 0. -1.
        -11    1    3    3    0    0  0.93546042142E+00  0.96630091588E+01 -0.19569763861E+02  0.21845468410E+02  0.51100000000E-03 0.  1.
         12    1    3    3    0    0  0.15285109681E+02 -0.64200153266E+01  0.96236147853E+01  0.19169380175E+02  0.00000000000E+00 0. -1.
</event>
<event>
 7    1  0.6065977E-013  0.5930183E+02  0.7816164E-02  0.1266605E+00
        -11   -1    0    0    0    0  0.00000000000E+00  0.00000000000E+00  0.45593999997E+02  0.45594000000E+02  0.51100000000E-03 0.  1.
         11   -1    0    0    0    0 -0.00000000000E+00 -0.00000000000E+00 -0.45593999997E+02  0.45594000000E+02  0.51100000000E-03 0. -1.
    9900012    2    1    2    0    0  0.22992245815E+02  0.17636306465E+02  0.13305822104E+02  0.59301834109E+02  0.49999799535E+02 0.  0.
        -12    1    1    2    0    0 -0.22992245815E+02 -0.17636306465E+02 -0.13305822104E+02  0.31886165891E+02  0.00000000000E+00 0.  1.
         11    1    3    3    0    0  0.20051739318E+02  0.30623419187E+02  0.30043162994E-01  0.36604193137E+02  0.51100000000E-03 0. -1.
        -11    1    3    3    0    0  0.46814253185E+01 -0.97927090360E+01  0.15125010180E+02  0.18616627688E+02  0.51100000000E-03 0.  1.
        -12    1    3    3    0    0 -0.17409188220E+01 -0.31944036852E+01 -0.18492312389E+01  0.40810132840E+01  0.00000000000E+00 0.  1.
</event>
<event>
 7    1  0.6065977E-013  0.5930194E+02  0.7816164E-02  0.1266605E+00
        -11   -1    0    0    0    0  0.00000000000E+00  0.00000000000E+00  0.45593999997E+02  0.45594000000E+02  0.51100000000E-03 0.  1.
         11   -1    0    0    0    0 -0.00000000000E+00 -0.00000000000E+00 -0.45593999997E+02  0.45594000000E+02  0.51100000000E-03 0. -1.
    9900012    2    1    2    0    0  0.14383175150E+02 -0.28444369488E+02  0.87348792728E+00  0.59301939345E+02  0.49999991459E+02 0.  0.
        -12    1    1    2    0    0 -0.14383175150E+02  0.28444369488E+02 -0.87348792728E+00  0.31886060655E+02  0.00000000000E+00 0.  1.
         11    1    3    3    0    0  0.30169639952E+02 -0.10487174357E+02 -0.71290958673E+01  0.32726319820E+02  0.51100000000E-03 0. -1.
        -11    1    3    3    0    0 -0.57126494922E+01 -0.33992860387E+01 -0.98712348807E+00  0.67204109127E+01  0.51100000000E-03 0.  1.
         12    1    3    3    0    0 -0.10073815309E+02 -0.14557909092E+02  0.89897072826E+01  0.19855208612E+02  0.00000000000E+00 0. -1.
</event>
<event>
 7    1  0.6065977E-013  0.5930188E+02  0.7816164E-02  0.1266605E+00
        -11   -1    0    0    0    0  0.00000000000E+00  0.00000000000E+00  0.45593999997E+02  0.45594000000E+02  0.51100000000E-03 0. -1.
         11   -1    0    0    0    0 -0.00000000000E+00 -0.00000000000E+00 -0.45593999997E+02  0.45594000000E+02  0.51100000000E-03 0.  1.
    9900012    2    1    2    0    0 -0.23077967910E+02 -0.45936464359E+01 -0.21518137777E+02  0.59301883211E+02  0.49999889086E+02 0.  0.
        -12    1    1    2    0    0  0.23077967910E+02  0.45936464359E+01  0.21518137777E+02  0.31886116789E+02  0.00000000000E+00 0.  1.
         11    1    3    3    0    0 -0.15212503080E+02  0.47654667252E+01 -0.45778447174E+01  0.16585734400E+02  0.51100000000E-03 0. -1.
        -11    1    3    3    0    0  0.12183619117E+02 -0.25534903643E+01 -0.17571429679E+02  0.21534066709E+02  0.51100000000E-03 0.  1.
        -12    1    3    3    0    0 -0.20049083946E+02 -0.68056227968E+01  0.63113661863E+00  0.21182082102E+02  0.00000000000E+00 0.  1.
</event>
<event>
 7    1  0.6065977E-013  0.5930188E+02  0.7816164E-02  0.1266605E+00
        -11   -1    0    0    0    0  0.00000000000E+00  0.00000000000E+00  0.45593999997E+02  0.45594000000E+02  0.51100000000E-03 0. -1.
         11   -1    0    0    0    0 -0.00000000000E+00 -0.00000000000E+00 -0.45593999997E+02  0.45594000000E+02  0.51100000000E-03 0.  1.
    9900012    2    1    2    0    0 -0.10288202892E+02 -0.58029143889E+01  0.29617627527E+02  0.59301877713E+02  0.49999879058E+02 0.  0.
        -12    1    1    2    0    0  0.10288202892E+02  0.58029143889E+01 -0.29617627527E+02  0.31886122287E+02  0.00000000000E+00 0.  1.
         11    1    3    3    0    0 -0.31945348163E+01  0.13470434319E+02  0.18909005899E+02  0.23435190586E+02  0.51100000000E-03 0. -1.
        -11    1    3    3    0    0 -0.80472726333E+01 -0.18565853195E+02 -0.44031105552E+01  0.20708377158E+02  0.51100000000E-03 0.  1.
        -12    1    3    3    0    0  0.95360455793E+00 -0.70749551232E+00  0.15111732183E+02  0.15158309970E+02  0.00000000000E+00 0.  1.
</event>
<event>
 7    1  0.6065977E-013  0.5930197E+02  0.7816164E-02  0.1266605E+00
        -11   -1    0    0    0    0  0.00000000000E+00  0.00000000000E+00  0.45593999997E+02  0.45594000000E+02  0.51100000000E-03 0. -1.
         11   -1    0    0    0    0 -0.00000000000E+00 -0.00000000000E+00 -0.45593999997E+02  0.45594000000E+02  0.51100000000E-03 0.  1.
    9900012    2    1    2    0    0 -0.43167066854E+01  0.16682467515E+02  0.26828720536E+02  0.59301969758E+02  0.50000046927E+02 0.  0.
        -12    1    1    2    0    0  0.43167066854E+01 -0.16682467515E+02 -0.26828720536E+02  0.31886030242E+02  0.00000000000E+00 0.  1.
         11    1    3    3    0    0 -0.22220016578E+01  0.13426449715E+02  0.34856273295E+02  0.37418800510E+02  0.51100000000E-03 0. -1.
        -11    1    3    3    0    0  0.22577074694E+01  0.11124733522E+02 -0.40778871457E+01  0.12061762010E+02  0.51100000000E-03 0.  1.
         12    1    3    3    0    0 -0.43524124970E+01 -0.78687157229E+01 -0.39496656139E+01  0.98214072379E+01  0.00000000000E+00 0. -1.
</event>
<event>
 7    1  0.6065977E-013  0.5930192E+02  0.7816164E-02  0.1266605E+00
        -11   -1    0    0    0    0  0.00000000000E+00  0.00000000000E+00  0.45593999997E+02  0.45594000000E+02  0.51100000000E-03 0.  1.
         11   -1    0    0    0    0 -0.00000000000E+00 -0.00000000000E+00 -0.45593999997E+02  0.45594000000E+02  0.51100000000E-03 0. -1.
    9900012    2    1    2    0    0 -0.39560085773E+01  0.14657361946E+02 -0.28039862077E+02  0.59301919520E+02  0.49999955303E+02 0.  0.
        -12    1    1    2    0    0  0.39560085773E+01 -0.14657361946E+02  0.28039862077E+02  0.31886080480E+02  0.00000000000E+00 0.  1.
         11    1    3    3    0    0 -0.15883910358E+02  0.11316051544E+02  0.51008106013E+01  0.20158618501E+02  0.51100000000E-03 0. -1.
        -11    1    3    3    0    0  0.70893230076E+01  0.10102524418E+02 -0.17269686051E+02  0.21226435332E+02  0.51100000000E-03 0.  1.
        -12    1    3    3    0    0  0.48385787734E+01 -0.67612140161E+01 -0.15870986627E+02  0.17916865687E+02  0.00000000000E+00 0.  1.
</event>
<event>
 7    1  0.6065977E-013  0.5930195E+02  0.7816164E-02  0.1266605E+00
        -11   -1    0    0    0    0  0.00000000000E+00  0.00000000000E+00  0.45593999997E+02  0.45594000000E+02  0.51100000000E-03 0.  1.
         11   -1    0    0    0    0 -0.00000000000E+00 -0.00000000000E+00 -0.45593999997E+02  0.45594000000E+02  0.51100000000E-03 0. -1.
    9900012    2    1    2    0    0 -0.29132317524E+02 -0.43703496222E+01  0.12203623135E+02  0.59301948226E+02  0.50000007656E+02 0.  0.
        -12    1    1    2    0    0  0.29132317524E+02  0.43703496222E+01 -0.12203623135E+02  0.31886051774E+02  0.00000000000E+00 0.  1.
         11    1    3    3    0    0  0.13098092704E+02  0.31347688729E+01  0.49155723263E+01  0.14337003171E+02  0.51100000000E-03 0. -1.
        -11    1    3    3    0    0 -0.17630778040E+02 -0.82332683945E+01  0.58226896873E+01  0.20310951682E+02  0.51100000000E-03 0.  1.
        -12    1    3    3    0    0 -0.24599632187E+02  0.72814989944E+00  0.14653611219E+01  0.24653993373E+02  0.00000000000E+00 0.  1.
</event>
<event>
 7    1  0.6065977E-013  0.5930194E+02  0.7816164E-02  0.1266605E+00
        -11   -1    0    0    0    0  0.00000000000E+00  0.00000000000E+00  0.45593999997E+02  0.45594000000E+02  0.51100000000E-03 0.  1.
         11   -1    0    0    0    0 -0.00000000000E+00 -0.00000000000E+00 -0.45593999997E+02  0.45594000000E+02  0.51100000000E-03 0. -1.
    9900012    2    1    2    0    0 -0.10678850885E+02 -0.34205946260E+01 -0.29849329274E+02  0.59301940634E+02  0.49999993810E+02 0.  0.
        -12    1    1    2    0    0  0.10678850885E+02  0.34205946260E+01  0.29849329274E+02  0.31886059366E+02  0.00000000000E+00 0.  1.
         11    1    3    3    0    0  0.43786257879E+01 -0.26669283708E+01 -0.11510450910E+02  0.12600609157E+02  0.51100000000E-03 0. -1.
        -11    1    3    3    0    0 -0.24045882650E+02 -0.11327994653E+02 -0.19210131632E+02  0.32795687108E+02  0.51100000000E-03 0.  1.
        -12    1    3    3    0    0  0.89884059770E+01  0.10574328398E+02  0.87125326818E+00  0.13905644369E+02  0.00000000000E+00 0.  1.
</event>
<event>
 7    1  0.6065977E-013  0.5930190E+02  0.7816164E-02  0.1266605E+00
        -11   -1    0    0    0    0  0.00000000000E+00  0.00000000000E+00  0.45593999997E+02  0.45594000000E+02  0.51100000000E-03 0.  1.
         11   -1    0    0    0    0 -0.00000000000E+00 -0.00000000000E+00 -0.45593999997E+02  0.45594000000E+02  0.51100000000E-03 0. -1.
    9900012    2    1    2    0    0  0.70897216181E+01  0.30969988310E+02  0.27054057476E+01  0.59301897246E+02  0.49999914682E+02 0.  0.
        -12    1    1    2    0    0 -0.70897216181E+01 -0.30969988310E+02 -0.27054057476E+01  0.31886102754E+02  0.00000000000E+00 0.  1.
         11    1    3    3    0    0 -0.10605616215E+02  0.29126343551E+02 -0.23283186032E+01  0.31084466406E+02  0.51100000000E-03 0. -1.
        -11    1    3    3    0    0  0.16644673834E+02 -0.24562983120E+01 -0.47469314033E+01  0.17481759821E+02  0.51100000000E-03 0.  1.
         12    1    3    3    0    0  0.10506639988E+01  0.42999430712E+01  0.97806557540E+01  0.10735671019E+02  0.00000000000E+00 0. -1.
</event>
<event>
 7    1  0.6065977E-013  0.5930193E+02  0.7816164E-02  0.1266605E+00
        -11   -1    0    0    0    0  0.00000000000E+00  0.00000000000E+00  0.45593999997E+02  0.45594000000E+02  0.51100000000E-03 0.  1.
         11   -1    0    0    0    0 -0.00000000000E+00 -0.00000000000E+00 -0.45593999997E+02  0.45594000000E+02  0.51100000000E-03 0. -1.
    9900012    2    1    2    0    0 -0.48693587634E+01  0.39305914279E+01 -0.31265978771E+02  0.59301927299E+02  0.49999969492E+02 0.  0.
        -12    1    1    2    0    0  0.48693587634E+01 -0.39305914279E+01  0.31265978771E+02  0.31886072701E+02  0.00000000000E+00 0.  1.
         11    1    3    3    0    0 -0.16794178148E+02  0.31308990840E+01 -0.32046156485E+02  0.36315328644E+02  0.51100000000E-03 0. -1.
        -11    1    3    3    0    0 -0.29581819112E+01 -0.35434170862E+01  0.51134244045E+01  0.68886685410E+01  0.51100000000E-03 0.  1.
         12    1    3    3    0    0  0.14883001296E+02  0.43431094300E+01 -0.43332466906E+01  0.16097930115E+02  0.00000000000E+00 0. -1.
</event>
<event>
 7    1  0.6065977E-013  0.5930193E+02  0.7816164E-02  0.1266605E+00
        -11   -1    0    0    0    0  0.00000000000E+00  0.00000000000E+00  0.45593999997E+02  0.45594000000E+02  0.51100000000E-03 0. -1.
         11   -1    0    0    0    0 -0.00000000000E+00 -0.00000000000E+00 -0.45593999997E+02  0.45594000000E+02  0.51100000000E-03 0.  1.
    9900012    2    1    2    0    0  0.23387252886E+02 -0.12520115209E+02  0.17691930234E+02  0.59301932857E+02  0.49999979628E+02 0.  0.
        -12    1    1    2    0    0 -0.23387252886E+02  0.12520115209E+02 -0.17691930234E+02  0.31886067143E+02  0.00000000000E+00 0.  1.
         11    1    3    3    0    0  0.34259869217E+02  0.26709599482E+01  0.62336724919E+01  0.34924652308E+02  0.51100000000E-03 0. -1.
        -11    1    3    3    0    0 -0.68400480214E+01 -0.36142619326E+01  0.90110303030E+01  0.11876355234E+02  0.51100000000E-03 0.  1.
         12    1    3    3    0    0 -0.40325683100E+01 -0.11576813225E+02  0.24472274395E+01  0.12500925316E+02  0.00000000000E+00 0. -1.
</event>
<event>
 7    1  0.6065977E-013  0.5930194E+02  0.7816164E-02  0.1266605E+00
        -11   -1    0    0    0    0  0.00000000000E+00  0.00000000000E+00  0.45593999997E+02  0.45594000000E+02  0.51100000000E-03 0. -1.
         11   -1    0    0    0    0 -0.00000000000E+00 -0.00000000000E+00 -0.45593999997E+02  0.45594000000E+02  0.51100000000E-03 0.  1.
    9900012    2    1    2    0    0 -0.25086331516E+02  0.12120872347E+02  0.15507450092E+02  0.59301943741E+02  0.49999999477E+02 0.  0.
        -12    1    1    2    0    0  0.25086331516E+02 -0.12120872347E+02 -0.15507450092E+02  0.31886056259E+02  0.00000000000E+00 0.  1.
         11    1    3    3    0    0 -0.21228528660E+02 -0.12136636117E+02  0.59232019656E+01  0.25160140840E+02  0.51100000000E-03 0. -1.
        -11    1    3    3    0    0 -0.98302717718E+01  0.24702508914E+02  0.92265988039E+01  0.28142109293E+02  0.51100000000E-03 0.  1.
        -12    1    3    3    0    0  0.59724689157E+01 -0.44500044951E+00  0.35764932212E+00  0.59996936077E+01  0.00000000000E+00 0.  1.
</event>
<event>
 7    1  0.6152005E-013  0.5930195E+02  0.7816164E-02  0.1266605E+00
        -11   -1    0    0    0    0  0.00000000000E+00  0.00000000000E+00  0.45593999997E+02  0.45594000000E+02  0.51100000000E-03 0. -1.
         11   -1    0    0    0    0 -0.00000000000E+00 -0.00000000000E+00 -0.45593999997E+02  0.45594000000E+02  0.51100000000E-03 0.  1.
    9900012    2    1    2    0    0  0.23460880627E+02  0.20137745563E+02  0.77960474338E+01  0.59301951770E+02  0.50000014120E+02 0.  0.
        -12    1    1    2    0    0 -0.23460880627E+02 -0.20137745563E+02 -0.77960474338E+01  0.31886048230E+02  0.00000000000E+00 0.  1.
         11    1    3    3    0    0  0.94244212948E+01  0.16013254953E+02 -0.12953907861E+02  0.22650558051E+02  0.51100000000E-03 0. -1.
        -11    1    3    3    0    0  0.58248511890E+01  0.13982300736E+02  0.18008810344E+02  0.23531911854E+02  0.51100000000E-03 0.  1.
         12    1    3    3    0    0  0.82116081427E+01 -0.98578101253E+01  0.27411449507E+01  0.13119481865E+02  0.00000000000E+00 0. -1.
</event>
<event>
 7    1  0.6065977E-013  0.5930195E+02  0.7816164E-02  0.1266605E+00
        -11   -1    0    0    0    0  0.00000000000E+00  0.00000000000E+00  0.45593999997E+02  0.45594000000E+02  0.51100000000E-03 0. -1.
         11   -1    0    0    0    0 -0.00000000000E+00 -0.00000000000E+00 -0.45593999997E+02  0.45594000000E+02  0.51100000000E-03 0.  1.
    9900012    2    1    2    0    0  0.28491286135E+02  0.13379980053E+01  0.14253991232E+02  0.59301954615E+02  0.50000019308E+02 0.  0.
        -12    1    1    2    0    0 -0.28491286135E+02 -0.13379980053E+01 -0.14253991232E+02  0.31886045385E+02  0.00000000000E+00 0.  1.
         11    1    3    3    0    0 -0.33339749229E+01 -0.73165737366E+01  0.22142895868E+02  0.23557493027E+02  0.51100000000E-03 0. -1.
        -11    1    3    3    0    0  0.18534883369E+02  0.10170904794E+02 -0.23716795696E+01  0.21274728437E+02  0.51100000000E-03 0.  1.
        -12    1    3    3    0    0  0.13290377689E+02 -0.15163330521E+01 -0.55172250665E+01  0.14469733151E+02  0.00000000000E+00 0.  1.
</event>
<event>
 7    1  0.6065977E-013  0.5930193E+02  0.7816164E-02  0.1266605E+00
        -11   -1    0    0    0    0  0.00000000000E+00  0.00000000000E+00  0.45593999997E+02  0.45594000000E+02  0.51100000000E-03 0. -1.
         11   -1    0    0    0    0 -0.00000000000E+00 -0.00000000000E+00 -0.45593999997E+02  0.45594000000E+02  0.51100000000E-03 0.  1.
    9900012    2    1    2    0    0  0.27187148830E+02  0.12825118684E+02  0.10634691686E+02  0.59301930973E+02  0.49999976191E+02 0.  0.
        -12    1    1    2    0    0 -0.27187148830E+02 -0.12825118684E+02 -0.10634691686E+02  0.31886069027E+02  0.00000000000E+00 0.  1.
         11    1    3    3    0    0  0.25092704628E+02  0.49976118424E+01  0.12155585649E+02  0.28326281302E+02  0.51100000000E-03 0. -1.
        -11    1    3    3    0    0 -0.20499129836E+01 -0.59987056792E+01  0.10450697632E+02  0.12223080394E+02  0.51100000000E-03 0.  1.
         12    1    3    3    0    0  0.41443571856E+01  0.13826212521E+02 -0.11971591595E+02  0.18752569277E+02  0.00000000000E+00 0. -1.
</event>
<event>
 7    1  0.6065977E-013  0.5930199E+02  0.7816164E-02  0.1266605E+00
        -11   -1    0    0    0    0  0.00000000000E+00  0.00000000000E+00  0.45593999997E+02  0.45594000000E+02  0.51100000000E-03 0.  1.
         11   -1    0    0    0    0 -0.00000000000E+00 -0.00000000000E+00 -0.45593999997E+02  0.45594000000E+02  0.51100000000E-03 0. -1.
    9900012    2    1    2    0    0 -0.26255558559E+01 -0.42250528670E+00 -0.31774924572E+02  0.59301986047E+02  0.50000076633E+02 0.  0.
        -12    1    1    2    0    0  0.26255558559E+01  0.42250528670E+00  0.31774924572E+02  0.31886013953E+02  0.00000000000E+00 0.  1.
         11    1    3    3    0    0 -0.32923271938E+00 -0.19726719850E+02 -0.91624503651E+01  0.21753215099E+02  0.51100000000E-03 0. -1.
        -11    1    3    3    0    0 -0.98318541438E+01  0.78773953422E+01 -0.19964454039E+02  0.23607162866E+02  0.51100000000E-03 0.  1.
         12    1    3    3    0    0  0.75355310073E+01  0.11426819221E+02 -0.26480201683E+01  0.13941608081E+02  0.00000000000E+00 0. -1.
</event>
<event>
 7    1  0.6065977E-013  0.5930195E+02  0.7816164E-02  0.1266605E+00
        -11   -1    0    0    0    0  0.00000000000E+00  0.00000000000E+00  0.45593999997E+02  0.45594000000E+02  0.51100000000E-03 0.  1.
         11   -1    0    0    0    0 -0.00000000000E+00 -0.00000000000E+00 -0.45593999997E+02  0.45594000000E+02  0.51100000000E-03 0. -1.
    9900012    2    1    2    0    0  0.10131909295E+02 -0.10596235738E+02 -0.28315800067E+02  0.59301947701E+02  0.50000006699E+02 0.  0.
        -12    1    1    2    0    0 -0.10131909295E+02  0.10596235738E+02  0.28315800067E+02  0.31886052299E+02  0.00000000000E+00 0.  1.
         11    1    3    3    0    0 -0.16933075781E+02 -0.58782680539E+01 -0.17629826083E+02  0.25141476860E+02  0.51100000000E-03 0. -1.
        -11    1    3    3    0    0  0.91934396099E+01  0.32630071025E+01  0.30818401195E+01  0.10230556485E+02  0.51100000000E-03 0.  1.
         12    1    3    3    0    0  0.17871545466E+02 -0.79809747868E+01 -0.13767814104E+02  0.23929914356E+02  0.00000000000E+00 0. -1.
</event>
<event>
 7    1  0.6065977E-013  0.5930194E+02  0.7816164E-02  0.1266605E+00
        -11   -1    0    0    0    0  0.00000000000E+00  0.00000000000E+00  0.45593999997E+02  0.45594000000E+02  0.51100000000E-03 0.  1.
         11   -1    0    0    0    0 -0.00000000000E+00 -0.00000000000E+00 -0.45593999997E+02  0.45594000000E+02  0.51100000000E-03 0. -1.
    9900012    2    1    2    0    0 -0.11345654190E+02 -0.29055405535E+02 -0.66166783809E+01  0.59301938898E+02  0.49999990644E+02 0.  0.
        -12    1    1    2    0    0  0.11345654190E+02  0.29055405535E+02  0.66166783809E+01  0.31886061102E+02  0.00000000000E+00 0.  1.
         11    1    3    3    0    0  0.14955579648E+02 -0.36622928027E+01 -0.13415803148E+02  0.20422182194E+02  0.51100000000E-03 0. -1.
        -11    1    3    3    0    0 -0.16485123154E+02 -0.80522671486E+01  0.36472360441E+01  0.18705630774E+02  0.51100000000E-03 0.  1.
         12    1    3    3    0    0 -0.98161106840E+01 -0.17340845584E+02  0.31518887229E+01  0.20174125930E+02  0.00000000000E+00 0. -1.
</event>
<event>
 7    1  0.6065977E-013  0.5930192E+02  0.7816164E-02  0.1266605E+00
        -11   -1    0    0    0    0  0.00000000000E+00  0.00000000000E+00  0.45593999997E+02  0.45594000000E+02  0.51100000000E-03 0. -1.
         11   -1    0    0    0    0 -0.00000000000E+00 -0.00000000000E+00 -0.45593999997E+02  0.45594000000E+02  0.51100000000E-03 0.  1.
    9900012    2    1    2    0    0  0.68844448206E+01  0.15417846449E+02  0.27048412686E+02  0.59301918421E+02  0.49999953300E+02 0.  0.
        -12    1    1    2    0    0 -0.68844448206E+01 -0.15417846449E+02 -0.27048412686E+02  0.31886081579E+02  0.00000000000E+00 0.  1.
         11    1    3    3    0    0  0.14426754650E+02  0.20143246949E+02  0.29604111816E+02  0.38604210703E+02  0.51100000000E-03 0. -1.
        -11    1    3    3    0    0 -0.19884962432E+01 -0.10151226595E+02  0.34256558777E+01  0.10896634211E+02  0.51100000000E-03 0.  1.
        -12    1    3    3    0    0 -0.55538135861E+01  0.54258260949E+01 -0.59813550070E+01  0.98010735065E+01  0.00000000000E+00 0.  1.
</event>
<event>
 7    1  0.6065977E-013  0.5930198E+02  0.7816164E-02  0.1266605E+00
        -11   -1    0    0    0    0  0.00000000000E+00  0.00000000000E+00  0.45593999997E+02  0.45594000000E+02  0.51100000000E-03 0.  1.
         11   -1    0    0    0    0 -0.00000000000E+00 -0.00000000000E+00 -0.45593999997E+02  0.45594000000E+02  0.51100000000E-03 0. -1.
    9900012    2    1    2    0    0 -0.15410495206E+02 -0.83609661184E+01 -0.26633234726E+02  0.59301979413E+02  0.50000064534E+02 0.  0.
        -12    1    1    2    0    0  0.15410495206E+02  0.83609661184E+01  0.26633234726E+02  0.31886020587E+02  0.00000000000E+00 0.  1.
         11    1    3    3    0    0 -0.15393700840E+02 -0.14803866108E+02 -0.33385310577E+02  0.39632050664E+02  0.51100000000E-03 0. -1.
        -11    1    3    3    0    0 -0.84187904356E+01  0.46838458967E+01  0.51958818829E+01  0.10945850062E+02  0.51100000000E-03 0.  1.
         12    1    3    3    0    0  0.84019960699E+01  0.17590540927E+01  0.15561939676E+01  0.87240786863E+01  0.00000000000E+00 0. -1.
</event>
<event>
 7    1  0.6065977E-013  0.5930193E+02  0.7816164E-02  0.1266605E+00
        -11   -1    0    0    0    0  0.00000000000E+00  0.00000000000E+00  0.45593999997E+02  0.45594000000E+02  0.51100000000E-03 0.  1.
         11   -1    0    0    0    0 -0.00000000000E+00 -0.00000000000E+00 -0.45593999997E+02  0.45594000000E+02  0.51100000000E-03 0. -1.
    9900012    2    1    2    0    0  0.23078556539E+02 -0.55645189634E+01 -0.21287028283E+02  0.59301933822E+02  0.49999981387E+02 0.  0.
        -12    1    1    2    0    0 -0.23078556539E+02  0.55645189634E+01  0.21287028283E+02  0.31886066178E+02  0.00000000000E+00 0.  1.
         11    1    3    3    0    0  0.47448815998E+01  0.46265322097E+01  0.11317897503E+02  0.13115391944E+02  0.51100000000E-03 0.  1.
        -11    1    3    3    0    0  0.36468230564E+01  0.28120671420E+01 -0.24555004894E+02  0.24983100400E+02  0.51100000000E-03 0. -1.
        -12    1    3    3    0    0  0.14686851882E+02 -0.13003118315E+02 -0.80499208927E+01  0.21203441478E+02  0.00000000000E+00 0.  1.
</event>
<event>
 7    1  0.6065977E-013  0.5930196E+02  0.7816164E-02  0.1266605E+00
        -11   -1    0    0    0    0  0.00000000000E+00  0.00000000000E+00  0.45593999997E+02  0.45594000000E+02  0.51100000000E-03 0.  1.
         11   -1    0    0    0    0 -0.00000000000E+00 -0.00000000000E+00 -0.45593999997E+02  0.45594000000E+02  0.51100000000E-03 0. -1.
    9900012    2    1    2    0    0  0.40495027509E+01 -0.60423347787E+01 -0.31045307260E+02  0.59301962539E+02  0.50000033760E+02 0.  0.
        -12    1    1    2    0    0 -0.40495027509E+01  0.60423347787E+01  0.31045307260E+02  0.31886037461E+02  0.00000000000E+00 0.  1.
         11    1    3    3    0    0 -0.31685371885E+01 -0.13110098705E+01 -0.30741399278E+02  0.30932054646E+02  0.51100000000E-03 0. -1.
        -11    1    3    3    0    0  0.10782774338E+02  0.69451543723E+01 -0.68252320505E+01  0.14528839750E+02  0.51100000000E-03 0.  1.
         12    1    3    3    0    0 -0.35647343983E+01 -0.11676479280E+02  0.65213240689E+01  0.13841068143E+02  0.00000000000E+00 0. -1.
</event>
<event>
 7    1  0.6065977E-013  0.5930195E+02  0.7816164E-02  0.1266605E+00
        -11   -1    0    0    0    0  0.00000000000E+00  0.00000000000E+00  0.45593999997E+02  0.45594000000E+02  0.51100000000E-03 0. -1.
         11   -1    0    0    0    0 -0.00000000000E+00 -0.00000000000E+00 -0.45593999997E+02  0.45594000000E+02  0.51100000000E-03 0.  1.
    9900012    2    1    2    0    0 -0.22659474024E+02  0.52391800486E+01  0.21813290396E+02  0.59301946489E+02  0.50000004488E+02 0.  0.
        -12    1    1    2    0    0  0.22659474024E+02 -0.52391800486E+01 -0.21813290396E+02  0.31886053511E+02  0.00000000000E+00 0.  1.
         11    1    3    3    0    0  0.25743124185E+01  0.44001955151E+01  0.20220417563E+02  0.20853155438E+02  0.51100000000E-03 0. -1.
        -11    1    3    3    0    0 -0.26418778677E+02  0.73916576834E+01 -0.62743970881E+01  0.28141722214E+02  0.51100000000E-03 0.  1.
        -12    1    3    3    0    0  0.11849922343E+01 -0.65526731499E+01  0.78672699208E+01  0.10307068837E+02  0.00000000000E+00 0.  1.
</event>
<event>
 7    1  0.6065977E-013  0.5930196E+02  0.7816164E-02  0.1266605E+00
        -11   -1    0    0    0    0  0.00000000000E+00  0.00000000000E+00  0.45593999997E+02  0.45594000000E+02  0.51100000000E-03 0.  1.
         11   -1    0    0    0    0 -0.00000000000E+00 -0.00000000000E+00 -0.45593999997E+02  0.45594000000E+02  0.51100000000E-03 0. -1.
    9900012    2    1    2    0    0 -0.10112843709E+02  0.26226895722E+02 -0.15053224980E+02  0.59301964665E+02  0.50000037637E+02 0.  0.
        -12    1    1    2    0    0  0.10112843709E+02 -0.26226895722E+02  0.15053224980E+02  0.31886035335E+02  0.00000000000E+00 0.  1.
         11    1    3    3    0    0 -0.70159267298E+00 -0.55130370739E+01 -0.63117713057E+01  0.84097721333E+01  0.51100000000E-03 0. -1.
        -11    1    3    3    0    0 -0.12609148143E+02  0.27514670877E+02  0.96382445705E+01  0.31763870813E+02  0.51100000000E-03 0.  1.
        -12    1    3    3    0    0  0.31978971076E+01  0.42252619189E+01 -0.18379698245E+02  0.19128321719E+02  0.00000000000E+00 0.  1.
</event>
<event>
 7    1  0.6065977E-013  0.5930196E+02  0.7816164E-02  0.1266605E+00
        -11   -1    0    0    0    0  0.00000000000E+00  0.00000000000E+00  0.45593999997E+02  0.45594000000E+02  0.51100000000E-03 0.  1.
         11   -1    0    0    0    0 -0.00000000000E+00 -0.00000000000E+00 -0.45593999997E+02  0.45594000000E+02  0.51100000000E-03 0. -1.
    9900012    2    1    2    0    0 -0.21748215789E+01  0.17620999521E+02 -0.26485663862E+02  0.59301955039E+02  0.50000020082E+02 0.  0.
        -12    1    1    2    0    0  0.21748215789E+01 -0.17620999521E+02  0.26485663862E+02  0.31886044961E+02  0.00000000000E+00 0.  1.
         11    1    3    3    0    0 -0.80314395694E+01  0.19250691674E+02 -0.12579128371E+02  0.24358317313E+02  0.51100000000E-03 0. -1.
        -11    1    3    3    0    0  0.14470346140E+02 -0.75477011270E+01  0.14319979590E+01  0.16383202622E+02  0.51100000000E-03 0.  1.
        -12    1    3    3    0    0 -0.86137281497E+01  0.59180089741E+01 -0.15338533450E+02  0.18560435104E+02  0.00000000000E+00 0.  1.
</event>
<event>
 7    1  0.6065977E-013  0.5930206E+02  0.7816164E-02  0.1266604E+00
        -11   -1    0    0    0    0  0.00000000000E+00  0.00000000000E+00  0.45593999997E+02  0.45594000000E+02  0.51100000000E-03 0.  1.
         11   -1    0    0    0    0 -0.00000000000E+00 -0.00000000000E+00 -0.45593999997E+02  0.45594000000E+02  0.51100000000E-03 0. -1.
    9900012    2    1    2    0    0 -0.18239469237E+02  0.24178860005E+02 -0.99708531995E+01  0.59302056032E+02  0.50000204269E+02 0.  0.
        -12    1    1    2    0    0  0.18239469237E+02 -0.24178860005E+02  0.99708531995E+01  0.31885943968E+02  0.00000000000E+00 0.  1.
         11    1    3    3    0    0  0.55794793427E+01 -0.36084926636E+01 -0.34791568006E+01  0.75004227443E+01  0.51100000000E-03 0. -1.
        -11    1    3    3    0    0 -0.25759839845E+02  0.62082675952E+01 -0.12528731699E+02  0.29310084504E+02  0.51100000000E-03 0.  1.
        -12    1    3    3    0    0  0.19408912647E+01  0.21579085073E+02  0.60370353000E+01  0.22491548784E+02  0.00000000000E+00 0.  1.
</event>
<event>
 7    1  0.6065977E-013  0.5930194E+02  0.7816164E-02  0.1266605E+00
        -11   -1    0    0    0    0  0.00000000000E+00  0.00000000000E+00  0.45593999997E+02  0.45594000000E+02  0.51100000000E-03 0.  1.
         11   -1    0    0    0    0 -0.00000000000E+00 -0.00000000000E+00 -0.45593999997E+02  0.45594000000E+02  0.51100000000E-03 0. -1.
    9900012    2    1    2    0    0 -0.26289873435E+02  0.10946942827E+02 -0.14343218445E+02  0.59301938502E+02  0.49999989922E+02 0.  0.
        -12    1    1    2    0    0  0.26289873435E+02 -0.10946942827E+02  0.14343218445E+02  0.31886061498E+02  0.00000000000E+00 0.  1.
         11    1    3    3    0    0 -0.30347216001E+02  0.17252717019E+02 -0.11190243873E+02  0.36658304949E+02  0.51100000000E-03 0. -1.
        -11    1    3    3    0    0  0.68329492632E+00 -0.94317483723E+01  0.68212633244E+01  0.11659948667E+02  0.51100000000E-03 0.  1.
        -12    1    3    3    0    0  0.33740476391E+01  0.31259741797E+01 -0.99742378972E+01  0.10983684886E+02  0.00000000000E+00 0.  1.
</event>
<event>
 7    1  0.7632145E-013  0.5930193E+02  0.7816164E-02  0.1266605E+00
        -11   -1    0    0    0    0  0.00000000000E+00  0.00000000000E+00  0.45593999997E+02  0.45594000000E+02  0.51100000000E-03 0. -1.
         11   -1    0    0    0    0 -0.00000000000E+00 -0.00000000000E+00 -0.45593999997E+02  0.45594000000E+02  0.51100000000E-03 0.  1.
    9900012    2    1    2    0    0 -0.20924334425E+02 -0.88751526432E+01  0.22363488308E+02  0.59301926004E+02  0.49999967129E+02 0.  0.
        -12    1    1    2    0    0  0.20924334425E+02  0.88751526432E+01 -0.22363488308E+02  0.31886073996E+02  0.00000000000E+00 0.  1.
         11    1    3    3    0    0 -0.50020794265E+00 -0.29515054657E+01  0.31083662414E+02  0.31227482476E+02  0.51100000000E-03 0. -1.
        -11    1    3    3    0    0 -0.78715202570E+01 -0.10638550509E+02 -0.51271860590E+01  0.14192520045E+02  0.51100000000E-03 0.  1.
         12    1    3    3    0    0 -0.12552606225E+02  0.47149033314E+01 -0.35929880463E+01  0.13881923482E+02  0.00000000000E+00 0. -1.
</event>
<event>
 7    1  0.6065977E-013  0.5930194E+02  0.7816164E-02  0.1266605E+00
        -11   -1    0    0    0    0  0.00000000000E+00  0.00000000000E+00  0.45593999997E+02  0.45594000000E+02  0.51100000000E-03 0. -1.
         11   -1    0    0    0    0 -0.00000000000E+00 -0.00000000000E+00 -0.45593999997E+02  0.45594000000E+02  0.51100000000E-03 0.  1.
    9900012    2    1    2    0    0 -0.19024810877E+02  0.24208129379E+02  0.82912045310E+01  0.59301936751E+02  0.49999986728E+02 0.  0.
        -12    1    1    2    0    0  0.19024810877E+02 -0.24208129379E+02 -0.82912045310E+01  0.31886063249E+02  0.00000000000E+00 0.  1.
         11    1    3    3    0    0 -0.32423478134E+01  0.10713398502E+02  0.17805225075E+02  0.21031304454E+02  0.51100000000E-03 0. -1.
        -11    1    3    3    0    0 -0.50059065940E+01  0.66416113457E+01 -0.20055106070E+02  0.21711227092E+02  0.51100000000E-03 0.  1.
        -12    1    3    3    0    0 -0.10776556470E+02  0.68531195319E+01  0.10541085526E+02  0.16559405205E+02  0.00000000000E+00 0.  1.
</event>
<event>
 7    1  0.6065977E-013  0.5930185E+02  0.7816164E-02  0.1266605E+00
        -11   -1    0    0    0    0  0.00000000000E+00  0.00000000000E+00  0.45593999997E+02  0.45594000000E+02  0.51100000000E-03 0. -1.
         11   -1    0    0    0    0 -0.00000000000E+00 -0.00000000000E+00 -0.45593999997E+02  0.45594000000E+02  0.51100000000E-03 0.  1.
    9900012    2    1    2    0    0  0.43757935390E+01 -0.17243295108E+02  0.26462193408E+02  0.59301851358E+02  0.49999830992E+02 0.  0.
        -12    1    1    2    0    0 -0.43757935390E+01  0.17243295108E+02 -0.26462193408E+02  0.31886148642E+02  0.00000000000E+00 0.  1.
         11    1    3    3    0    0  0.22724932550E+01 -0.11314141419E+02 -0.78492402217E+01  0.13956525139E+02  0.51100000000E-03 0.  1.
        -11    1    3    3    0    0  0.63346916983E+01  0.25308876365E+01  0.35190284818E+02  0.35845360327E+02  0.51100000000E-03 0. -1.
        -12    1    3    3    0    0 -0.42313914143E+01 -0.84600413258E+01 -0.87885118815E+00  0.94999658919E+01  0.00000000000E+00 0.  1.
</event>
<event>
 7    1  0.6065977E-013  0.5930195E+02  0.7816164E-02  0.1266605E+00
        -11   -1    0    0    0    0  0.00000000000E+00  0.00000000000E+00  0.45593999997E+02  0.45594000000E+02  0.51100000000E-03 0.  1.
         11   -1    0    0    0    0 -0.00000000000E+00 -0.00000000000E+00 -0.45593999997E+02  0.45594000000E+02  0.51100000000E-03 0. -1.
    9900012    2    1    2    0    0 -0.16990679332E+02  0.26441062498E+02 -0.53765713054E+01  0.59301945224E+02  0.50000002181E+02 0.  0.
        -12    1    1    2    0    0  0.16990679332E+02 -0.26441062498E+02  0.53765713054E+01  0.31886054776E+02  0.00000000000E+00 0.  1.
         11    1    3    3    0    0  0.34261770776E+01 -0.87936662125E+01  0.78418007352E+00  0.94700682929E+01  0.51100000000E-03 0. -1.
        -11    1    3    3    0    0 -0.13290093060E+02  0.38012474747E+02 -0.96742403055E+01  0.41414559465E+02  0.51100000000E-03 0.  1.
         12    1    3    3    0    0 -0.71267633498E+01 -0.27777460362E+01  0.35134889266E+01  0.84173174660E+01  0.00000000000E+00 0. -1.
</event>
<event>
 7    1  0.6065977E-013  0.5930194E+02  0.7816164E-02  0.1266605E+00
        -11   -1    0    0    0    0  0.00000000000E+00  0.00000000000E+00  0.45593999997E+02  0.45594000000E+02  0.51100000000E-03 0. -1.
         11   -1    0    0    0    0 -0.00000000000E+00 -0.00000000000E+00 -0.45593999997E+02  0.45594000000E+02  0.51100000000E-03 0.  1.
    9900012    2    1    2    0    0 -0.16411012346E+02  0.27004621434E+02  0.42602789762E+01  0.59301939065E+02  0.49999990949E+02 0.  0.
        -12    1    1    2    0    0  0.16411012346E+02 -0.27004621434E+02 -0.42602789762E+01  0.31886060935E+02  0.00000000000E+00 0.  1.
         11    1    3    3    0    0 -0.14062577910E+02  0.32029473573E+02  0.15213249278E+02  0.38145592520E+02  0.51100000000E-03 0. -1.
        -11    1    3    3    0    0 -0.77580955824E+01  0.26360023171E+01 -0.76602500341E+01  0.11216772536E+02  0.51100000000E-03 0.  1.
         12    1    3    3    0    0  0.54096611465E+01 -0.76608544561E+01 -0.32927202676E+01  0.99395740089E+01  0.00000000000E+00 0. -1.
</event>
<event>
 7    1  0.6065977E-013  0.5930199E+02  0.7816164E-02  0.1266605E+00
        -11   -1    0    0    0    0  0.00000000000E+00  0.00000000000E+00  0.45593999997E+02  0.45594000000E+02  0.51100000000E-03 0. -1.
         11   -1    0    0    0    0 -0.00000000000E+00 -0.00000000000E+00 -0.45593999997E+02  0.45594000000E+02  0.51100000000E-03 0.  1.
    9900012    2    1    2    0    0 -0.10772435399E+02 -0.25658419321E+02  0.15566554643E+02  0.59301992568E+02  0.50000088526E+02 0.  0.
        -12    1    1    2    0    0  0.10772435399E+02  0.25658419321E+02 -0.15566554643E+02  0.31886007432E+02  0.00000000000E+00 0.  1.
         11    1    3    3    0    0  0.15702713562E+01 -0.12123453183E+02  0.31863525279E+02  0.34128113231E+02  0.51100000000E-03 0. -1.
        -11    1    3    3    0    0 -0.84195605363E+01 -0.10122559597E+02 -0.80739435762E+01  0.15444862497E+02  0.51100000000E-03 0.  1.
         12    1    3    3    0    0 -0.39231462188E+01 -0.34124065415E+01 -0.82230270600E+01  0.97290168408E+01  0.00000000000E+00 0. -1.
</event>
<event>
 7    1  0.6065977E-013  0.5930198E+02  0.7816164E-02  0.1266605E+00
        -11   -1    0    0    0    0  0.00000000000E+00  0.00000000000E+00  0.45593999997E+02  0.45594000000E+02  0.51100000000E-03 0.  1.
         11   -1    0    0    0    0 -0.00000000000E+00 -0.00000000000E+00 -0.45593999997E+02  0.45594000000E+02  0.51100000000E-03 0. -1.
    9900012    2    1    2    0    0 -0.15953221171E+02  0.20508594094E+02 -0.18482715032E+02  0.59301977162E+02  0.50000060429E+02 0.  0.
        -12    1    1    2    0    0  0.15953221171E+02 -0.20508594094E+02  0.18482715032E+02  0.31886022838E+02  0.00000000000E+00 0.  1.
         11    1    3    3    0    0 -0.14281874526E+02  0.80400809564E+01 -0.27976876925E+02  0.32424072608E+02  0.51100000000E-03 0. -1.
        -11    1    3    3    0    0  0.52139324816E+01 -0.41256216769E+01  0.51080258587E+01  0.83843768151E+01  0.51100000000E-03 0.  1.
        -12    1    3    3    0    0 -0.68852791274E+01  0.16594134815E+02  0.43861360349E+01  0.18493527739E+02  0.00000000000E+00 0.  1.
</event>
<event>
 7    1  0.6065977E-013  0.5930194E+02  0.7816164E-02  0.1266605E+00
        -11   -1    0    0    0    0  0.00000000000E+00  0.00000000000E+00  0.45593999997E+02  0.45594000000E+02  0.51100000000E-03 0.  1.
         11   -1    0    0    0    0 -0.00000000000E+00 -0.00000000000E+00 -0.45593999997E+02  0.45594000000E+02  0.51100000000E-03 0. -1.
    9900012    2    1    2    0    0 -0.26354468824E+02  0.17725370184E+02 -0.28238759612E+01  0.59301936420E+02  0.49999986126E+02 0.  0.
        -12    1    1    2    0    0  0.26354468824E+02 -0.17725370184E+02  0.28238759612E+01  0.31886063580E+02  0.00000000000E+00 0.  1.
         11    1    3    3    0    0 -0.11081913471E+01 -0.50540863161E+01 -0.89430932199E+01  0.10332027543E+02  0.51100000000E-03 0. -1.
        -11    1    3    3    0    0 -0.29415512514E+02  0.17793124074E+02  0.15375133296E+02  0.37659824281E+02  0.51100000000E-03 0.  1.
        -12    1    3    3    0    0  0.41692350370E+01  0.49863324269E+01 -0.92559160378E+01  0.11310084596E+02  0.00000000000E+00 0.  1.
</event>
<event>
 7    1  0.6065977E-013  0.5930194E+02  0.7816164E-02  0.1266605E+00
        -11   -1    0    0    0    0  0.00000000000E+00  0.00000000000E+00  0.45593999997E+02  0.45594000000E+02  0.51100000000E-03 0. -1.
         11   -1    0    0    0    0 -0.00000000000E+00 -0.00000000000E+00 -0.45593999997E+02  0.45594000000E+02  0.51100000000E-03 0.  1.
    9900012    2    1    2    0    0 -0.86829708178E+01 -0.20152460169E+01  0.30614795107E+02  0.59301939124E+02  0.49999991057E+02 0.  0.
        -12    1    1    2    0    0  0.86829708178E+01  0.20152460169E+01 -0.30614795107E+02  0.31886060876E+02  0.00000000000E+00 0.  1.
         11    1    3    3    0    0 -0.16728321913E+01  0.60839713098E+01  0.91458042644E+01  0.11111202021E+02  0.51100000000E-03 0. -1.
        -11    1    3    3    0    0  0.38622372601E+01 -0.23456051662E+02  0.15783392904E+02  0.28534518185E+02  0.51100000000E-03 0.  1.
        -12    1    3    3    0    0 -0.10872375887E+02  0.15356834336E+02  0.56855979386E+01  0.19656218918E+02  0.00000000000E+00 0.  1.
</event>
<event>
 7    1  0.6065977E-013  0.5930194E+02  0.7816164E-02  0.1266605E+00
        -11   -1    0    0    0    0  0.00000000000E+00  0.00000000000E+00  0.45593999997E+02  0.45594000000E+02  0.51100000000E-03 0.  1.
         11   -1    0    0    0    0 -0.00000000000E+00 -0.00000000000E+00 -0.45593999997E+02  0.45594000000E+02  0.51100000000E-03 0. -1.
    9900012    2    1    2    0    0 -0.17873913788E+02 -0.20761480054E+02 -0.16315790604E+02  0.59301939235E+02  0.49999991259E+02 0.  0.
        -12    1    1    2    0    0  0.17873913788E+02  0.20761480054E+02  0.16315790604E+02  0.31886060765E+02  0.00000000000E+00 0.  1.
         11    1    3    3    0    0  0.11690114407E+02 -0.10800061488E+02 -0.13292909884E+02  0.20736478882E+02  0.51100000000E-03 0. -1.
        -11    1    3    3    0    0 -0.27542167802E+02  0.63242210199E+00 -0.34940709246E+01  0.27770118776E+02  0.51100000000E-03 0.  1.
        -12    1    3    3    0    0 -0.20218603921E+01 -0.10593840668E+02  0.47119020460E+00  0.10795341577E+02  0.00000000000E+00 0.  1.
</event>
<event>
 7    1  0.6065977E-013  0.5930193E+02  0.7816164E-02  0.1266605E+00
        -11   -1    0    0    0    0  0.00000000000E+00  0.00000000000E+00  0.45593999997E+02  0.45594000000E+02  0.51100000000E-03 0. -1.
         11   -1    0    0    0    0 -0.00000000000E+00 -0.00000000000E+00 -0.45593999997E+02  0.45594000000E+02  0.51100000000E-03 0.  1.
    9900012    2    1    2    0    0  0.76958840901E+00  0.26640475342E+02  0.17504686291E+02  0.59301933530E+02  0.49999980854E+02 0.  0.
        -12    1    1    2    0    0 -0.76958840901E+00 -0.26640475342E+02 -0.17504686291E+02  0.31886066470E+02  0.00000000000E+00 0.  1.
         11    1    3    3    0    0  0.26842152175E+01 -0.93449866960E+01 -0.70790127747E+01  0.12026895269E+02  0.51100000000E-03 0.  1.
        -11    1    3    3    0    0 -0.60927693760E+01  0.31505520128E+02  0.25619869704E+02  0.41062115887E+02  0.51100000000E-03 0. -1.
         12    1    3    3    0    0  0.41781425676E+01  0.44799419104E+01 -0.10361706379E+01  0.62129223740E+01  0.00000000000E+00 0. -1.
</event>
<event>
 7    1  0.6065977E-013  0.5930197E+02  0.7816164E-02  0.1266605E+00
        -11   -1    0    0    0    0  0.00000000000E+00  0.00000000000E+00  0.45593999997E+02  0.45594000000E+02  0.51100000000E-03 0.  1.
         11   -1    0    0    0    0 -0.00000000000E+00 -0.00000000000E+00 -0.45593999997E+02  0.45594000000E+02  0.51100000000E-03 0. -1.
    9900012    2    1    2    0    0  0.43420724829E+01 -0.10385330896E+02 -0.29833037903E+02  0.59301971056E+02  0.50000049294E+02 0.  0.
        -12    1    1    2    0    0 -0.43420724829E+01  0.10385330896E+02  0.29833037903E+02  0.31886028944E+02  0.00000000000E+00 0.  1.
         11    1    3    3    0    0  0.18326848088E+02 -0.87404455516E+01 -0.17011209327E+02  0.26488676681E+02  0.51100000000E-03 0.  1.
        -11    1    3    3    0    0 -0.14502053659E+02 -0.85695912485E+01 -0.17617181380E+02  0.24374423778E+02  0.51100000000E-03 0. -1.
        -12    1    3    3    0    0  0.51727805350E+00  0.69247059040E+01  0.47953528038E+01  0.84388705971E+01  0.00000000000E+00 0.  1.
</event>
<event>
 7    1  0.6065977E-013  0.5930193E+02  0.7816164E-02  0.1266605E+00
        -11   -1    0    0    0    0  0.00000000000E+00  0.00000000000E+00  0.45593999997E+02  0.45594000000E+02  0.51100000000E-03 0.  1.
         11   -1    0    0    0    0 -0.00000000000E+00 -0.00000000000E+00 -0.45593999997E+02  0.45594000000E+02  0.51100000000E-03 0. -1.
    9900012    2    1    2    0    0  0.65156992073E+01  0.49886951947E+01 -0.30812006225E+02  0.59301934963E+02  0.49999983468E+02 0.  0.
        -12    1    1    2    0    0 -0.65156992073E+01 -0.49886951947E+01  0.30812006225E+02  0.31886065037E+02  0.00000000000E+00 0.  1.
         11    1    3    3    0    0  0.39393461214E+01  0.21053049620E+02 -0.17723070470E+01  0.21491636017E+02  0.51100000000E-03 0. -1.
        -11    1    3    3    0    0  0.81429385894E+01 -0.16385917277E+02 -0.19353642675E+02  0.26633986163E+02  0.51100000000E-03 0.  1.
         12    1    3    3    0    0 -0.55665855035E+01  0.32156285247E+00 -0.96860565032E+01  0.11176312783E+02  0.00000000000E+00 0. -1.
</event>
<event>
 7    1  0.6065977E-013  0.5930185E+02  0.7816164E-02  0.1266605E+00
        -11   -1    0    0    0    0  0.00000000000E+00  0.00000000000E+00  0.45593999997E+02  0.45594000000E+02  0.51100000000E-03 0. -1.
         11   -1    0    0    0    0 -0.00000000000E+00 -0.00000000000E+00 -0.45593999997E+02  0.45594000000E+02  0.51100000000E-03 0.  1.
    9900012    2    1    2    0    0  0.12288902037E+02 -0.21017218089E+02  0.20590912925E+02  0.59301854662E+02  0.49999837017E+02 0.  0.
        -12    1    1    2    0    0 -0.12288902037E+02  0.21017218089E+02 -0.20590912925E+02  0.31886145338E+02  0.00000000000E+00 0.  1.
         11    1    3    3    0    0  0.16050576705E+02 -0.16921160419E+01 -0.90165143701E+01  0.18487341640E+02  0.51100000000E-03 0. -1.
        -11    1    3    3    0    0 -0.11198353775E+02 -0.61116868278E+01  0.15798299286E+02  0.20306208502E+02  0.51100000000E-03 0.  1.
        -12    1    3    3    0    0  0.74366791061E+01 -0.13213415219E+02  0.13809128009E+02  0.20508304519E+02  0.00000000000E+00 0.  1.
</event>
<event>
 7    1  0.6065977E-013  0.5930197E+02  0.7816164E-02  0.1266605E+00
        -11   -1    0    0    0    0  0.00000000000E+00  0.00000000000E+00  0.45593999997E+02  0.45594000000E+02  0.51100000000E-03 0.  1.
         11   -1    0    0    0    0 -0.00000000000E+00 -0.00000000000E+00 -0.45593999997E+02  0.45594000000E+02  0.51100000000E-03 0. -1.
    9900012    2    1    2    0    0 -0.12807686620E+02 -0.12370937867E+02 -0.26450749398E+02  0.59301967259E+02  0.50000042368E+02 0.  0.
        -12    1    1    2    0    0  0.12807686620E+02  0.12370937867E+02  0.26450749398E+02  0.31886032741E+02  0.00000000000E+00 0.  1.
         11    1    3    3    0    0 -0.41665224616E+01 -0.10465460097E+02 -0.82822525899E+01  0.13981468903E+02  0.51100000000E-03 0. -1.
        -11    1    3    3    0    0  0.12972409697E+02 -0.26800290614E+01  0.45000324569E+01  0.13989862812E+02  0.51100000000E-03 0.  1.
        -12    1    3    3    0    0 -0.21613573856E+02  0.77455129148E+00 -0.22668529265E+02  0.31330635543E+02  0.00000000000E+00 0.  1.
</event>
<event>
 7    1  0.6065977E-013  0.5930194E+02  0.7816164E-02  0.1266605E+00
        -11   -1    0    0    0    0  0.00000000000E+00  0.00000000000E+00  0.45593999997E+02  0.45594000000E+02  0.51100000000E-03 0.  1.
         11   -1    0    0    0    0 -0.00000000000E+00 -0.00000000000E+00 -0.45593999997E+02  0.45594000000E+02  0.51100000000E-03 0. -1.
    9900012    2    1    2    0    0 -0.28598278697E+02 -0.13314932815E+02  0.46445534834E+01  0.59301939451E+02  0.49999991652E+02 0.  0.
        -12    1    1    2    0    0  0.28598278697E+02  0.13314932815E+02 -0.46445534834E+01  0.31886060549E+02  0.00000000000E+00 0.  1.
         11    1    3    3    0    0 -0.73485292312E+01 -0.20784436894E+01  0.12087626622E+02  0.14297955366E+02  0.51100000000E-03 0. -1.
        -11    1    3    3    0    0 -0.15418884192E+02  0.40227016759E+01 -0.19145624931E+02  0.24909417351E+02  0.51100000000E-03 0.  1.
        -12    1    3    3    0    0 -0.58308652741E+01 -0.15259190801E+02  0.11702551793E+02  0.20094566734E+02  0.00000000000E+00 0.  1.
</event>
<event>
 7    1  0.6065977E-013  0.5930194E+02  0.7816164E-02  0.1266605E+00
        -11   -1    0    0    0    0  0.00000000000E+00  0.00000000000E+00  0.45593999997E+02  0.45594000000E+02  0.51100000000E-03 0.  1.
         11   -1    0    0    0    0 -0.00000000000E+00 -0.00000000000E+00 -0.45593999997E+02  0.45594000000E+02  0.51100000000E-03 0. -1.
    9900012    2    1    2    0    0 -0.83600367872E+01 -0.27619567457E+02 -0.13564296741E+02  0.59301939289E+02  0.49999991358E+02 0.  0.
        -12    1    1    2    0    0  0.83600367872E+01  0.27619567457E+02  0.13564296741E+02  0.31886060711E+02  0.00000000000E+00 0.  1.
         11    1    3    3    0    0  0.55243152098E+01 -0.16366155421E+01  0.60895093238E+01  0.83832388154E+01  0.51100000000E-03 0. -1.
        -11    1    3    3    0    0 -0.24927720479E+02 -0.13204187318E+02 -0.19010980521E+02  0.34017042664E+02  0.51100000000E-03 0.  1.
        -12    1    3    3    0    0  0.11043368482E+02 -0.12778764597E+02 -0.64282554404E+00  0.16901657810E+02  0.00000000000E+00 0.  1.
</event>
<event>
 7    1  0.6065977E-013  0.5930194E+02  0.7816164E-02  0.1266605E+00
        -11   -1    0    0    0    0  0.00000000000E+00  0.00000000000E+00  0.45593999997E+02  0.45594000000E+02  0.51100000000E-03 0.  1.
         11   -1    0    0    0    0 -0.00000000000E+00 -0.00000000000E+00 -0.45593999997E+02  0.45594000000E+02  0.51100000000E-03 0. -1.
    9900012    2    1    2    0    0  0.68120642830E+01  0.33454519492E+01 -0.30969739754E+02  0.59301936446E+02  0.49999986173E+02 0.  0.
        -12    1    1    2    0    0 -0.68120642830E+01 -0.33454519492E+01  0.30969739754E+02  0.31886063554E+02  0.00000000000E+00 0.  1.
         11    1    3    3    0    0 -0.11036893194E+02  0.74791372321E+01 -0.20905445987E+02  0.24794922409E+02  0.51100000000E-03 0. -1.
        -11    1    3    3    0    0  0.82511530612E-01 -0.12767558343E+02 -0.68649103228E+01  0.14496356377E+02  0.51100000000E-03 0.  1.
         12    1    3    3    0    0  0.17766445946E+02  0.86338730603E+01 -0.31993834443E+01  0.20010657660E+02  0.00000000000E+00 0. -1.
</event>
<event>
 7    1  0.6065977E-013  0.5930194E+02  0.7816164E-02  0.1266605E+00
        -11   -1    0    0    0    0  0.00000000000E+00  0.00000000000E+00  0.45593999997E+02  0.45594000000E+02  0.51100000000E-03 0.  1.
         11   -1    0    0    0    0 -0.00000000000E+00 -0.00000000000E+00 -0.45593999997E+02  0.45594000000E+02  0.51100000000E-03 0. -1.
    9900012    2    1    2    0    0  0.24672000508E+02  0.72959534108E+01 -0.18835661619E+02  0.59301942014E+02  0.49999996328E+02 0.  0.
        -12    1    1    2    0    0 -0.24672000508E+02 -0.72959534108E+01  0.18835661619E+02  0.31886057986E+02  0.00000000000E+00 0.  1.
         11    1    3    3    0    0  0.24691463581E+02  0.14050888411E+02 -0.11475123115E+02  0.30639423782E+02  0.51100000000E-03 0. -1.
        -11    1    3    3    0    0  0.65757128309E+01 -0.12854279128E+02  0.32093247718E+01  0.14790951858E+02  0.51100000000E-03 0.  1.
         12    1    3    3    0    0 -0.65951759039E+01  0.60993441272E+01 -0.10569863276E+02  0.13871566374E+02  0.00000000000E+00 0. -1.
</event>
<event>
 7    1  0.6065977E-013  0.5930192E+02  0.7816164E-02  0.1266605E+00
        -11   -1    0    0    0    0  0.00000000000E+00  0.00000000000E+00  0.45593999997E+02  0.45594000000E+02  0.51100000000E-03 0.  1.
         11   -1    0    0    0    0 -0.00000000000E+00 -0.00000000000E+00 -0.45593999997E+02  0.45594000000E+02  0.51100000000E-03 0. -1.
    9900012    2    1    2    0    0  0.23414618092E+02  0.18300928727E+02  0.11556552927E+02  0.59301917641E+02  0.49999951877E+02 0.  0.
        -12    1    1    2    0    0 -0.23414618092E+02 -0.18300928727E+02 -0.11556552927E+02  0.31886082359E+02  0.00000000000E+00 0.  1.
         11    1    3    3    0    0  0.16336063613E+02 -0.73254544601E+01 -0.94365607661E+01  0.20238031939E+02  0.51100000000E-03 0. -1.
        -11    1    3    3    0    0  0.39697143720E+01  0.16895118702E+01  0.12904802178E+02  0.13606873340E+02  0.51100000000E-03 0.  1.
         12    1    3    3    0    0  0.31088401075E+01  0.23936871317E+02  0.80883115144E+01  0.25457012362E+02  0.00000000000E+00 0. -1.
</event>
<event>
 7    1  0.6560014E-013  0.5930195E+02  0.7816164E-02  0.1266605E+00
        -11   -1    0    0    0    0  0.00000000000E+00  0.00000000000E+00  0.45593999997E+02  0.45594000000E+02  0.51100000000E-03 0. -1.
         11   -1    0    0    0    0 -0.00000000000E+00 -0.00000000000E+00 -0.45593999997E+02  0.45594000000E+02  0.51100000000E-03 0.  1.
    9900012    2    1    2    0    0 -0.19849664565E+02  0.96628767847E+01  0.23007387024E+02  0.59301949308E+02  0.50000009629E+02 0.  0.
        -12    1    1    2    0    0  0.19849664565E+02 -0.96628767847E+01 -0.23007387024E+02  0.31886050692E+02  0.00000000000E+00 0.  1.
         11    1    3    3    0    0 -0.20430740675E+02 -0.41262601390E+01  0.18611997126E+02  0.27943650881E+02  0.51100000000E-03 0. -1.
        -11    1    3    3    0    0 -0.53353819822E+01  0.20835741124E+02  0.51827384158E+01  0.22123634123E+02  0.51100000000E-03 0.  1.
         12    1    3    3    0    0  0.59164580926E+01 -0.70466041999E+01 -0.78734851805E+00  0.92346643036E+01  0.00000000000E+00 0. -1.
</event>
<event>
 7    1  0.6065977E-013  0.5930195E+02  0.7816164E-02  0.1266605E+00
        -11   -1    0    0    0    0  0.00000000000E+00  0.00000000000E+00  0.45593999997E+02  0.45594000000E+02  0.51100000000E-03 0.  1.
         11   -1    0    0    0    0 -0.00000000000E+00 -0.00000000000E+00 -0.45593999997E+02  0.45594000000E+02  0.51100000000E-03 0. -1.
    9900012    2    1    2    0    0 -0.28062613982E+01 -0.26245216442E+02 -0.17889492935E+02  0.59301945891E+02  0.50000003399E+02 0.  0.
        -12    1    1    2    0    0  0.28062613982E+01  0.26245216442E+02  0.17889492935E+02  0.31886054109E+02  0.00000000000E+00 0.  1.
         11    1    3    3    0    0 -0.17896342597E+02 -0.51703086206E+01 -0.48932697104E+01  0.19260198812E+02  0.51100000000E-03 0.  1.
        -11    1    3    3    0    0  0.11874784347E+02 -0.27809730889E+02 -0.88647923957E+01  0.31511524556E+02  0.51100000000E-03 0. -1.
        -12    1    3    3    0    0  0.32152968514E+01  0.67348230671E+01 -0.41314308293E+01  0.85302225226E+01  0.00000000000E+00 0.  1.
</event>
<event>
 7    1  0.6065977E-013  0.5930195E+02  0.7816164E-02  0.1266605E+00
        -11   -1    0    0    0    0  0.00000000000E+00  0.00000000000E+00  0.45593999997E+02  0.45594000000E+02  0.51100000000E-03 0. -1.
         11   -1    0    0    0    0 -0.00000000000E+00 -0.00000000000E+00 -0.45593999997E+02  0.45594000000E+02  0.51100000000E-03 0.  1.
    9900012    2    1    2    0    0  0.11823371330E+02  0.28427517233E+02  0.82948352383E+01  0.59301950742E+02  0.50000012245E+02 0.  0.
        -12    1    1    2    0    0 -0.11823371330E+02 -0.28427517233E+02 -0.82948352383E+01  0.31886049258E+02  0.00000000000E+00 0.  1.
         11    1    3    3    0    0  0.18248974690E+02  0.27629186397E+02  0.21220316037E+02  0.39328092138E+02  0.51100000000E-03 0. -1.
        -11    1    3    3    0    0 -0.10658040304E+02  0.19115543709E+01 -0.86960003432E+01  0.13887702670E+02  0.51100000000E-03 0.  1.
         12    1    3    3    0    0  0.42324369438E+01 -0.11132235344E+01 -0.42294804559E+01  0.60861559336E+01  0.00000000000E+00 0. -1.
</event>
<event>
 7    1  0.6065977E-013  0.5930193E+02  0.7816164E-02  0.1266605E+00
        -11   -1    0    0    0    0  0.00000000000E+00  0.00000000000E+00  0.45593999997E+02  0.45594000000E+02  0.51100000000E-03 0.  1.
         11   -1    0    0    0    0 -0.00000000000E+00 -0.00000000000E+00 -0.45593999997E+02  0.45594000000E+02  0.51100000000E-03 0. -1.
    9900012    2    1    2    0    0 -0.16889693467E+02 -0.22657645559E+02 -0.14767908757E+02  0.59301925034E+02  0.49999965360E+02 0.  0.
        -12    1    1    2    0    0  0.16889693467E+02  0.22657645559E+02  0.14767908757E+02  0.31886074966E+02  0.00000000000E+00 0.  1.
         11    1    3    3    0    0 -0.26247125033E+02 -0.26327316655E+02 -0.12251613127E+02  0.39142575276E+02  0.51100000000E-03 0. -1.
        -11    1    3    3    0    0  0.10975672552E+02 -0.39596031490E+01  0.77613275845E+00  0.11693854257E+02  0.51100000000E-03 0.  1.
        -12    1    3    3    0    0 -0.16182409859E+01  0.76292742449E+01 -0.32924283883E+01  0.84654955014E+01  0.00000000000E+00 0.  1.
</event>
<event>
 7    1  0.6065977E-013  0.5930193E+02  0.7816164E-02  0.1266605E+00
        -11   -1    0    0    0    0  0.00000000000E+00  0.00000000000E+00  0.45593999997E+02  0.45594000000E+02  0.51100000000E-03 0.  1.
         11   -1    0    0    0    0 -0.00000000000E+00 -0.00000000000E+00 -0.45593999997E+02  0.45594000000E+02  0.51100000000E-03 0. -1.
    9900012    2    1    2    0    0  0.12985058311E+02  0.23317723965E+02 -0.17446881377E+02  0.59301926864E+02  0.49999968698E+02 0.  0.
        -12    1    1    2    0    0 -0.12985058311E+02 -0.23317723965E+02  0.17446881377E+02  0.31886073136E+02  0.00000000000E+00 0.  1.
         11    1    3    3    0    0  0.60482034939E+01  0.12478519139E+02 -0.20287603783E+02  0.24573991799E+02  0.51100000000E-03 0. -1.
        -11    1    3    3    0    0  0.79430421578E+01 -0.78437712390E+01  0.97114319851E+01  0.14796235245E+02  0.51100000000E-03 0.  1.
        -12    1    3    3    0    0 -0.10061873410E+01  0.18682976065E+02 -0.68707095788E+01  0.19931699820E+02  0.00000000000E+00 0.  1.
</event>
<event>
 7    1  0.6065977E-013  0.5930193E+02  0.7816164E-02  0.1266605E+00
        -11   -1    0    0    0    0  0.00000000000E+00  0.00000000000E+00  0.45593999997E+02  0.45594000000E+02  0.51100000000E-03 0.  1.
         11   -1    0    0    0    0 -0.00000000000E+00 -0.00000000000E+00 -0.45593999997E+02  0.45594000000E+02  0.51100000000E-03 0. -1.
    9900012    2    1    2    0    0 -0.16281342779E+02  0.61740761423E+01 -0.26711794562E+02  0.59301932390E+02  0.49999978776E+02 0.  0.
        -12    1    1    2    0    0  0.16281342779E+02 -0.61740761423E+01  0.26711794562E+02  0.31886067610E+02  0.00000000000E+00 0.  1.
         11    1    3    3    0    0 -0.11257153455E+02 -0.65342180696E+01 -0.67091744115E+01  0.14643514989E+02  0.51100000000E-03 0. -1.
        -11    1    3    3    0    0 -0.89870037953E+01  0.25228803241E+02 -0.13973506331E+02  0.30207906741E+02  0.51100000000E-03 0.  1.
        -12    1    3    3    0    0  0.39628144720E+01 -0.12520509029E+02 -0.60291138193E+01  0.14450510660E+02  0.00000000000E+00 0.  1.
</event>
<event>
 7    1  0.6065977E-013  0.5930196E+02  0.7816164E-02  0.1266605E+00
        -11   -1    0    0    0    0  0.00000000000E+00  0.00000000000E+00  0.45593999997E+02  0.45594000000E+02  0.51100000000E-03 0.  1.
         11   -1    0    0    0    0 -0.00000000000E+00 -0.00000000000E+00 -0.45593999997E+02  0.45594000000E+02  0.51100000000E-03 0. -1.
    9900012    2    1    2    0    0  0.90483240984E+01 -0.25042200594E+02 -0.17542392798E+02  0.59301960348E+02  0.50000029765E+02 0.  0.
        -12    1    1    2    0    0 -0.90483240984E+01  0.25042200594E+02  0.17542392798E+02  0.31886039652E+02  0.00000000000E+00 0.  1.
         11    1    3    3    0    0 -0.28116248528E+01 -0.17714764431E+02 -0.32656988758E+02  0.37258516183E+02  0.51100000000E-03 0. -1.
        -11    1    3    3    0    0  0.86188067660E+01 -0.56795793396E+01  0.53544987486E+01  0.11628074159E+02  0.51100000000E-03 0.  1.
         12    1    3    3    0    0  0.32411421852E+01 -0.16478568241E+01  0.97600972119E+01  0.10415370006E+02  0.00000000000E+00 0. -1.
</event>
<event>
 7    1  0.6065977E-013  0.5930195E+02  0.7816164E-02  0.1266605E+00
        -11   -1    0    0    0    0  0.00000000000E+00  0.00000000000E+00  0.45593999997E+02  0.45594000000E+02  0.51100000000E-03 0.  1.
         11   -1    0    0    0    0 -0.00000000000E+00 -0.00000000000E+00 -0.45593999997E+02  0.45594000000E+02  0.51100000000E-03 0. -1.
    9900012    2    1    2    0    0 -0.27894219841E+02  0.86926106045E+01 -0.12769942748E+02  0.59301946349E+02  0.50000004233E+02 0.  0.
        -12    1    1    2    0    0  0.27894219841E+02 -0.86926106045E+01  0.12769942748E+02  0.31886053651E+02  0.00000000000E+00 0.  1.
         11    1    3    3    0    0 -0.90467795206E+01 -0.19541499240E+02 -0.92422001478E+01  0.23433580095E+02  0.51100000000E-03 0. -1.
        -11    1    3    3    0    0 -0.92905448559E+01  0.49601322492E+01 -0.12534418018E+01  0.10606047910E+02  0.51100000000E-03 0.  1.
         12    1    3    3    0    0 -0.95568954645E+01  0.23273977595E+02 -0.22743007987E+01  0.25262318344E+02  0.00000000000E+00 0. -1.
</event>
<event>
 7    1  0.6065977E-013  0.5930189E+02  0.7816164E-02  0.1266605E+00
        -11   -1    0    0    0    0  0.00000000000E+00  0.00000000000E+00  0.45593999997E+02  0.45594000000E+02  0.51100000000E-03 0.  1.
         11   -1    0    0    0    0 -0.00000000000E+00 -0.00000000000E+00 -0.45593999997E+02  0.45594000000E+02  0.51100000000E-03 0. -1.
    9900012    2    1    2    0    0  0.31375467706E+02  0.23607579548E+01 -0.51702075901E+01  0.59301887060E+02  0.49999896104E+02 0.  0.
        -12    1    1    2    0    0 -0.31375467706E+02 -0.23607579548E+01  0.51702075901E+01  0.31886112940E+02  0.00000000000E+00 0.  1.
         11    1    3    3    0    0  0.13113825087E+02  0.32336937818E+01 -0.14383017984E+01  0.13583000266E+02  0.51100000000E-03 0. -1.
        -11    1    3    3    0    0  0.16045769729E+01  0.14129479377E+01 -0.21296948742E+02  0.21403997644E+02  0.51100000000E-03 0.  1.
        -12    1    3    3    0    0  0.16657065646E+02 -0.22858837647E+01  0.17565042951E+02  0.24314889150E+02  0.00000000000E+00 0.  1.
</event>
<event>
 7    1  0.6065977E-013  0.5930188E+02  0.7816164E-02  0.1266605E+00
        -11   -1    0    0    0    0  0.00000000000E+00  0.00000000000E+00  0.45593999997E+02  0.45594000000E+02  0.51100000000E-03 0.  1.
         11   -1    0    0    0    0 -0.00000000000E+00 -0.00000000000E+00 -0.45593999997E+02  0.45594000000E+02  0.51100000000E-03 0. -1.
    9900012    2    1    2    0    0 -0.85764130665E+01  0.11524515963E+01 -0.30689435333E+02  0.59301883165E+02  0.49999889000E+02 0.  0.
        -12    1    1    2    0    0  0.85764130665E+01 -0.11524515963E+01  0.30689435333E+02  0.31886116835E+02  0.00000000000E+00 0.  1.
         11    1    3    3    0    0  0.48456227744E+01 -0.89557648416E+01 -0.93951818822E+01  0.13854790754E+02  0.51100000000E-03 0. -1.
        -11    1    3    3    0    0 -0.24946038525E+02  0.40187198292E+00 -0.11465735322E+02  0.27457775327E+02  0.51100000000E-03 0.  1.
        -12    1    3    3    0    0  0.11524002684E+02  0.97063444549E+01 -0.98285181292E+01  0.17989317084E+02  0.00000000000E+00 0.  1.
</event>
<event>
 7    1  0.6065977E-013  0.5930195E+02  0.7816164E-02  0.1266605E+00
        -11   -1    0    0    0    0  0.00000000000E+00  0.00000000000E+00  0.45593999997E+02  0.45594000000E+02  0.51100000000E-03 0.  1.
         11   -1    0    0    0    0 -0.00000000000E+00 -0.00000000000E+00 -0.45593999997E+02  0.45594000000E+02  0.51100000000E-03 0. -1.
    9900012    2    1    2    0    0  0.23017813566E+02 -0.22043898120E+02  0.98350538257E+00  0.59301945548E+02  0.50000002772E+02 0.  0.
        -12    1    1    2    0    0 -0.23017813566E+02  0.22043898120E+02 -0.98350538257E+00  0.31886054452E+02  0.00000000000E+00 0.  1.
         11    1    3    3    0    0  0.13461384513E+01  0.10639461299E+02 -0.25720081841E+01  0.11028392984E+02  0.51100000000E-03 0. -1.
        -11    1    3    3    0    0  0.25756947612E+02 -0.20091862970E+02 -0.41935316213E+01  0.32934617283E+02  0.51100000000E-03 0.  1.
        -12    1    3    3    0    0 -0.40852724974E+01 -0.12591496449E+02  0.77490451880E+01  0.15338935280E+02  0.00000000000E+00 0.  1.
</event>
<event>
 7    1  0.6065977E-013  0.5930195E+02  0.7816164E-02  0.1266605E+00
        -11   -1    0    0    0    0  0.00000000000E+00  0.00000000000E+00  0.45593999997E+02  0.45594000000E+02  0.51100000000E-03 0.  1.
         11   -1    0    0    0    0 -0.00000000000E+00 -0.00000000000E+00 -0.45593999997E+02  0.45594000000E+02  0.51100000000E-03 0. -1.
    9900012    2    1    2    0    0 -0.10229758850E+02  0.30062775253E+02  0.28812811027E+01  0.59301949714E+02  0.50000010370E+02 0.  0.
        -12    1    1    2    0    0  0.10229758850E+02 -0.30062775253E+02 -0.28812811027E+01  0.31886050286E+02  0.00000000000E+00 0.  1.
         11    1    3    3    0    0 -0.11903147657E+02  0.37599719296E+02  0.15674608241E+02  0.42439570675E+02  0.51100000000E-03 0. -1.
        -11    1    3    3    0    0 -0.19883443336E+01 -0.18610233999E+01 -0.40647287685E+00  0.27535689105E+01  0.51100000000E-03 0.  1.
         12    1    3    3    0    0  0.36617331401E+01 -0.56759206434E+01 -0.12386854262E+02  0.14108810128E+02  0.00000000000E+00 0. -1.
</event>
<event>
 7    1  0.6065977E-013  0.5930198E+02  0.7816164E-02  0.1266605E+00
        -11   -1    0    0    0    0  0.00000000000E+00  0.00000000000E+00  0.45593999997E+02  0.45594000000E+02  0.51100000000E-03 0.  1.
         11   -1    0    0    0    0 -0.00000000000E+00 -0.00000000000E+00 -0.45593999997E+02  0.45594000000E+02  0.51100000000E-03 0. -1.
    9900012    2    1    2    0    0  0.27150663068E+02  0.71332921040E+01 -0.15122042012E+02  0.59301976167E+02  0.50000058614E+02 0.  0.
        -12    1    1    2    0    0 -0.27150663068E+02 -0.71332921040E+01  0.15122042012E+02  0.31886023833E+02  0.00000000000E+00 0.  1.
         11    1    3    3    0    0 -0.28950209795E+01 -0.38560320525E+00 -0.50614013508E+01  0.58435965123E+01  0.51100000000E-03 0. -1.
        -11    1    3    3    0    0  0.15608935037E+02  0.14214973058E+02  0.13476351214E+02  0.25046284242E+02  0.51100000000E-03 0.  1.
        -12    1    3    3    0    0  0.14436749011E+02 -0.66960777488E+01 -0.23536991875E+02  0.28412095413E+02  0.00000000000E+00 0.  1.
</event>
<event>
 7    1  0.6065977E-013  0.5930200E+02  0.7816164E-02  0.1266605E+00
        -11   -1    0    0    0    0  0.00000000000E+00  0.00000000000E+00  0.45593999997E+02  0.45594000000E+02  0.51100000000E-03 0.  1.
         11   -1    0    0    0    0 -0.00000000000E+00 -0.00000000000E+00 -0.45593999997E+02  0.45594000000E+02  0.51100000000E-03 0. -1.
    9900012    2    1    2    0    0 -0.29198366540E+02 -0.12452480762E+02  0.30179745506E+01  0.59301999057E+02  0.50000100360E+02 0.  0.
        -12    1    1    2    0    0  0.29198366540E+02  0.12452480762E+02 -0.30179745506E+01  0.31886000943E+02  0.00000000000E+00 0.  1.
         11    1    3    3    0    0 -0.19317165757E+02  0.25388655964E+01 -0.13699847198E+02  0.23817735932E+02  0.51100000000E-03 0. -1.
        -11    1    3    3    0    0  0.19857926469E+01  0.21469316014E+01  0.14187157042E+02  0.14485444864E+02  0.51100000000E-03 0.  1.
         12    1    3    3    0    0 -0.11866993430E+02 -0.17138277959E+02  0.25306647072E+01  0.20998818260E+02  0.00000000000E+00 0. -1.
</event>
<event>
 7    1  0.6065977E-013  0.5930193E+02  0.7816164E-02  0.1266605E+00
        -11   -1    0    0    0    0  0.00000000000E+00  0.00000000000E+00  0.45593999997E+02  0.45594000000E+02  0.51100000000E-03 0.  1.
         11   -1    0    0    0    0 -0.00000000000E+00 -0.00000000000E+00 -0.45593999997E+02  0.45594000000E+02  0.51100000000E-03 0. -1.
    9900012    2    1    2    0    0  0.64426871140E+01  0.21343186185E+02 -0.22796531989E+02  0.59301926481E+02  0.49999967998E+02 0.  0.
        -12    1    1    2    0    0 -0.64426871140E+01 -0.21343186185E+02  0.22796531989E+02  0.31886073519E+02  0.00000000000E+00 0.  1.
         11    1    3    3    0    0  0.48587197363E+01  0.97201306032E+01 -0.31644140794E+01  0.11318198317E+02  0.51100000000E-03 0. -1.
        -11    1    3    3    0    0 -0.14076173575E+02  0.51762893097E+01  0.68989026459E+01  0.16508406692E+02  0.51100000000E-03 0.  1.
        -12    1    3    3    0    0  0.15660140953E+02  0.64467662717E+01 -0.26531020555E+02  0.31475321471E+02  0.00000000000E+00 0.  1.
</event>
<event>
 7    1  0.6065977E-013  0.5930192E+02  0.7816164E-02  0.1266605E+00
        -11   -1    0    0    0    0  0.00000000000E+00  0.00000000000E+00  0.45593999997E+02  0.45594000000E+02  0.51100000000E-03 0.  1.
         11   -1    0    0    0    0 -0.00000000000E+00 -0.00000000000E+00 -0.45593999997E+02  0.45594000000E+02  0.51100000000E-03 0. -1.
    9900012    2    1    2    0    0  0.38383995704E+01 -0.25807784157E+02 -0.18328856877E+02  0.59301921082E+02  0.49999958152E+02 0.  0.
        -12    1    1    2    0    0 -0.38383995704E+01  0.25807784157E+02  0.18328856877E+02  0.31886078918E+02  0.00000000000E+00 0.  1.
         11    1    3    3    0    0 -0.48173918715E+01  0.52828450701E+00 -0.11608303466E+02  0.12579310736E+02  0.51100000000E-03 0. -1.
        -11    1    3    3    0    0  0.12560363988E+02  0.58198722072E+01 -0.21806157011E+01  0.14013876734E+02  0.51100000000E-03 0.  1.
         12    1    3    3    0    0 -0.39045725459E+01 -0.32155940871E+02 -0.45399377099E+01  0.32708733612E+02  0.00000000000E+00 0. -1.
</event>
<event>
 7    1  0.6065977E-013  0.5930194E+02  0.7816164E-02  0.1266605E+00
        -11   -1    0    0    0    0  0.00000000000E+00  0.00000000000E+00  0.45593999997E+02  0.45594000000E+02  0.51100000000E-03 0.  1.
         11   -1    0    0    0    0 -0.00000000000E+00 -0.00000000000E+00 -0.45593999997E+02  0.45594000000E+02  0.51100000000E-03 0. -1.
    9900012    2    1    2    0    0  0.71677690207E+01 -0.28854749172E+02 -0.11521591163E+02  0.59301944656E+02  0.50000001145E+02 0.  0.
        -12    1    1    2    0    0 -0.71677690207E+01  0.28854749172E+02  0.11521591163E+02  0.31886055344E+02  0.00000000000E+00 0.  1.
         11    1    3    3    0    0  0.12384556428E+02 -0.90477190550E+01  0.15214443121E+02  0.21603651029E+02  0.51100000000E-03 0.  1.
        -11    1    3    3    0    0 -0.32034541461E+01 -0.20376420260E+02 -0.28347268947E+02  0.35057499599E+02  0.51100000000E-03 0. -1.
         12    1    3    3    0    0 -0.20133332615E+01  0.56939014338E+00  0.16112346636E+01  0.26407940280E+01  0.00000000000E+00 0. -1.
</event>
<event>
 7    1  0.6065977E-013  0.5930196E+02  0.7816164E-02  0.1266605E+00
        -11   -1    0    0    0    0  0.00000000000E+00  0.00000000000E+00  0.45593999997E+02  0.45594000000E+02  0.51100000000E-03 0.  1.
         11   -1    0    0    0    0 -0.00000000000E+00 -0.00000000000E+00 -0.45593999997E+02  0.45594000000E+02  0.51100000000E-03 0. -1.
    9900012    2    1    2    0    0 -0.23326714472E+02 -0.17197673445E+02 -0.13297527942E+02  0.59301955571E+02  0.50000021052E+02 0.  0.
        -12    1    1    2    0    0  0.23326714472E+02  0.17197673445E+02  0.13297527942E+02  0.31886044429E+02  0.00000000000E+00 0.  1.
         11    1    3    3    0    0 -0.22587348792E+02  0.57005881779E+01 -0.46163698602E+01  0.23748597895E+02  0.51100000000E-03 0. -1.
        -11    1    3    3    0    0  0.12348665229E+02 -0.99344577096E+01 -0.59574344320E+01  0.16931450268E+02  0.51100000000E-03 0.  1.
         12    1    3    3    0    0 -0.13088030908E+02 -0.12963803914E+02 -0.27237236495E+01  0.18621907407E+02  0.00000000000E+00 0. -1.
</event>
<event>
 7    1  0.6065977E-013  0.5930197E+02  0.7816164E-02  0.1266605E+00
        -11   -1    0    0    0    0  0.00000000000E+00  0.00000000000E+00  0.45593999997E+02  0.45594000000E+02  0.51100000000E-03 0.  1.
         11   -1    0    0    0    0 -0.00000000000E+00 -0.00000000000E+00 -0.45593999997E+02  0.45594000000E+02  0.51100000000E-03 0. -1.
    9900012    2    1    2    0    0  0.10284755488E+01 -0.31756703619E+02 -0.26782153710E+01  0.59301971331E+02  0.50000049795E+02 0.  0.
        -12    1    1    2    0    0 -0.10284755488E+01  0.31756703619E+02  0.26782153710E+01  0.31886028669E+02  0.00000000000E+00 0.  1.
         11    1    3    3    0    0 -0.98270776449E+00  0.10959541215E+02 -0.10296844032E+02  0.15069912258E+02  0.51100000000E-03 0. -1.
        -11    1    3    3    0    0 -0.29264081701E+01 -0.21065503087E+02  0.22561501570E+01  0.21387133956E+02  0.51100000000E-03 0.  1.
         12    1    3    3    0    0  0.49375914834E+01 -0.21650741747E+02  0.53624785040E+01  0.22844925116E+02  0.00000000000E+00 0. -1.
</event>
<event>
 7    1  0.6065977E-013  0.5930195E+02  0.7816164E-02  0.1266605E+00
        -11   -1    0    0    0    0  0.00000000000E+00  0.00000000000E+00  0.45593999997E+02  0.45594000000E+02  0.51100000000E-03 0.  1.
         11   -1    0    0    0    0 -0.00000000000E+00 -0.00000000000E+00 -0.45593999997E+02  0.45594000000E+02  0.51100000000E-03 0. -1.
    9900012    2    1    2    0    0  0.31352190268E+01 -0.31609365762E+02 -0.27818841426E+01  0.59301945343E+02  0.50000002399E+02 0.  0.
        -12    1    1    2    0    0 -0.31352190268E+01  0.31609365762E+02  0.27818841426E+01  0.31886054657E+02  0.00000000000E+00 0.  1.
         11    1    3    3    0    0 -0.20221296516E+02 -0.26206728473E+02  0.58613260353E+01  0.33616195400E+02  0.51100000000E-03 0. -1.
        -11    1    3    3    0    0  0.35399565227E+01 -0.13394934948E+00 -0.22934573971E+01  0.42200926180E+01  0.51100000000E-03 0.  1.
         12    1    3    3    0    0  0.19816559020E+02 -0.52686879391E+01 -0.63497527807E+01  0.21465657325E+02  0.00000000000E+00 0. -1.
</event>
<event>
 7    1  0.6065977E-013  0.5930195E+02  0.7816164E-02  0.1266605E+00
        -11   -1    0    0    0    0  0.00000000000E+00  0.00000000000E+00  0.45593999997E+02  0.45594000000E+02  0.51100000000E-03 0. -1.
         11   -1    0    0    0    0 -0.00000000000E+00 -0.00000000000E+00 -0.45593999997E+02  0.45594000000E+02  0.51100000000E-03 0.  1.
    9900012    2    1    2    0    0  0.10655537268E+02  0.29472289400E+02 -0.58791164405E+01  0.59301947766E+02  0.50000006818E+02 0.  0.
        -12    1    1    2    0    0 -0.10655537268E+02 -0.29472289400E+02  0.58791164405E+01  0.31886052234E+02  0.00000000000E+00 0.  1.
         11    1    3    3    0    0 -0.31164581028E+00 -0.10244440584E+02 -0.97772026450E+01  0.14164723005E+02  0.51100000000E-03 0.  1.
        -11    1    3    3    0    0  0.94145622088E+01  0.24626326756E+02  0.10774749668E+02  0.28481312852E+02  0.51100000000E-03 0. -1.
        -12    1    3    3    0    0  0.15526208695E+01  0.15090403227E+02 -0.68766634636E+01  0.16655911909E+02  0.00000000000E+00 0.  1.
</event>
<event>
 7    1  0.6065977E-013  0.5930194E+02  0.7816164E-02  0.1266605E+00
        -11   -1    0    0    0    0  0.00000000000E+00  0.00000000000E+00  0.45593999997E+02  0.45594000000E+02  0.51100000000E-03 0. -1.
         11   -1    0    0    0    0 -0.00000000000E+00 -0.00000000000E+00 -0.45593999997E+02  0.45594000000E+02  0.51100000000E-03 0.  1.
    9900012    2    1    2    0    0  0.17917686498E+02  0.19805436904E+02  0.17419004623E+02  0.59301944389E+02  0.50000000658E+02 0.  0.
        -12    1    1    2    0    0 -0.17917686498E+02 -0.19805436904E+02 -0.17419004623E+02  0.31886055611E+02  0.00000000000E+00 0.  1.
         11    1    3    3    0    0  0.15888998713E+02  0.16075831452E+02  0.52622631270E+01  0.23207413696E+02  0.51100000000E-03 0. -1.
        -11    1    3    3    0    0  0.72139602961E+01 -0.13327234884E+02  0.12742500277E+01  0.15207896837E+02  0.51100000000E-03 0.  1.
        -12    1    3    3    0    0 -0.51852725111E+01  0.17056840336E+02  0.10882491468E+02  0.20886633856E+02  0.00000000000E+00 0.  1.
</event>
<event>
 7    1  0.6065977E-013  0.5930191E+02  0.7816164E-02  0.1266605E+00
        -11   -1    0    0    0    0  0.00000000000E+00  0.00000000000E+00  0.45593999997E+02  0.45594000000E+02  0.51100000000E-03 0. -1.
         11   -1    0    0    0    0 -0.00000000000E+00 -0.00000000000E+00 -0.45593999997E+02  0.45594000000E+02  0.51100000000E-03 0.  1.
    9900012    2    1    2    0    0 -0.64477374087E+00 -0.23115808711E+02  0.21953736433E+02  0.59301907594E+02  0.49999933554E+02 0.  0.
        -12    1    1    2    0    0  0.64477374087E+00  0.23115808711E+02 -0.21953736433E+02  0.31886092406E+02  0.00000000000E+00 0.  1.
         11    1    3    3    0    0  0.14525929723E+02 -0.53204171141E+01  0.14289690965E+02  0.21059552244E+02  0.51100000000E-03 0. -1.
        -11    1    3    3    0    0 -0.88279874830E+01  0.39851051369E+01 -0.63460585817E+01  0.11579589187E+02  0.51100000000E-03 0.  1.
        -12    1    3    3    0    0 -0.63427159812E+01 -0.21780496734E+02  0.14010104050E+02  0.26662766163E+02  0.00000000000E+00 0.  1.
</event>
<event>
 7    1  0.6065977E-013  0.5930194E+02  0.7816164E-02  0.1266605E+00
        -11   -1    0    0    0    0  0.00000000000E+00  0.00000000000E+00  0.45593999997E+02  0.45594000000E+02  0.51100000000E-03 0. -1.
         11   -1    0    0    0    0 -0.00000000000E+00 -0.00000000000E+00 -0.45593999997E+02  0.45594000000E+02  0.51100000000E-03 0.  1.
    9900012    2    1    2    0    0  0.19185051551E+02  0.10165415606E+02  0.23352063101E+02  0.59301941471E+02  0.49999995336E+02 0.  0.
        -12    1    1    2    0    0 -0.19185051551E+02 -0.10165415606E+02 -0.23352063101E+02  0.31886058529E+02  0.00000000000E+00 0.  1.
         11    1    3    3    0    0  0.13533669239E+02  0.17715209215E+02  0.28093884173E+02  0.35864399741E+02  0.51100000000E-03 0. -1.
        -11    1    3    3    0    0  0.34323274358E+01  0.57089048310E+01 -0.71591141203E+01  0.97788231011E+01  0.51100000000E-03 0.  1.
         12    1    3    3    0    0  0.22190548768E+01 -0.13258698441E+02  0.24172930484E+01  0.13658718628E+02  0.00000000000E+00 0. -1.
</event>
<event>
 7    1  0.6065977E-013  0.5930198E+02  0.7816164E-02  0.1266605E+00
        -11   -1    0    0    0    0  0.00000000000E+00  0.00000000000E+00  0.45593999997E+02  0.45594000000E+02  0.51100000000E-03 0.  1.
         11   -1    0    0    0    0 -0.00000000000E+00 -0.00000000000E+00 -0.45593999997E+02  0.45594000000E+02  0.51100000000E-03 0. -1.
    9900012    2    1    2    0    0 -0.76840118620E+01  0.38063159869E+01 -0.30711338026E+02  0.59301978564E+02  0.50000062986E+02 0.  0.
        -12    1    1    2    0    0  0.76840118620E+01 -0.38063159869E+01  0.30711338026E+02  0.31886021436E+02  0.00000000000E+00 0.  1.
         11    1    3    3    0    0  0.52077058929E+01 -0.17899154969E+02 -0.40560363394E+01  0.19077509804E+02  0.51100000000E-03 0. -1.
        -11    1    3    3    0    0 -0.12207630886E+02  0.15452587804E+02 -0.93272570384E+01  0.21790053828E+02  0.51100000000E-03 0.  1.
         12    1    3    3    0    0 -0.68408686871E+00  0.62528831525E+01 -0.17328044648E+02  0.18434414932E+02  0.00000000000E+00 0. -1.
</event>
<event>
 7    1  0.6065977E-013  0.5930194E+02  0.7816164E-02  0.1266605E+00
        -11   -1    0    0    0    0  0.00000000000E+00  0.00000000000E+00  0.45593999997E+02  0.45594000000E+02  0.51100000000E-03 0.  1.
         11   -1    0    0    0    0 -0.00000000000E+00 -0.00000000000E+00 -0.45593999997E+02  0.45594000000E+02  0.51100000000E-03 0. -1.
    9900012    2    1    2    0    0 -0.11367812580E+02  0.29120681753E+02  0.62832836749E+01  0.59301938431E+02  0.49999989794E+02 0.  0.
        -12    1    1    2    0    0  0.11367812580E+02 -0.29120681753E+02 -0.62832836749E+01  0.31886061569E+02  0.00000000000E+00 0.  1.
         11    1    3    3    0    0  0.31008629999E+01  0.20721111894E+02  0.14376755871E+01  0.21001112847E+02  0.51100000000E-03 0. -1.
        -11    1    3    3    0    0 -0.22399341950E+02  0.94400115848E+01  0.12409863191E+02  0.27291922673E+02  0.51100000000E-03 0.  1.
        -12    1    3    3    0    0  0.79306663699E+01 -0.10404417256E+01 -0.75642551029E+01  0.11008902912E+02  0.00000000000E+00 0.  1.
</event>
<event>
 7    1  0.6065977E-013  0.5930203E+02  0.7816164E-02  0.1266604E+00
        -11   -1    0    0    0    0  0.00000000000E+00  0.00000000000E+00  0.45593999997E+02  0.45594000000E+02  0.51100000000E-03 0. -1.
         11   -1    0    0    0    0 -0.00000000000E+00 -0.00000000000E+00 -0.45593999997E+02  0.45594000000E+02  0.51100000000E-03 0.  1.
    9900012    2    1    2    0    0  0.12625069097E+02 -0.28770179128E+02  0.54405697280E+01  0.59302025407E+02  0.50000148416E+02 0.  0.
        -12    1    1    2    0    0 -0.12625069097E+02  0.28770179128E+02 -0.54405697280E+01  0.31885974593E+02  0.00000000000E+00 0.  1.
         11    1    3    3    0    0  0.11056052409E+01 -0.11283930035E+02 -0.20883459021E+02  0.23762750281E+02  0.51100000000E-03 0. -1.
        -11    1    3    3    0    0  0.11640975888E+01  0.14431423511E+01  0.44186761809E+01  0.47919184566E+01  0.51100000000E-03 0.  1.
         12    1    3    3    0    0  0.10355366268E+02 -0.18929391445E+02  0.21905352568E+02  0.30747356669E+02  0.00000000000E+00 0. -1.
</event>
<event>
 7    1  0.6065977E-013  0.5930194E+02  0.7816164E-02  0.1266605E+00
        -11   -1    0    0    0    0  0.00000000000E+00  0.00000000000E+00  0.45593999997E+02  0.45594000000E+02  0.51100000000E-03 0.  1.
         11   -1    0    0    0    0 -0.00000000000E+00 -0.00000000000E+00 -0.45593999997E+02  0.45594000000E+02  0.51100000000E-03 0. -1.
    9900012    2    1    2    0    0  0.73752657512E+01  0.11351340321E+02 -0.28869941764E+02  0.59301937066E+02  0.49999987304E+02 0.  0.
        -12    1    1    2    0    0 -0.73752657512E+01 -0.11351340321E+02  0.28869941764E+02  0.31886062934E+02  0.00000000000E+00 0.  1.
         11    1    3    3    0    0  0.83695041572E+01  0.37835033183E+01 -0.31174560297E+02  0.32499487798E+02  0.51100000000E-03 0. -1.
        -11    1    3    3    0    0 -0.10808968248E+01  0.17057384428E+02  0.25401641564E+00  0.17093484901E+02  0.51100000000E-03 0.  1.
         12    1    3    3    0    0  0.86658418718E-01 -0.94895474254E+01  0.20506021177E+01  0.97089643662E+01  0.00000000000E+00 0. -1.
</event>
<event>
 7    1  0.6065977E-013  0.5930197E+02  0.7816164E-02  0.1266605E+00
        -11   -1    0    0    0    0  0.00000000000E+00  0.00000000000E+00  0.45593999997E+02  0.45594000000E+02  0.51100000000E-03 0.  1.
         11   -1    0    0    0    0 -0.00000000000E+00 -0.00000000000E+00 -0.45593999997E+02  0.45594000000E+02  0.51100000000E-03 0. -1.
    9900012    2    1    2    0    0 -0.12576467285E+02  0.17096392484E+02 -0.23796311699E+02  0.59301974600E+02  0.50000055757E+02 0.  0.
        -12    1    1    2    0    0  0.12576467285E+02 -0.17096392484E+02  0.23796311699E+02  0.31886025400E+02  0.00000000000E+00 0.  1.
         11    1    3    3    0    0 -0.70238484327E+01  0.21309466099E+02 -0.28397805138E+02  0.36192031293E+02  0.51100000000E-03 0. -1.
        -11    1    3    3    0    0 -0.13094116626E+02 -0.59311975911E+01  0.56642820327E+00  0.14385959691E+02  0.51100000000E-03 0.  1.
        -12    1    3    3    0    0  0.75414977730E+01  0.17181239765E+01  0.40350652363E+01  0.87239836153E+01  0.00000000000E+00 0.  1.
</event>
<event>
 7    1  0.6065977E-013  0.5930196E+02  0.7816164E-02  0.1266605E+00
        -11   -1    0    0    0    0  0.00000000000E+00  0.00000000000E+00  0.45593999997E+02  0.45594000000E+02  0.51100000000E-03 0.  1.
         11   -1    0    0    0    0 -0.00000000000E+00 -0.00000000000E+00 -0.45593999997E+02  0.45594000000E+02  0.51100000000E-03 0. -1.
    9900012    2    1    2    0    0 -0.30383819733E+02  0.51200596414E+01 -0.82053777563E+01  0.59301957027E+02  0.50000023708E+02 0.  0.
        -12    1    1    2    0    0  0.30383819733E+02 -0.51200596414E+01  0.82053777563E+01  0.31886042973E+02  0.00000000000E+00 0.  1.
         11    1    3    3    0    0 -0.22796843627E+02  0.22101249494E+02 -0.15470524441E+02  0.35319943875E+02  0.51100000000E-03 0.  1.
        -11    1    3    3    0    0 -0.69338052099E+01 -0.16199313784E+02  0.10553455066E+02  0.20539494537E+02  0.51100000000E-03 0. -1.
        -12    1    3    3    0    0 -0.65317089622E+00 -0.78187606897E+00 -0.32883083812E+01  0.34425186153E+01  0.00000000000E+00 0.  1.
</event>
<event>
 7    1  0.6065977E-013  0.5930193E+02  0.7816164E-02  0.1266605E+00
        -11   -1    0    0    0    0  0.00000000000E+00  0.00000000000E+00  0.45593999997E+02  0.45594000000E+02  0.51100000000E-03 0.  1.
         11   -1    0    0    0    0 -0.00000000000E+00 -0.00000000000E+00 -0.45593999997E+02  0.45594000000E+02  0.51100000000E-03 0. -1.
    9900012    2    1    2    0    0  0.54109292966E+01  0.26964840171E+02 -0.16135073711E+02  0.59301931491E+02  0.49999977136E+02 0.  0.
        -12    1    1    2    0    0 -0.54109292966E+01 -0.26964840171E+02  0.16135073711E+02  0.31886068509E+02  0.00000000000E+00 0.  1.
         11    1    3    3    0    0 -0.78126465916E+01 -0.27014967831E+01 -0.16926001201E+02  0.18836800380E+02  0.51100000000E-03 0. -1.
        -11    1    3    3    0    0 -0.49419997893E+01  0.13278859069E+02  0.61076973067E+01  0.15429044907E+02  0.51100000000E-03 0.  1.
        -12    1    3    3    0    0  0.18165575677E+02  0.16387477885E+02 -0.53167698163E+01  0.25036086204E+02  0.00000000000E+00 0.  1.
</event>
<event>
 7    1  0.7573918E-013  0.5930194E+02  0.7816164E-02  0.1266605E+00
        -11   -1    0    0    0    0  0.00000000000E+00  0.00000000000E+00  0.45593999997E+02  0.45594000000E+02  0.51100000000E-03 0. -1.
         11   -1    0    0    0    0 -0.00000000000E+00 -0.00000000000E+00 -0.45593999997E+02  0.45594000000E+02  0.51100000000E-03 0.  1.
    9900012    2    1    2    0    0  0.88129061389E+01 -0.14088890245E+02  0.27213170440E+02  0.59301940533E+02  0.49999993626E+02 0.  0.
        -12    1    1    2    0    0 -0.88129061389E+01  0.14088890245E+02 -0.27213170440E+02  0.31886059467E+02  0.00000000000E+00 0.  1.
         11    1    3    3    0    0  0.21214584124E+02 -0.66600807108E+01  0.18584590038E+02  0.28979341638E+02  0.51100000000E-03 0. -1.
        -11    1    3    3    0    0 -0.64831208282E+01  0.58179857330E+01 -0.53111718700E+01  0.10202370340E+02  0.51100000000E-03 0.  1.
         12    1    3    3    0    0 -0.59185571572E+01 -0.13246795267E+02  0.13939752273E+02  0.20120228554E+02  0.00000000000E+00 0. -1.
</event>
<event>
 7    1  0.6065977E-013  0.5930200E+02  0.7816164E-02  0.1266605E+00
        -11   -1    0    0    0    0  0.00000000000E+00  0.00000000000E+00  0.45593999997E+02  0.45594000000E+02  0.51100000000E-03 0.  1.
         11   -1    0    0    0    0 -0.00000000000E+00 -0.00000000000E+00 -0.45593999997E+02  0.45594000000E+02  0.51100000000E-03 0. -1.
    9900012    2    1    2    0    0 -0.93900744269E+01  0.15523128916E+02 -0.26221666560E+02  0.59302002662E+02  0.50000106934E+02 0.  0.
        -12    1    1    2    0    0  0.93900744269E+01 -0.15523128916E+02  0.26221666560E+02  0.31885997338E+02  0.00000000000E+00 0.  1.
         11    1    3    3    0    0 -0.18240525322E+02 -0.33509362374E+01 -0.13795921874E+02  0.23114346158E+02  0.51100000000E-03 0. -1.
        -11    1    3    3    0    0  0.14886427876E+02  0.21662290258E+02 -0.13340942162E+02  0.29476113926E+02  0.51100000000E-03 0.  1.
        -12    1    3    3    0    0 -0.60359769813E+01 -0.27882251047E+01  0.91519747646E+00  0.67115425778E+01  0.00000000000E+00 0.  1.
</event>
<event>
 7    1  0.6065977E-013  0.5930195E+02  0.7816164E-02  0.1266605E+00
        -11   -1    0    0    0    0  0.00000000000E+00  0.00000000000E+00  0.45593999997E+02  0.45594000000E+02  0.51100000000E-03 0. -1.
         11   -1    0    0    0    0 -0.00000000000E+00 -0.00000000000E+00 -0.45593999997E+02  0.45594000000E+02  0.51100000000E-03 0.  1.
    9900012    2    1    2    0    0 -0.30207568206E+01  0.31234989752E+02  0.56542755737E+01  0.59301946797E+02  0.50000005051E+02 0.  0.
        -12    1    1    2    0    0  0.30207568206E+01 -0.31234989752E+02 -0.56542755737E+01  0.31886053203E+02  0.00000000000E+00 0.  1.
         11    1    3    3    0    0 -0.79619226767E+01 -0.49416122633E+01 -0.27042118120E+01  0.97531792896E+01  0.51100000000E-03 0. -1.
        -11    1    3    3    0    0  0.13660725574E+02  0.17002403042E+02 -0.76275104929E+01  0.23105757918E+02  0.51100000000E-03 0.  1.
        -12    1    3    3    0    0 -0.87195597182E+01  0.19174198974E+02  0.15985997879E+02  0.26443009589E+02  0.00000000000E+00 0.  1.
</event>
<event>
 7    1  0.6065977E-013  0.5930194E+02  0.7816164E-02  0.1266605E+00
        -11   -1    0    0    0    0  0.00000000000E+00  0.00000000000E+00  0.45593999997E+02  0.45594000000E+02  0.51100000000E-03 0.  1.
         11   -1    0    0    0    0 -0.00000000000E+00 -0.00000000000E+00 -0.45593999997E+02  0.45594000000E+02  0.51100000000E-03 0. -1.
    9900012    2    1    2    0    0 -0.14624205418E+02 -0.14377047549E+02 -0.24416258059E+02  0.59301944459E+02  0.50000000787E+02 0.  0.
        -12    1    1    2    0    0  0.14624205418E+02  0.14377047549E+02  0.24416258059E+02  0.31886055541E+02  0.00000000000E+00 0.  1.
         11    1    3    3    0    0  0.32792375806E+01 -0.13317162776E+02  0.50419125678E+01  0.14612361415E+02  0.51100000000E-03 0. -1.
        -11    1    3    3    0    0 -0.48882545623E+01  0.13308438060E+02 -0.11349595075E+02  0.18161025987E+02  0.51100000000E-03 0.  1.
         12    1    3    3    0    0 -0.13015188436E+02 -0.14368322833E+02 -0.18108575552E+02  0.26528557058E+02  0.00000000000E+00 0. -1.
</event>
<event>
 7    1  0.6065977E-013  0.5930197E+02  0.7816164E-02  0.1266605E+00
        -11   -1    0    0    0    0  0.00000000000E+00  0.00000000000E+00  0.45593999997E+02  0.45594000000E+02  0.51100000000E-03 0. -1.
         11   -1    0    0    0    0 -0.00000000000E+00 -0.00000000000E+00 -0.45593999997E+02  0.45594000000E+02  0.51100000000E-03 0.  1.
    9900012    2    1    2    0    0 -0.22276698036E+02 -0.13612695511E+00  0.22813349095E+02  0.59301973234E+02  0.50000053266E+02 0.  0.
        -12    1    1    2    0    0  0.22276698036E+02  0.13612695511E+00 -0.22813349095E+02  0.31886026766E+02  0.00000000000E+00 0.  1.
         11    1    3    3    0    0 -0.37153216215E+02  0.14462559093E+00  0.16358472789E+02  0.40595344856E+02  0.51100000000E-03 0. -1.
        -11    1    3    3    0    0  0.96650338734E+01 -0.83779849367E-01  0.87229390052E+01  0.13019583864E+02  0.51100000000E-03 0.  1.
         12    1    3    3    0    0  0.52114843055E+01 -0.19697269668E+00 -0.22680626990E+01  0.56870445151E+01  0.00000000000E+00 0. -1.
</event>
<event>
 7    1  0.6065977E-013  0.5930200E+02  0.7816164E-02  0.1266605E+00
        -11   -1    0    0    0    0  0.00000000000E+00  0.00000000000E+00  0.45593999997E+02  0.45594000000E+02  0.51100000000E-03 0. -1.
         11   -1    0    0    0    0 -0.00000000000E+00 -0.00000000000E+00 -0.45593999997E+02  0.45594000000E+02  0.51100000000E-03 0.  1.
    9900012    2    1    2    0    0  0.24762805079E+02  0.57169332097E+01 -0.19257134763E+02  0.59301998683E+02  0.50000099677E+02 0.  0.
        -12    1    1    2    0    0 -0.24762805079E+02 -0.57169332097E+01  0.19257134763E+02  0.31886001317E+02  0.00000000000E+00 0.  1.
         11    1    3    3    0    0  0.28979207206E+02  0.88108123694E+00 -0.18612961569E+02  0.34453056368E+02  0.51100000000E-03 0. -1.
        -11    1    3    3    0    0  0.29471678338E+01 -0.65631967002E+01  0.64222800456E+01  0.96440152640E+01  0.51100000000E-03 0.  1.
         12    1    3    3    0    0 -0.71635699608E+01  0.11399048673E+02 -0.70664532397E+01  0.15204927051E+02  0.00000000000E+00 0. -1.
</event>
<event>
 7    1  0.6065977E-013  0.5930192E+02  0.7816164E-02  0.1266605E+00
        -11   -1    0    0    0    0  0.00000000000E+00  0.00000000000E+00  0.45593999997E+02  0.45594000000E+02  0.51100000000E-03 0.  1.
         11   -1    0    0    0    0 -0.00000000000E+00 -0.00000000000E+00 -0.45593999997E+02  0.45594000000E+02  0.51100000000E-03 0. -1.
    9900012    2    1    2    0    0 -0.91058727941E+01 -0.19062895379E+02 -0.23883279553E+02  0.59301922446E+02  0.49999960640E+02 0.  0.
        -12    1    1    2    0    0  0.91058727941E+01  0.19062895379E+02  0.23883279553E+02  0.31886077554E+02  0.00000000000E+00 0.  1.
         11    1    3    3    0    0 -0.27936284262E+01 -0.73120297303E+01 -0.19886520460E+02  0.21371566036E+02  0.51100000000E-03 0. -1.
        -11    1    3    3    0    0 -0.20895554144E+02 -0.91512035828E+01 -0.37314850759E+01  0.23114772141E+02  0.51100000000E-03 0.  1.
        -12    1    3    3    0    0  0.14583309777E+02 -0.25996620659E+01 -0.26527401673E+00  0.14815584268E+02  0.00000000000E+00 0.  1.
</event>
<event>
 7    1  0.6065977E-013  0.5930195E+02  0.7816164E-02  0.1266605E+00
        -11   -1    0    0    0    0  0.00000000000E+00  0.00000000000E+00  0.45593999997E+02  0.45594000000E+02  0.51100000000E-03 0.  1.
         11   -1    0    0    0    0 -0.00000000000E+00 -0.00000000000E+00 -0.45593999997E+02  0.45594000000E+02  0.51100000000E-03 0. -1.
    9900012    2    1    2    0    0  0.11968846962E+02 -0.22011651263E+02 -0.19721914109E+02  0.59301953129E+02  0.50000016599E+02 0.  0.
        -12    1    1    2    0    0 -0.11968846962E+02  0.22011651263E+02  0.19721914109E+02  0.31886046871E+02  0.00000000000E+00 0.  1.
         11    1    3    3    0    0  0.29233085195E+02 -0.61098010569E+01 -0.68677255344E+01  0.30644226099E+02  0.51100000000E-03 0. -1.
        -11    1    3    3    0    0 -0.10879012084E+02 -0.15805083193E+02 -0.89418924957E+01  0.21168632462E+02  0.51100000000E-03 0.  1.
         12    1    3    3    0    0 -0.63852261494E+01 -0.96767012873E-01 -0.39122960787E+01  0.74890945676E+01  0.00000000000E+00 0. -1.
</event>
<event>
 7    1  0.6065977E-013  0.5930204E+02  0.7816164E-02  0.1266604E+00
        -11   -1    0    0    0    0  0.00000000000E+00  0.00000000000E+00  0.45593999997E+02  0.45594000000E+02  0.51100000000E-03 0. -1.
         11   -1    0    0    0    0 -0.00000000000E+00 -0.00000000000E+00 -0.45593999997E+02  0.45594000000E+02  0.51100000000E-03 0.  1.
    9900012    2    1    2    0    0 -0.24663353355E+02 -0.36107675036E+01  0.19884561574E+02  0.59302040242E+02  0.50000175472E+02 0.  0.
        -12    1    1    2    0    0  0.24663353355E+02  0.36107675036E+01 -0.19884561574E+02  0.31885959758E+02  0.00000000000E+00 0.  1.
         11    1    3    3    0    0  0.42262225652E+01  0.74177106059E+01 -0.62454559744E+01  0.10577764811E+02  0.51100000000E-03 0. -1.
        -11    1    3    3    0    0 -0.14359921971E+02 -0.19358228008E+02  0.12622353668E+02  0.27207943013E+02  0.51100000000E-03 0.  1.
        -12    1    3    3    0    0 -0.14529653949E+02  0.83297498982E+01  0.13507663880E+02  0.21516332418E+02  0.00000000000E+00 0.  1.
</event>
<event>
 7    1  0.6065977E-013  0.5930194E+02  0.7816164E-02  0.1266605E+00
        -11   -1    0    0    0    0  0.00000000000E+00  0.00000000000E+00  0.45593999997E+02  0.45594000000E+02  0.51100000000E-03 0. -1.
         11   -1    0    0    0    0 -0.00000000000E+00 -0.00000000000E+00 -0.45593999997E+02  0.45594000000E+02  0.51100000000E-03 0.  1.
    9900012    2    1    2    0    0 -0.32138751010E+01  0.31433594731E+02 -0.42802758595E+01  0.59301942980E+02  0.49999998089E+02 0.  0.
        -12    1    1    2    0    0  0.32138751010E+01 -0.31433594731E+02  0.42802758595E+01  0.31886057020E+02  0.00000000000E+00 0.  1.
         11    1    3    3    0    0  0.17014643655E+01  0.84670668142E+01  0.20495259029E+02  0.22240545055E+02  0.51100000000E-03 0. -1.
        -11    1    3    3    0    0 -0.58100954039E+01  0.44454667841E+01 -0.13513383263E+02  0.15366551696E+02  0.51100000000E-03 0.  1.
        -12    1    3    3    0    0  0.89475593735E+00  0.18521061133E+02 -0.11262151625E+02  0.21694846229E+02  0.00000000000E+00 0.  1.
</event>
<event>
 7    1  0.6065977E-013  0.5930193E+02  0.7816164E-02  0.1266605E+00
        -11   -1    0    0    0    0  0.00000000000E+00  0.00000000000E+00  0.45593999997E+02  0.45594000000E+02  0.51100000000E-03 0. -1.
         11   -1    0    0    0    0 -0.00000000000E+00 -0.00000000000E+00 -0.45593999997E+02  0.45594000000E+02  0.51100000000E-03 0.  1.
    9900012    2    1    2    0    0  0.17934545875E+02  0.37214446140E+01  0.26100271483E+02  0.59301933181E+02  0.49999980218E+02 0.  0.
        -12    1    1    2    0    0 -0.17934545875E+02 -0.37214446140E+01 -0.26100271483E+02  0.31886066819E+02  0.00000000000E+00 0.  1.
         11    1    3    3    0    0 -0.17256527880E+01 -0.62055448789E+00 -0.67381072937E+01  0.69831980911E+01  0.51100000000E-03 0.  1.
        -11    1    3    3    0    0  0.60727401374E+01  0.18852022127E+02  0.22277955365E+02  0.29809129584E+02  0.51100000000E-03 0. -1.
        -12    1    3    3    0    0  0.13587458525E+02 -0.14510023025E+02  0.10560423411E+02  0.22509605505E+02  0.00000000000E+00 0.  1.
</event>
<event>
 7    1  0.6065977E-013  0.5930196E+02  0.7816164E-02  0.1266605E+00
        -11   -1    0    0    0    0  0.00000000000E+00  0.00000000000E+00  0.45593999997E+02  0.45594000000E+02  0.51100000000E-03 0.  1.
         11   -1    0    0    0    0 -0.00000000000E+00 -0.00000000000E+00 -0.45593999997E+02  0.45594000000E+02  0.51100000000E-03 0. -1.
    9900012    2    1    2    0    0  0.47043651006E+01 -0.29210110473E+02  0.11889407199E+02  0.59301959036E+02  0.50000027371E+02 0.  0.
        -12    1    1    2    0    0 -0.47043651006E+01  0.29210110473E+02 -0.11889407199E+02  0.31886040964E+02  0.00000000000E+00 0.  1.
         11    1    3    3    0    0 -0.96509129152E+00 -0.34088312543E+01 -0.11845858693E+02  0.12364299421E+02  0.51100000000E-03 0. -1.
        -11    1    3    3    0    0  0.99693378784E+01 -0.17813235193E+02  0.29730465070E+02  0.36063826743E+02  0.51100000000E-03 0.  1.
        -12    1    3    3    0    0 -0.42998814862E+01 -0.79880440254E+01 -0.59951991786E+01  0.10873832872E+02  0.00000000000E+00 0.  1.
</event>
<event>
 7    1  0.6065977E-013  0.5930196E+02  0.7816164E-02  0.1266605E+00
        -11   -1    0    0    0    0  0.00000000000E+00  0.00000000000E+00  0.45593999997E+02  0.45594000000E+02  0.51100000000E-03 0. -1.
         11   -1    0    0    0    0 -0.00000000000E+00 -0.00000000000E+00 -0.45593999997E+02  0.45594000000E+02  0.51100000000E-03 0.  1.
    9900012    2    1    2    0    0  0.24952726329E+02  0.92303683370E+00  0.19830005484E+02  0.59301958136E+02  0.50000025730E+02 0.  0.
        -12    1    1    2    0    0 -0.24952726329E+02 -0.92303683370E+00 -0.19830005484E+02  0.31886041864E+02  0.00000000000E+00 0.  1.
         11    1    3    3    0    0  0.14012719028E+02  0.18199478035E+02 -0.45356781062E+01  0.23412596427E+02  0.51100000000E-03 0. -1.
        -11    1    3    3    0    0 -0.35914144782E+00 -0.12384251729E+02  0.18463400050E+02  0.22235013271E+02  0.51100000000E-03 0.  1.
        -12    1    3    3    0    0  0.11299148749E+02 -0.48921894727E+01  0.59022835399E+01  0.13654348438E+02  0.00000000000E+00 0.  1.
</event>
<event>
 7    1  0.6065977E-013  0.5930193E+02  0.7816164E-02  0.1266605E+00
        -11   -1    0    0    0    0  0.00000000000E+00  0.00000000000E+00  0.45593999997E+02  0.45594000000E+02  0.51100000000E-03 0.  1.
         11   -1    0    0    0    0 -0.00000000000E+00 -0.00000000000E+00 -0.45593999997E+02  0.45594000000E+02  0.51100000000E-03 0. -1.
    9900012    2    1    2    0    0 -0.11051134924E+02 -0.10641764412E+01 -0.29890826382E+02  0.59301928489E+02  0.49999971662E+02 0.  0.
        -12    1    1    2    0    0  0.11051134924E+02  0.10641764412E+01  0.29890826382E+02  0.31886071511E+02  0.00000000000E+00 0.  1.
         11    1    3    3    0    0  0.38556908419E+01 -0.11185741834E+02 -0.23677182487E+02  0.26468776757E+02  0.51100000000E-03 0. -1.
        -11    1    3    3    0    0 -0.45296324450E+01 -0.65790269408E+01  0.57277582583E+01  0.98289562264E+01  0.51100000000E-03 0.  1.
         12    1    3    3    0    0 -0.10377193321E+02  0.16700592333E+02 -0.11941402153E+02  0.23004195506E+02  0.00000000000E+00 0. -1.
</event>
<event>
 7    1  0.6065977E-013  0.5930197E+02  0.7816164E-02  0.1266605E+00
        -11   -1    0    0    0    0  0.00000000000E+00  0.00000000000E+00  0.45593999997E+02  0.45594000000E+02  0.51100000000E-03 0. -1.
         11   -1    0    0    0    0 -0.00000000000E+00 -0.00000000000E+00 -0.45593999997E+02  0.45594000000E+02  0.51100000000E-03 0.  1.
    9900012    2    1    2    0    0 -0.14640710957E+02 -0.27033489709E+02  0.84592644912E+01  0.59301966397E+02  0.50000040797E+02 0.  0.
        -12    1    1    2    0    0  0.14640710957E+02  0.27033489709E+02 -0.84592644912E+01  0.31886033603E+02  0.00000000000E+00 0.  1.
         11    1    3    3    0    0  0.10259680758E+01 -0.36427356886E+01  0.21355772919E+02  0.21688503199E+02  0.51100000000E-03 0. -1.
        -11    1    3    3    0    0  0.45345731097E+01 -0.10316942880E+02 -0.42590046829E+01  0.12047438932E+02  0.51100000000E-03 0.  1.
         12    1    3    3    0    0 -0.20201252142E+02 -0.13073811141E+02 -0.86375037446E+01  0.25566024266E+02  0.00000000000E+00 0. -1.
</event>
<event>
 7    1  0.6065977E-013  0.5930193E+02  0.7816164E-02  0.1266605E+00
        -11   -1    0    0    0    0  0.00000000000E+00  0.00000000000E+00  0.45593999997E+02  0.45594000000E+02  0.51100000000E-03 0.  1.
         11   -1    0    0    0    0 -0.00000000000E+00 -0.00000000000E+00 -0.45593999997E+02  0.45594000000E+02  0.51100000000E-03 0. -1.
    9900012    2    1    2    0    0 -0.23152597043E+02 -0.21300937276E+02 -0.51912329070E+01  0.59301928154E+02  0.49999971050E+02 0.  0.
        -12    1    1    2    0    0  0.23152597043E+02  0.21300937276E+02  0.51912329070E+01  0.31886071846E+02  0.00000000000E+00 0.  1.
         11    1    3    3    0    0 -0.28708522080E+02 -0.49674150360E+01  0.17374478003E+01  0.29186866521E+02  0.51100000000E-03 0. -1.
        -11    1    3    3    0    0 -0.21040903644E+00 -0.20360398650E+02 -0.97019954500E+01  0.22554795967E+02  0.51100000000E-03 0.  1.
         12    1    3    3    0    0  0.57663340739E+01  0.40268764104E+01  0.27733147427E+01  0.75602656659E+01  0.00000000000E+00 0. -1.
</event>
<event>
 7    1  0.6065977E-013  0.5930194E+02  0.7816164E-02  0.1266605E+00
        -11   -1    0    0    0    0  0.00000000000E+00  0.00000000000E+00  0.45593999997E+02  0.45594000000E+02  0.51100000000E-03 0. -1.
         11   -1    0    0    0    0 -0.00000000000E+00 -0.00000000000E+00 -0.45593999997E+02  0.45594000000E+02  0.51100000000E-03 0.  1.
    9900012    2    1    2    0    0  0.30457967125E+02 -0.94091072697E+01  0.70825649809E+00  0.59301942102E+02  0.49999996488E+02 0.  0.
        -12    1    1    2    0    0 -0.30457967125E+02  0.94091072697E+01 -0.70825649809E+00  0.31886057898E+02  0.00000000000E+00 0.  1.
         11    1    3    3    0    0 -0.67386750071E+01 -0.16662903818E+02  0.67522342905E+01  0.19200384701E+02  0.51100000000E-03 0. -1.
        -11    1    3    3    0    0  0.29231924773E+02  0.76964623699E+01 -0.22722045986E+00  0.30229002437E+02  0.51100000000E-03 0.  1.
         12    1    3    3    0    0  0.79647173596E+01 -0.44266582150E+00 -0.58167573325E+01  0.98725549638E+01  0.00000000000E+00 0. -1.
</event>
<event>
 7    1  0.6065977E-013  0.5930193E+02  0.7816164E-02  0.1266605E+00
        -11   -1    0    0    0    0  0.00000000000E+00  0.00000000000E+00  0.45593999997E+02  0.45594000000E+02  0.51100000000E-03 0.  1.
         11   -1    0    0    0    0 -0.00000000000E+00 -0.00000000000E+00 -0.45593999997E+02  0.45594000000E+02  0.51100000000E-03 0. -1.
    9900012    2    1    2    0    0  0.36338375742E+01 -0.26591472683E+02  0.17216576250E+02  0.59301926351E+02  0.49999967762E+02 0.  0.
        -12    1    1    2    0    0 -0.36338375742E+01  0.26591472683E+02 -0.17216576250E+02  0.31886073649E+02  0.00000000000E+00 0.  1.
         11    1    3    3    0    0  0.73033247513E+01  0.57076358035E+00 -0.11711809245E+02  0.13814152147E+02  0.51100000000E-03 0. -1.
        -11    1    3    3    0    0 -0.27553563210E+01 -0.40161540717E+01  0.20127014326E+02  0.20707925727E+02  0.51100000000E-03 0.  1.
         12    1    3    3    0    0 -0.91413085610E+00 -0.23146082192E+02  0.88013711701E+01  0.24779848476E+02  0.00000000000E+00 0. -1.
</event>
<event>
 7    1  0.6065977E-013  0.5930194E+02  0.7816164E-02  0.1266605E+00
        -11   -1    0    0    0    0  0.00000000000E+00  0.00000000000E+00  0.45593999997E+02  0.45594000000E+02  0.51100000000E-03 0.  1.
         11   -1    0    0    0    0 -0.00000000000E+00 -0.00000000000E+00 -0.45593999997E+02  0.45594000000E+02  0.51100000000E-03 0. -1.
    9900012    2    1    2    0    0 -0.84517342463E+00 -0.30391811557E+02 -0.96095984646E+01  0.59301938618E+02  0.49999990134E+02 0.  0.
        -12    1    1    2    0    0  0.84517342463E+00  0.30391811557E+02  0.96095984646E+01  0.31886061382E+02  0.00000000000E+00 0.  1.
         11    1    3    3    0    0  0.17410736671E+02  0.20258021761E+01 -0.10851935370E+02  0.20615579726E+02  0.51100000000E-03 0. -1.
        -11    1    3    3    0    0 -0.12670862216E+02 -0.26346451873E+02  0.49343503742E+01  0.29648509060E+02  0.51100000000E-03 0.  1.
         12    1    3    3    0    0 -0.55850478796E+01 -0.60711618595E+01 -0.36920134685E+01  0.90378498324E+01  0.00000000000E+00 0. -1.
</event>
<event>
 7    1  0.6065977E-013  0.5930193E+02  0.7816164E-02  0.1266605E+00
        -11   -1    0    0    0    0  0.00000000000E+00  0.00000000000E+00  0.45593999997E+02  0.45594000000E+02  0.51100000000E-03 0. -1.
         11   -1    0    0    0    0 -0.00000000000E+00 -0.00000000000E+00 -0.45593999997E+02  0.45594000000E+02  0.51100000000E-03 0.  1.
    9900012    2    1    2    0    0 -0.67296982396E+01  0.14945606318E+02  0.27350713597E+02  0.59301929046E+02  0.49999972678E+02 0.  0.
        -12    1    1    2    0    0  0.67296982396E+01 -0.14945606318E+02 -0.27350713597E+02  0.31886070954E+02  0.00000000000E+00 0.  1.
         11    1    3    3    0    0 -0.53528184128E+01  0.29188471623E+02  0.35875158392E+01  0.29891299918E+02  0.51100000000E-03 0.  1.
        -11    1    3    3    0    0  0.18711070243E+01 -0.13933529702E+02  0.19624486412E+02  0.24140521093E+02  0.51100000000E-03 0. -1.
         12    1    3    3    0    0 -0.32479868512E+01 -0.30933560296E+00  0.41387113457E+01  0.52701080353E+01  0.00000000000E+00 0. -1.
</event>
<event>
 7    1  0.6065977E-013  0.5930196E+02  0.7816164E-02  0.1266605E+00
        -11   -1    0    0    0    0  0.00000000000E+00  0.00000000000E+00  0.45593999997E+02  0.45594000000E+02  0.51100000000E-03 0. -1.
         11   -1    0    0    0    0 -0.00000000000E+00 -0.00000000000E+00 -0.45593999997E+02  0.45594000000E+02  0.51100000000E-03 0.  1.
    9900012    2    1    2    0    0  0.51164667634E+01  0.29963220726E+02  0.96304967838E+01  0.59301963923E+02  0.50000036284E+02 0.  0.
        -12    1    1    2    0    0 -0.51164667634E+01 -0.29963220726E+02 -0.96304967838E+01  0.31886036077E+02  0.00000000000E+00 0.  1.
         11    1    3    3    0    0  0.53494685486E+01 -0.11784897633E+02  0.11447834901E+02  0.17278702213E+02  0.51100000000E-03 0. -1.
        -11    1    3    3    0    0  0.22192546705E+00  0.58618742329E+01 -0.17935116852E+01  0.61341262508E+01  0.51100000000E-03 0.  1.
         12    1    3    3    0    0 -0.45492725226E+00  0.35886244126E+02 -0.23826432377E-01  0.35889135459E+02  0.00000000000E+00 0. -1.
</event>
<event>
 7    1  0.6065977E-013  0.5930195E+02  0.7816164E-02  0.1266605E+00
        -11   -1    0    0    0    0  0.00000000000E+00  0.00000000000E+00  0.45593999997E+02  0.45594000000E+02  0.51100000000E-03 0.  1.
         11   -1    0    0    0    0 -0.00000000000E+00 -0.00000000000E+00 -0.45593999997E+02  0.45594000000E+02  0.51100000000E-03 0. -1.
    9900012    2    1    2    0    0  0.25599910744E+02  0.18906631762E+02 -0.19759158935E+01  0.59301946649E+02  0.50000004780E+02 0.  0.
        -12    1    1    2    0    0 -0.25599910744E+02 -0.18906631762E+02  0.19759158935E+01  0.31886053351E+02  0.00000000000E+00 0.  1.
         11    1    3    3    0    0 -0.52103491471E+01 -0.12882073759E+02 -0.24625652739E+01  0.14112398470E+02  0.51100000000E-03 0. -1.
        -11    1    3    3    0    0  0.12591039639E+02  0.19486953948E+02  0.49616840280E+00  0.23206073272E+02  0.51100000000E-03 0.  1.
         12    1    3    3    0    0  0.18219220252E+02  0.12301751574E+02 -0.95190224672E-02  0.21983474907E+02  0.00000000000E+00 0. -1.
</event>
<event>
 7    1  0.6065977E-013  0.5930195E+02  0.7816164E-02  0.1266605E+00
        -11   -1    0    0    0    0  0.00000000000E+00  0.00000000000E+00  0.45593999997E+02  0.45594000000E+02  0.51100000000E-03 0. -1.
         11   -1    0    0    0    0 -0.00000000000E+00 -0.00000000000E+00 -0.45593999997E+02  0.45594000000E+02  0.51100000000E-03 0.  1.
    9900012    2    1    2    0    0  0.61972733772E+01 -0.30771864514E+02 -0.56041314782E+01  0.59301950815E+02  0.50000012379E+02 0.  0.
        -12    1    1    2    0    0 -0.61972733772E+01  0.30771864514E+02  0.56041314782E+01  0.31886049185E+02  0.00000000000E+00 0.  1.
         11    1    3    3    0    0  0.21198158725E+02 -0.28708506580E+02  0.99473436458E+01  0.37047131188E+02  0.51100000000E-03 0. -1.
        -11    1    3    3    0    0 -0.10732099479E+02 -0.21035686048E+01 -0.78937590895E+01  0.13487564381E+02  0.51100000000E-03 0.  1.
         12    1    3    3    0    0 -0.42687858689E+01  0.40210670582E-01 -0.76577160345E+01  0.87672552466E+01  0.00000000000E+00 0. -1.
</event>
<event>
 7    1  0.6065977E-013  0.5930190E+02  0.7816164E-02  0.1266605E+00
        -11   -1    0    0    0    0  0.00000000000E+00  0.00000000000E+00  0.45593999997E+02  0.45594000000E+02  0.51100000000E-03 0.  1.
         11   -1    0    0    0    0 -0.00000000000E+00 -0.00000000000E+00 -0.45593999997E+02  0.45594000000E+02  0.51100000000E-03 0. -1.
    9900012    2    1    2    0    0  0.93096837918E+01  0.50644341647E+01 -0.30073319852E+02  0.59301901577E+02  0.49999922581E+02 0.  0.
        -12    1    1    2    0    0 -0.93096837918E+01 -0.50644341647E+01  0.30073319852E+02  0.31886098423E+02  0.00000000000E+00 0.  1.
         11    1    3    3    0    0 -0.76649439311E+01  0.24613729449E+01 -0.32235296016E+02  0.33225352244E+02  0.51100000000E-03 0. -1.
        -11    1    3    3    0    0  0.95699954811E+01  0.11119584763E+02  0.18495680082E+01  0.14786848241E+02  0.51100000000E-03 0.  1.
         12    1    3    3    0    0  0.74046322418E+01 -0.85165235432E+01  0.31240815664E+00  0.11289701092E+02  0.00000000000E+00 0. -1.
</event>
<event>
 7    1  0.6065977E-013  0.5930192E+02  0.7816164E-02  0.1266605E+00
        -11   -1    0    0    0    0  0.00000000000E+00  0.00000000000E+00  0.45593999997E+02  0.45594000000E+02  0.51100000000E-03 0.  1.
         11   -1    0    0    0    0 -0.00000000000E+00 -0.00000000000E+00 -0.45593999997E+02  0.45594000000E+02  0.51100000000E-03 0. -1.
    9900012    2    1    2    0    0  0.59240092701E+01  0.21395098975E+02 -0.22888374604E+02  0.59301924073E+02  0.49999963607E+02 0.  0.
        -12    1    1    2    0    0 -0.59240092701E+01 -0.21395098975E+02  0.22888374604E+02  0.31886075927E+02  0.00000000000E+00 0.  1.
         11    1    3    3    0    0  0.76272195782E+01 -0.12681764267E+02 -0.11510813784E+02  0.18748345464E+02  0.51100000000E-03 0. -1.
        -11    1    3    3    0    0 -0.69788300508E+01  0.19536867270E+02  0.96019910935E+00  0.20768130253E+02  0.51100000000E-03 0.  1.
        -12    1    3    3    0    0  0.52756197427E+01  0.14539995972E+02 -0.12337759930E+02  0.19785448356E+02  0.00000000000E+00 0.  1.
</event>
<event>
 7    1  0.6065977E-013  0.5930195E+02  0.7816164E-02  0.1266605E+00
        -11   -1    0    0    0    0  0.00000000000E+00  0.00000000000E+00  0.45593999997E+02  0.45594000000E+02  0.51100000000E-03 0.  1.
         11   -1    0    0    0    0 -0.00000000000E+00 -0.00000000000E+00 -0.45593999997E+02  0.45594000000E+02  0.51100000000E-03 0. -1.
    9900012    2    1    2    0    0 -0.12127004099E+02  0.28627465772E+02 -0.70798391148E+01  0.59301950592E+02  0.50000011972E+02 0.  0.
        -12    1    1    2    0    0  0.12127004099E+02 -0.28627465772E+02  0.70798391148E+01  0.31886049408E+02  0.00000000000E+00 0.  1.
         11    1    3    3    0    0  0.32304396451E+01  0.12044386238E+01 -0.20938050732E+02  0.21219999562E+02  0.51100000000E-03 0. -1.
        -11    1    3    3    0    0 -0.17410411230E+02  0.28227039263E+02  0.12256999035E+02  0.35357067050E+02  0.51100000000E-03 0.  1.
         12    1    3    3    0    0  0.20529674854E+01 -0.80401211492E+00  0.16012125819E+01  0.27248839809E+01  0.00000000000E+00 0. -1.
</event>
<event>
 7    1  0.6065977E-013  0.5930194E+02  0.7816164E-02  0.1266605E+00
        -11   -1    0    0    0    0  0.00000000000E+00  0.00000000000E+00  0.45593999997E+02  0.45594000000E+02  0.51100000000E-03 0.  1.
         11   -1    0    0    0    0 -0.00000000000E+00 -0.00000000000E+00 -0.45593999997E+02  0.45594000000E+02  0.51100000000E-03 0. -1.
    9900012    2    1    2    0    0 -0.28200681831E+02 -0.73063153592E+01 -0.12963800751E+02  0.59301939883E+02  0.49999992441E+02 0.  0.
        -12    1    1    2    0    0  0.28200681831E+02  0.73063153592E+01  0.12963800751E+02  0.31886060117E+02  0.00000000000E+00 0.  1.
         11    1    3    3    0    0  0.11842101123E+01 -0.20980894054E+02 -0.10683033989E+02  0.23573872918E+02  0.51100000000E-03 0. -1.
        -11    1    3    3    0    0 -0.20413278967E+02  0.16291296984E+01  0.34378102971E+00  0.20481069489E+02  0.51100000000E-03 0.  1.
         12    1    3    3    0    0 -0.89716129760E+01  0.12045448996E+02 -0.26245477914E+01  0.15246997475E+02  0.00000000000E+00 0. -1.
</event>
<event>
 7    1  0.6065977E-013  0.5930195E+02  0.7816164E-02  0.1266605E+00
        -11   -1    0    0    0    0  0.00000000000E+00  0.00000000000E+00  0.45593999997E+02  0.45594000000E+02  0.51100000000E-03 0.  1.
         11   -1    0    0    0    0 -0.00000000000E+00 -0.00000000000E+00 -0.45593999997E+02  0.45594000000E+02  0.51100000000E-03 0. -1.
    9900012    2    1    2    0    0 -0.20156827280E+02  0.23756073189E+02 -0.67876153826E+01  0.59301946278E+02  0.50000004104E+02 0.  0.
        -12    1    1    2    0    0  0.20156827280E+02 -0.23756073189E+02  0.67876153826E+01  0.31886053722E+02  0.00000000000E+00 0.  1.
         11    1    3    3    0    0  0.10233336635E+02  0.79985516255E+01  0.32701197608E+01  0.13393718315E+02  0.51100000000E-03 0. -1.
        -11    1    3    3    0    0 -0.28921768039E+02  0.22409340628E+02 -0.12511766486E+02  0.38667706355E+02  0.51100000000E-03 0.  1.
         12    1    3    3    0    0 -0.14683958765E+01 -0.66518190649E+01  0.24540313429E+01  0.72405216079E+01  0.00000000000E+00 0. -1.
</event>
<event>
 7    1  0.6065977E-013  0.5930195E+02  0.7816164E-02  0.1266605E+00
        -11   -1    0    0    0    0  0.00000000000E+00  0.00000000000E+00  0.45593999997E+02  0.45594000000E+02  0.51100000000E-03 0.  1.
         11   -1    0    0    0    0 -0.00000000000E+00 -0.00000000000E+00 -0.45593999997E+02  0.45594000000E+02  0.51100000000E-03 0. -1.
    9900012    2    1    2    0    0 -0.73244760919E+01  0.10078698386E+02 -0.29351184937E+02  0.59301950254E+02  0.50000011356E+02 0.  0.
        -12    1    1    2    0    0  0.73244760919E+01 -0.10078698386E+02  0.29351184937E+02  0.31886049746E+02  0.00000000000E+00 0.  1.
         11    1    3    3    0    0  0.19617552367E+01 -0.77696162897E+01 -0.87906288583E+01  0.11894981164E+02  0.51100000000E-03 0. -1.
        -11    1    3    3    0    0 -0.75006242414E+00  0.24638604943E+02 -0.25470484423E+02  0.35445296221E+02  0.51100000000E-03 0.  1.
        -12    1    3    3    0    0 -0.85361689044E+01 -0.67902902679E+01  0.49099283446E+01  0.11961672869E+02  0.00000000000E+00 0.  1.
</event>
<event>
 7    1  0.6065977E-013  0.5930194E+02  0.7816164E-02  0.1266605E+00
        -11   -1    0    0    0    0  0.00000000000E+00  0.00000000000E+00  0.45593999997E+02  0.45594000000E+02  0.51100000000E-03 0.  1.
         11   -1    0    0    0    0 -0.00000000000E+00 -0.00000000000E+00 -0.45593999997E+02  0.45594000000E+02  0.51100000000E-03 0. -1.
    9900012    2    1    2    0    0  0.24241253954E+02  0.19721330017E+02  0.63365370939E+01  0.59301937947E+02  0.49999988910E+02 0.  0.
        -12    1    1    2    0    0 -0.24241253954E+02 -0.19721330017E+02 -0.63365370939E+01  0.31886062053E+02  0.00000000000E+00 0.  1.
         11    1    3    3    0    0  0.20053755942E+02 -0.61614027590E+00  0.12195181177E+02  0.23478824511E+02  0.51100000000E-03 0. -1.
        -11    1    3    3    0    0 -0.88294735718E+01 -0.21314440717E+01 -0.35548466065E+01  0.97539526369E+01  0.51100000000E-03 0.  1.
         12    1    3    3    0    0  0.13016971584E+02  0.22468914365E+02 -0.23037974766E+01  0.26069160799E+02  0.00000000000E+00 0. -1.
</event>
<event>
 7    1  0.6065977E-013  0.5930194E+02  0.7816164E-02  0.1266605E+00
        -11   -1    0    0    0    0  0.00000000000E+00  0.00000000000E+00  0.45593999997E+02  0.45594000000E+02  0.51100000000E-03 0. -1.
         11   -1    0    0    0    0 -0.00000000000E+00 -0.00000000000E+00 -0.45593999997E+02  0.45594000000E+02  0.51100000000E-03 0.  1.
    9900012    2    1    2    0    0  0.23140685365E+02  0.20914283963E+02  0.66198253985E+01  0.59301942214E+02  0.49999996691E+02 0.  0.
        -12    1    1    2    0    0 -0.23140685365E+02 -0.20914283963E+02 -0.66198253985E+01  0.31886057786E+02  0.00000000000E+00 0.  1.
         11    1    3    3    0    0 -0.32510497846E+01 -0.14125207224E+01 -0.20744599853E+01  0.41070578258E+01  0.51100000000E-03 0. -1.
        -11    1    3    3    0    0  0.31754895445E+02  0.11658708095E+02 -0.79130240400E+01  0.34740679453E+02  0.51100000000E-03 0.  1.
        -12    1    3    3    0    0 -0.53631602949E+01  0.10668096590E+02  0.16607309424E+02  0.20454204935E+02  0.00000000000E+00 0.  1.
</event>
<event>
 7    1  0.6065977E-013  0.5930192E+02  0.7816164E-02  0.1266605E+00
        -11   -1    0    0    0    0  0.00000000000E+00  0.00000000000E+00  0.45593999997E+02  0.45594000000E+02  0.51100000000E-03 0.  1.
         11   -1    0    0    0    0 -0.00000000000E+00 -0.00000000000E+00 -0.45593999997E+02  0.45594000000E+02  0.51100000000E-03 0. -1.
    9900012    2    1    2    0    0 -0.19830313126E+02 -0.22612550569E+02  0.10590235045E+02  0.59301924038E+02  0.49999963544E+02 0.  0.
        -12    1    1    2    0    0  0.19830313126E+02  0.22612550569E+02 -0.10590235045E+02  0.31886075962E+02  0.00000000000E+00 0.  1.
         11    1    3    3    0    0 -0.87298356185E+01 -0.24646011343E+02 -0.12277037353E+02  0.28885317230E+02  0.51100000000E-03 0. -1.
        -11    1    3    3    0    0  0.22419871070E+01  0.31526299067E+01  0.13583391345E+02  0.14123530091E+02  0.51100000000E-03 0.  1.
        -12    1    3    3    0    0 -0.13342464614E+02 -0.11191691323E+01  0.92838810525E+01  0.16293076718E+02  0.00000000000E+00 0.  1.
</event>
<event>
 7    1  0.6065977E-013  0.5930193E+02  0.7816164E-02  0.1266605E+00
        -11   -1    0    0    0    0  0.00000000000E+00  0.00000000000E+00  0.45593999997E+02  0.45594000000E+02  0.51100000000E-03 0. -1.
         11   -1    0    0    0    0 -0.00000000000E+00 -0.00000000000E+00 -0.45593999997E+02  0.45594000000E+02  0.51100000000E-03 0.  1.
    9900012    2    1    2    0    0  0.26680591023E+02  0.42453596227E+01  0.16936475014E+02  0.59301934054E+02  0.49999981810E+02 0.  0.
        -12    1    1    2    0    0 -0.26680591023E+02 -0.42453596227E+01 -0.16936475014E+02  0.31886065946E+02  0.00000000000E+00 0.  1.
         11    1    3    3    0    0  0.71519098372E+01 -0.13823418494E+02  0.25748574592E+02  0.30086970718E+02  0.51100000000E-03 0. -1.
        -11    1    3    3    0    0  0.14478592559E+02  0.10994348118E+02 -0.22384788847E+01  0.18317099143E+02  0.51100000000E-03 0.  1.
         12    1    3    3    0    0  0.50500886266E+01  0.70744299984E+01 -0.65736206939E+01  0.10897864193E+02  0.00000000000E+00 0. -1.
</event>
<event>
 7    1  0.6065977E-013  0.5930199E+02  0.7816164E-02  0.1266605E+00
        -11   -1    0    0    0    0  0.00000000000E+00  0.00000000000E+00  0.45593999997E+02  0.45594000000E+02  0.51100000000E-03 0.  1.
         11   -1    0    0    0    0 -0.00000000000E+00 -0.00000000000E+00 -0.45593999997E+02  0.45594000000E+02  0.51100000000E-03 0. -1.
    9900012    2    1    2    0    0  0.40416777086E+00 -0.13902910993E+01 -0.31853125824E+02  0.59301986049E+02  0.50000076637E+02 0.  0.
        -12    1    1    2    0    0 -0.40416777086E+00  0.13902910993E+01  0.31853125824E+02  0.31886013951E+02  0.00000000000E+00 0.  1.
         11    1    3    3    0    0  0.77356675279E+01 -0.62178627359E+01 -0.83190321777E+01  0.12950238057E+02  0.51100000000E-03 0. -1.
        -11    1    3    3    0    0  0.28433491058E+01  0.14885236063E+02  0.36901457813E+01  0.15597181249E+02  0.51100000000E-03 0.  1.
        -12    1    3    3    0    0 -0.10174848863E+02 -0.10057664426E+02 -0.27224239428E+02  0.30754566742E+02  0.00000000000E+00 0.  1.
</event>
<event>
 7    1  0.6065977E-013  0.5930195E+02  0.7816164E-02  0.1266605E+00
        -11   -1    0    0    0    0  0.00000000000E+00  0.00000000000E+00  0.45593999997E+02  0.45594000000E+02  0.51100000000E-03 0.  1.
         11   -1    0    0    0    0 -0.00000000000E+00 -0.00000000000E+00 -0.45593999997E+02  0.45594000000E+02  0.51100000000E-03 0. -1.
    9900012    2    1    2    0    0 -0.17482155250E+02 -0.10373024026E+02 -0.24566135030E+02  0.59301947094E+02  0.50000005592E+02 0.  0.
        -12    1    1    2    0    0  0.17482155250E+02  0.10373024026E+02  0.24566135030E+02  0.31886052906E+02  0.00000000000E+00 0.  1.
         11    1    3    3    0    0  0.39299650648E+01 -0.14503247973E+02 -0.63571772088E+01  0.16315714189E+02  0.51100000000E-03 0.  1.
        -11    1    3    3    0    0 -0.22488760908E+02  0.49195200462E+01  0.16526582508E+01  0.23079803383E+02  0.51100000000E-03 0. -1.
         12    1    3    3    0    0  0.10766405930E+01 -0.78929609954E+00 -0.19861616072E+02  0.19906429521E+02  0.00000000000E+00 0. -1.
</event>
<event>
 7    1  0.6065977E-013  0.5930193E+02  0.7816164E-02  0.1266605E+00
        -11   -1    0    0    0    0  0.00000000000E+00  0.00000000000E+00  0.45593999997E+02  0.45594000000E+02  0.51100000000E-03 0.  1.
         11   -1    0    0    0    0 -0.00000000000E+00 -0.00000000000E+00 -0.45593999997E+02  0.45594000000E+02  0.51100000000E-03 0. -1.
    9900012    2    1    2    0    0  0.20854309785E+02 -0.65069279089E+01 -0.23226694381E+02  0.59301926562E+02  0.49999968147E+02 0.  0.
        -12    1    1    2    0    0 -0.20854309785E+02  0.65069279089E+01  0.23226694381E+02  0.31886073438E+02  0.00000000000E+00 0.  1.
         11    1    3    3    0    0  0.23013393299E+02 -0.21663005741E+02 -0.83771225367E+01  0.32696762395E+02  0.51100000000E-03 0. -1.
        -11    1    3    3    0    0  0.53183369902E+01  0.11716550544E+02 -0.12743012970E+02  0.18109297192E+02  0.51100000000E-03 0.  1.
         12    1    3    3    0    0 -0.74774205042E+01  0.34395272881E+01 -0.21065588744E+01  0.84958669748E+01  0.00000000000E+00 0. -1.
</event>
<event>
 7    1  0.6065977E-013  0.5930194E+02  0.7816164E-02  0.1266605E+00
        -11   -1    0    0    0    0  0.00000000000E+00  0.00000000000E+00  0.45593999997E+02  0.45594000000E+02  0.51100000000E-03 0.  1.
         11   -1    0    0    0    0 -0.00000000000E+00 -0.00000000000E+00 -0.45593999997E+02  0.45594000000E+02  0.51100000000E-03 0. -1.
    9900012    2    1    2    0    0  0.19315466796E+02  0.18887730539E+02 -0.16937740986E+02  0.59301942041E+02  0.49999996377E+02 0.  0.
        -12    1    1    2    0    0 -0.19315466796E+02 -0.18887730539E+02  0.16937740986E+02  0.31886057959E+02  0.00000000000E+00 0.  1.
         11    1    3    3    0    0 -0.11339255379E+01  0.14157581954E+02 -0.11976008004E+02  0.18578150658E+02  0.51100000000E-03 0. -1.
        -11    1    3    3    0    0  0.23573637413E+02 -0.31895788198E+01 -0.14562518004E+02  0.27891875606E+02  0.51100000000E-03 0.  1.
        -12    1    3    3    0    0 -0.31242450791E+01  0.79197274046E+01  0.96007850215E+01  0.12831915777E+02  0.00000000000E+00 0.  1.
</event>
<event>
 7    1  0.6065977E-013  0.5930197E+02  0.7816164E-02  0.1266605E+00
        -11   -1    0    0    0    0  0.00000000000E+00  0.00000000000E+00  0.45593999997E+02  0.45594000000E+02  0.51100000000E-03 0.  1.
         11   -1    0    0    0    0 -0.00000000000E+00 -0.00000000000E+00 -0.45593999997E+02  0.45594000000E+02  0.51100000000E-03 0. -1.
    9900012    2    1    2    0    0 -0.16533408062E+02  0.10190018443E+02 -0.25288912174E+02  0.59301966427E+02  0.50000040852E+02 0.  0.
        -12    1    1    2    0    0  0.16533408062E+02 -0.10190018443E+02  0.25288912174E+02  0.31886033573E+02  0.00000000000E+00 0.  1.
         11    1    3    3    0    0 -0.17409020303E+02  0.50984888640E+01 -0.15355673398E+02  0.23766894672E+02  0.51100000000E-03 0. -1.
        -11    1    3    3    0    0  0.11061388071E+02  0.15829278793E+02 -0.52653568183E+01  0.20016102414E+02  0.51100000000E-03 0.  1.
        -12    1    3    3    0    0 -0.10185775830E+02 -0.10737749214E+02 -0.46678819586E+01  0.15518969341E+02  0.00000000000E+00 0.  1.
</event>
<event>
 7    1  0.6065977E-013  0.5930191E+02  0.7816164E-02  0.1266605E+00
        -11   -1    0    0    0    0  0.00000000000E+00  0.00000000000E+00  0.45593999997E+02  0.45594000000E+02  0.51100000000E-03 0.  1.
         11   -1    0    0    0    0 -0.00000000000E+00 -0.00000000000E+00 -0.45593999997E+02  0.45594000000E+02  0.51100000000E-03 0. -1.
    9900012    2    1    2    0    0 -0.11693917920E+02 -0.42577287249E+01 -0.29357229278E+02  0.59301907717E+02  0.49999933777E+02 0.  0.
        -12    1    1    2    0    0  0.11693917920E+02  0.42577287249E+01  0.29357229278E+02  0.31886092283E+02  0.00000000000E+00 0.  1.
         11    1    3    3    0    0 -0.81381309474E+01 -0.95200374722E+01 -0.22749701041E+02  0.25969389413E+02  0.51100000000E-03 0. -1.
        -11    1    3    3    0    0  0.95102548317E+01 -0.65401080557E+01  0.46395294594E+01  0.12439581754E+02  0.51100000000E-03 0.  1.
        -12    1    3    3    0    0 -0.13066041805E+02  0.11802416803E+02 -0.11247057696E+02  0.20892936550E+02  0.00000000000E+00 0.  1.
</event>
<event>
 7    1  0.6065977E-013  0.5930188E+02  0.7816164E-02  0.1266605E+00
        -11   -1    0    0    0    0  0.00000000000E+00  0.00000000000E+00  0.45593999997E+02  0.45594000000E+02  0.51100000000E-03 0.  1.
         11   -1    0    0    0    0 -0.00000000000E+00 -0.00000000000E+00 -0.45593999997E+02  0.45594000000E+02  0.51100000000E-03 0. -1.
    9900012    2    1    2    0    0 -0.25798156210E+02 -0.18738830256E+02 -0.18970214390E+00  0.59301880604E+02  0.49999884331E+02 0.  0.
        -12    1    1    2    0    0  0.25798156210E+02  0.18738830256E+02  0.18970214390E+00  0.31886119396E+02  0.00000000000E+00 0.  1.
         11    1    3    3    0    0 -0.10013562445E+02 -0.65911076456E+01 -0.27574821469E+01  0.12301131692E+02  0.51100000000E-03 0. -1.
        -11    1    3    3    0    0  0.63314320648E+01  0.11988039645E+02 -0.27559315753E+01  0.13834568501E+02  0.51100000000E-03 0.  1.
        -12    1    3    3    0    0 -0.22116025830E+02 -0.24135762255E+02  0.53237115783E+01  0.33166180412E+02  0.00000000000E+00 0.  1.
</event>
<event>
 7    1  0.6065977E-013  0.5930193E+02  0.7816164E-02  0.1266605E+00
        -11   -1    0    0    0    0  0.00000000000E+00  0.00000000000E+00  0.45593999997E+02  0.45594000000E+02  0.51100000000E-03 0.  1.
         11   -1    0    0    0    0 -0.00000000000E+00 -0.00000000000E+00 -0.45593999997E+02  0.45594000000E+02  0.51100000000E-03 0. -1.
    9900012    2    1    2    0    0 -0.46952927425E+01 -0.18443693804E+02 -0.25583307237E+02  0.59301933697E+02  0.49999981160E+02 0.  0.
        -12    1    1    2    0    0  0.46952927425E+01  0.18443693804E+02  0.25583307237E+02  0.31886066303E+02  0.00000000000E+00 0.  1.
         11    1    3    3    0    0 -0.11783600337E+02  0.69728358569E+00 -0.20899758668E+02  0.24002903031E+02  0.51100000000E-03 0.  1.
        -11    1    3    3    0    0 -0.11204364892E+01 -0.24559815714E+02 -0.61790691349E+01  0.25349966892E+02  0.51100000000E-03 0. -1.
        -12    1    3    3    0    0  0.82087440837E+01  0.54188383236E+01  0.14955205655E+01  0.99490637736E+01  0.00000000000E+00 0.  1.
</event>
<event>
 7    1  0.6065977E-013  0.5930195E+02  0.7816164E-02  0.1266605E+00
        -11   -1    0    0    0    0  0.00000000000E+00  0.00000000000E+00  0.45593999997E+02  0.45594000000E+02  0.51100000000E-03 0. -1.
         11   -1    0    0    0    0 -0.00000000000E+00 -0.00000000000E+00 -0.45593999997E+02  0.45594000000E+02  0.51100000000E-03 0.  1.
    9900012    2    1    2    0    0  0.16856449243E+02  0.24316774759E+02  0.11885918938E+02  0.59301945293E+02  0.50000002307E+02 0.  0.
        -12    1    1    2    0    0 -0.16856449243E+02 -0.24316774759E+02 -0.11885918938E+02  0.31886054707E+02  0.00000000000E+00 0.  1.
         11    1    3    3    0    0 -0.11301321747E+01  0.47625271369E+01  0.27155755220E+01  0.55976078944E+01  0.51100000000E-03 0. -1.
        -11    1    3    3    0    0 -0.16496662472E+01 -0.94803712567E+01 -0.98957920350E+01  0.13803098860E+02  0.51100000000E-03 0.  1.
        -12    1    3    3    0    0  0.19636247665E+02  0.29034618879E+02  0.19066135451E+02  0.39901238538E+02  0.00000000000E+00 0.  1.
</event>
<event>
 7    1  0.6065977E-013  0.5930187E+02  0.7816164E-02  0.1266605E+00
        -11   -1    0    0    0    0  0.00000000000E+00  0.00000000000E+00  0.45593999997E+02  0.45594000000E+02  0.51100000000E-03 0. -1.
         11   -1    0    0    0    0 -0.00000000000E+00 -0.00000000000E+00 -0.45593999997E+02  0.45594000000E+02  0.51100000000E-03 0.  1.
    9900012    2    1    2    0    0  0.16204998730E+02  0.19086042137E+02  0.19744528088E+02  0.59301868568E+02  0.49999862379E+02 0.  0.
        -12    1    1    2    0    0 -0.16204998730E+02 -0.19086042137E+02 -0.19744528088E+02  0.31886131432E+02  0.00000000000E+00 0.  1.
         11    1    3    3    0    0 -0.86481251540E+01 -0.33717137327E+01  0.19832654629E+02  0.21897322030E+02  0.51100000000E-03 0. -1.
        -11    1    3    3    0    0  0.15247932242E+02  0.14264389726E+02 -0.81620849193E+01  0.22418561114E+02  0.51100000000E-03 0.  1.
         12    1    3    3    0    0  0.96051916418E+01  0.81933661440E+01  0.80739583777E+01  0.14985985424E+02  0.00000000000E+00 0. -1.
</event>
<event>
 7    1  0.6065977E-013  0.5930196E+02  0.7816164E-02  0.1266605E+00
        -11   -1    0    0    0    0  0.00000000000E+00  0.00000000000E+00  0.45593999997E+02  0.45594000000E+02  0.51100000000E-03 0.  1.
         11   -1    0    0    0    0 -0.00000000000E+00 -0.00000000000E+00 -0.45593999997E+02  0.45594000000E+02  0.51100000000E-03 0. -1.
    9900012    2    1    2    0    0  0.88804211811E+01 -0.21003349821E+02 -0.22287148066E+02  0.59301959904E+02  0.50000028955E+02 0.  0.
        -12    1    1    2    0    0 -0.88804211811E+01  0.21003349821E+02  0.22287148066E+02  0.31886040096E+02  0.00000000000E+00 0.  1.
         11    1    3    3    0    0  0.23406923683E+02 -0.52732332695E+01  0.20045602938E+01  0.24077153645E+02  0.51100000000E-03 0. -1.
        -11    1    3    3    0    0 -0.42738585018E+01  0.20052648355E+01 -0.26031905459E+01  0.53910624958E+01  0.51100000000E-03 0.  1.
         12    1    3    3    0    0 -0.10252644000E+02 -0.17735381387E+02 -0.21688517814E+02  0.29833743763E+02  0.00000000000E+00 0. -1.
</event>
<event>
 7    1  0.6065977E-013  0.5930210E+02  0.7816164E-02  0.1266604E+00
        -11   -1    0    0    0    0  0.00000000000E+00  0.00000000000E+00  0.45593999997E+02  0.45594000000E+02  0.51100000000E-03 0. -1.
         11   -1    0    0    0    0 -0.00000000000E+00 -0.00000000000E+00 -0.45593999997E+02  0.45594000000E+02  0.51100000000E-03 0.  1.
    9900012    2    1    2    0    0  0.93698179005E+01 -0.57221228175E+01  0.29936175605E+02  0.59302097365E+02  0.50000279649E+02 0.  0.
        -12    1    1    2    0    0 -0.93698179005E+01  0.57221228175E+01 -0.29936175605E+02  0.31885902635E+02  0.00000000000E+00 0.  1.
         11    1    3    3    0    0  0.28521833949E+02 -0.55063601920E+01  0.26948021591E+02  0.39623362834E+02  0.51100000000E-03 0. -1.
        -11    1    3    3    0    0 -0.80900462929E+01 -0.17009281630E+01  0.17387867541E+01  0.84478035769E+01  0.51100000000E-03 0.  1.
         12    1    3    3    0    0 -0.11061969755E+02  0.14851655375E+01  0.12493672597E+01  0.11230930954E+02  0.00000000000E+00 0. -1.
</event>
<event>
 7    1  0.6065977E-013  0.5930194E+02  0.7816164E-02  0.1266605E+00
        -11   -1    0    0    0    0  0.00000000000E+00  0.00000000000E+00  0.45593999997E+02  0.45594000000E+02  0.51100000000E-03 0.  1.
         11   -1    0    0    0    0 -0.00000000000E+00 -0.00000000000E+00 -0.45593999997E+02  0.45594000000E+02  0.51100000000E-03 0. -1.
    9900012    2    1    2    0    0 -0.10418699376E+02 -0.22889821746E+02 -0.19601731979E+02  0.59301935131E+02  0.49999983774E+02 0.  0.
        -12    1    1    2    0    0  0.10418699376E+02  0.22889821746E+02  0.19601731979E+02  0.31886064869E+02  0.00000000000E+00 0.  1.
         11    1    3    3    0    0 -0.51195629914E+01 -0.22582420375E+02 -0.11671157833E+02  0.25930514083E+02  0.51100000000E-03 0. -1.
        -11    1    3    3    0    0  0.12137846646E+02  0.50580470617E+01 -0.74669570532E+01  0.15121726395E+02  0.51100000000E-03 0.  1.
        -12    1    3    3    0    0 -0.17436983031E+02 -0.53654484336E+01 -0.46361709267E+00  0.18249694653E+02  0.00000000000E+00 0.  1.
</event>
<event>
 7    1  0.6065977E-013  0.5930196E+02  0.7816164E-02  0.1266605E+00
        -11   -1    0    0    0    0  0.00000000000E+00  0.00000000000E+00  0.45593999997E+02  0.45594000000E+02  0.51100000000E-03 0.  1.
         11   -1    0    0    0    0 -0.00000000000E+00 -0.00000000000E+00 -0.45593999997E+02  0.45594000000E+02  0.51100000000E-03 0. -1.
    9900012    2    1    2    0    0  0.13307670494E+02 -0.28617963204E+02 -0.45428974988E+01  0.59301955567E+02  0.50000021044E+02 0.  0.
        -12    1    1    2    0    0 -0.13307670494E+02  0.28617963204E+02  0.45428974988E+01  0.31886044433E+02  0.00000000000E+00 0.  1.
         11    1    3    3    0    0 -0.49266463375E+01  0.54715079442E+01 -0.16872520642E+02  0.18408997702E+02  0.51100000000E-03 0. -1.
        -11    1    3    3    0    0  0.76065068711E+01 -0.10220630892E+02  0.55691382765E+01  0.13904515238E+02  0.51100000000E-03 0.  1.
         12    1    3    3    0    0  0.10627809960E+02 -0.23868840257E+02  0.67604848671E+01  0.26988442626E+02  0.00000000000E+00 0. -1.
</event>
<event>
 7    1  0.6065977E-013  0.5930194E+02  0.7816164E-02  0.1266605E+00
        -11   -1    0    0    0    0  0.00000000000E+00  0.00000000000E+00  0.45593999997E+02  0.45594000000E+02  0.51100000000E-03 0.  1.
         11   -1    0    0    0    0 -0.00000000000E+00 -0.00000000000E+00 -0.45593999997E+02  0.45594000000E+02  0.51100000000E-03 0. -1.
    9900012    2    1    2    0    0  0.12917287143E+02 -0.12791587258E+02 -0.26196177077E+02  0.59301941837E+02  0.49999996005E+02 0.  0.
        -12    1    1    2    0    0 -0.12917287143E+02  0.12791587258E+02  0.26196177077E+02  0.31886058163E+02  0.00000000000E+00 0.  1.
         11    1    3    3    0    0  0.56843560601E+01  0.11187660210E+02 -0.28881335579E+02  0.31489795012E+02  0.51100000000E-03 0. -1.
        -11    1    3    3    0    0  0.44301009495E+00 -0.19046211158E+02  0.17531119262E+00  0.19052169213E+02  0.51100000000E-03 0.  1.
        -12    1    3    3    0    0  0.67899209881E+01 -0.49330363103E+01  0.25098473093E+01  0.87599776129E+01  0.00000000000E+00 0.  1.
</event>
<event>
 7    1  0.6065977E-013  0.5930195E+02  0.7816164E-02  0.1266605E+00
        -11   -1    0    0    0    0  0.00000000000E+00  0.00000000000E+00  0.45593999997E+02  0.45594000000E+02  0.51100000000E-03 0. -1.
         11   -1    0    0    0    0 -0.00000000000E+00 -0.00000000000E+00 -0.45593999997E+02  0.45594000000E+02  0.51100000000E-03 0.  1.
    9900012    2    1    2    0    0 -0.11159618293E+02 -0.29701358016E+02  0.31642716862E+01  0.59301947190E+02  0.50000005768E+02 0.  0.
        -12    1    1    2    0    0  0.11159618293E+02  0.29701358016E+02 -0.31642716862E+01  0.31886052810E+02  0.00000000000E+00 0.  1.
         11    1    3    3    0    0  0.11516749411E+02 -0.24235956810E+00  0.14437420191E+02  0.18469795808E+02  0.51100000000E-03 0. -1.
        -11    1    3    3    0    0 -0.18483097523E+02 -0.13903177437E+02 -0.69849121798E+01  0.24160137320E+02  0.51100000000E-03 0.  1.
         12    1    3    3    0    0 -0.41932701814E+01 -0.15555821011E+02 -0.42882363248E+01  0.16672014063E+02  0.00000000000E+00 0. -1.
</event>
<event>
 7    1  0.6065977E-013  0.5930199E+02  0.7816164E-02  0.1266605E+00
        -11   -1    0    0    0    0  0.00000000000E+00  0.00000000000E+00  0.45593999997E+02  0.45594000000E+02  0.51100000000E-03 0.  1.
         11   -1    0    0    0    0 -0.00000000000E+00 -0.00000000000E+00 -0.45593999997E+02  0.45594000000E+02  0.51100000000E-03 0. -1.
    9900012    2    1    2    0    0 -0.22226922621E+02 -0.18245355785E+02 -0.13776372614E+02  0.59301991480E+02  0.50000086542E+02 0.  0.
        -12    1    1    2    0    0  0.22226922621E+02  0.18245355785E+02  0.13776372614E+02  0.31886008520E+02  0.00000000000E+00 0.  1.
         11    1    3    3    0    0  0.32768477790E+01 -0.14168690374E+02  0.89739021771E+01  0.17088605526E+02  0.51100000000E-03 0. -1.
        -11    1    3    3    0    0 -0.16411814487E+02 -0.84082786124E+00  0.11145799564E+01  0.16471093922E+02  0.51100000000E-03 0.  1.
         12    1    3    3    0    0 -0.90919559130E+01 -0.32358375503E+01 -0.23864854747E+02  0.25742292033E+02  0.00000000000E+00 0. -1.
</event>
<event>
 7    1  0.6065977E-013  0.5930201E+02  0.7816164E-02  0.1266605E+00
        -11   -1    0    0    0    0  0.00000000000E+00  0.00000000000E+00  0.45593999997E+02  0.45594000000E+02  0.51100000000E-03 0.  1.
         11   -1    0    0    0    0 -0.00000000000E+00 -0.00000000000E+00 -0.45593999997E+02  0.45594000000E+02  0.51100000000E-03 0. -1.
    9900012    2    1    2    0    0 -0.34126493733E+01 -0.72142235724E+01 -0.30871102545E+02  0.59302012955E+02  0.50000125707E+02 0.  0.
        -12    1    1    2    0    0  0.34126493733E+01  0.72142235724E+01  0.30871102545E+02  0.31885987045E+02  0.00000000000E+00 0.  1.
         11    1    3    3    0    0  0.13982040867E+01  0.96540958184E+01 -0.17044791512E+02  0.19638774368E+02  0.51100000000E-03 0. -1.
        -11    1    3    3    0    0 -0.78459513268E+00 -0.23863643834E+02 -0.18617477611E+02  0.30277046741E+02  0.51100000000E-03 0.  1.
        -12    1    3    3    0    0 -0.40262583274E+01  0.69953244427E+01  0.47911665780E+01  0.93861918452E+01  0.00000000000E+00 0.  1.
</event>
<event>
 7    1  0.6065977E-013  0.5930193E+02  0.7816164E-02  0.1266605E+00
        -11   -1    0    0    0    0  0.00000000000E+00  0.00000000000E+00  0.45593999997E+02  0.45594000000E+02  0.51100000000E-03 0.  1.
         11   -1    0    0    0    0 -0.00000000000E+00 -0.00000000000E+00 -0.45593999997E+02  0.45594000000E+02  0.51100000000E-03 0. -1.
    9900012    2    1    2    0    0  0.12988784527E+02  0.20578124891E+02 -0.20604696056E+02  0.59301933340E+02  0.49999980507E+02 0.  0.
        -12    1    1    2    0    0 -0.12988784527E+02 -0.20578124891E+02  0.20604696056E+02  0.31886066660E+02  0.00000000000E+00 0.  1.
         11    1    3    3    0    0  0.15298512526E+02  0.97730646893E+01  0.72414970339E+01  0.19544732243E+02  0.51100000000E-03 0. -1.
        -11    1    3    3    0    0  0.20908490291E+01  0.18967320320E+02 -0.18009574862E+02  0.26238820034E+02  0.51100000000E-03 0.  1.
         12    1    3    3    0    0 -0.44005770276E+01 -0.81622601177E+01 -0.98366182272E+01  0.13518381063E+02  0.00000000000E+00 0. -1.
</event>
<event>
 7    1  0.6065977E-013  0.5930191E+02  0.7816164E-02  0.1266605E+00
        -11   -1    0    0    0    0  0.00000000000E+00  0.00000000000E+00  0.45593999997E+02  0.45594000000E+02  0.51100000000E-03 0.  1.
         11   -1    0    0    0    0 -0.00000000000E+00 -0.00000000000E+00 -0.45593999997E+02  0.45594000000E+02  0.51100000000E-03 0. -1.
    9900012    2    1    2    0    0 -0.19386627367E+02 -0.23123422928E+02  0.10304797886E+02  0.59301907921E+02  0.49999934151E+02 0.  0.
        -12    1    1    2    0    0  0.19386627367E+02  0.23123422928E+02 -0.10304797886E+02  0.31886092079E+02  0.00000000000E+00 0.  1.
         11    1    3    3    0    0 -0.10108801585E+02 -0.20744199142E+02 -0.73767159304E+01  0.24226547540E+02  0.51100000000E-03 0. -1.
        -11    1    3    3    0    0 -0.13132178231E+02  0.88141232907E+01  0.16996942225E+02  0.23217211713E+02  0.51100000000E-03 0.  1.
        -12    1    3    3    0    0  0.38543524492E+01 -0.11193347077E+02  0.68457159173E+00  0.11858148669E+02  0.00000000000E+00 0.  1.
</event>
<event>
 7    1  0.6065977E-013  0.5930193E+02  0.7816164E-02  0.1266605E+00
        -11   -1    0    0    0    0  0.00000000000E+00  0.00000000000E+00  0.45593999997E+02  0.45594000000E+02  0.51100000000E-03 0.  1.
         11   -1    0    0    0    0 -0.00000000000E+00 -0.00000000000E+00 -0.45593999997E+02  0.45594000000E+02  0.51100000000E-03 0. -1.
    9900012    2    1    2    0    0 -0.16760210025E+02  0.17610893408E+02 -0.20631849443E+02  0.59301930657E+02  0.49999975615E+02 0.  0.
        -12    1    1    2    0    0  0.16760210025E+02 -0.17610893408E+02  0.20631849443E+02  0.31886069343E+02  0.00000000000E+00 0.  1.
         11    1    3    3    0    0  0.72302226708E+00  0.14827771673E+02 -0.23446124844E+02  0.27750789979E+02  0.51100000000E-03 0. -1.
        -11    1    3    3    0    0 -0.19337179994E+02  0.60119828503E+01  0.10646966252E+02  0.22878556741E+02  0.51100000000E-03 0.  1.
        -12    1    3    3    0    0  0.18539477012E+01 -0.32288611152E+01 -0.78326908514E+01  0.86725839375E+01  0.00000000000E+00 0.  1.
</event>
<event>
 7    1  0.6065977E-013  0.5930194E+02  0.7816164E-02  0.1266605E+00
        -11   -1    0    0    0    0  0.00000000000E+00  0.00000000000E+00  0.45593999997E+02  0.45594000000E+02  0.51100000000E-03 0. -1.
         11   -1    0    0    0    0 -0.00000000000E+00 -0.00000000000E+00 -0.45593999997E+02  0.45594000000E+02  0.51100000000E-03 0.  1.
    9900012    2    1    2    0    0  0.17815690777E+02  0.15501451517E+02  0.21424914489E+02  0.59301940383E+02  0.49999993353E+02 0.  0.
        -12    1    1    2    0    0 -0.17815690777E+02 -0.15501451517E+02 -0.21424914489E+02  0.31886059617E+02  0.00000000000E+00 0.  1.
         11    1    3    3    0    0  0.17205044251E+02 -0.37326186691E+01  0.30612405511E+02  0.35313812613E+02  0.51100000000E-03 0. -1.
        -11    1    3    3    0    0  0.23349937222E+01  0.67197375184E+01 -0.88451249892E+01  0.11350916454E+02  0.51100000000E-03 0.  1.
         12    1    3    3    0    0 -0.17243471958E+01  0.12514332667E+02 -0.34236603279E+00  0.12637211317E+02  0.00000000000E+00 0. -1.
</event>
<event>
 7    1  0.6065977E-013  0.5930195E+02  0.7816164E-02  0.1266605E+00
        -11   -1    0    0    0    0  0.00000000000E+00  0.00000000000E+00  0.45593999997E+02  0.45594000000E+02  0.51100000000E-03 0. -1.
         11   -1    0    0    0    0 -0.00000000000E+00 -0.00000000000E+00 -0.45593999997E+02  0.45594000000E+02  0.51100000000E-03 0.  1.
    9900012    2    1    2    0    0 -0.21291644517E+02 -0.15888731558E+02  0.17633332647E+02  0.59301947610E+02  0.50000006533E+02 0.  0.
        -12    1    1    2    0    0  0.21291644517E+02  0.15888731558E+02 -0.17633332647E+02  0.31886052390E+02  0.00000000000E+00 0.  1.
         11    1    3    3    0    0 -0.31136071734E+01 -0.85833747571E+01  0.15452168366E+02  0.17948213820E+02  0.51100000000E-03 0. -1.
        -11    1    3    3    0    0 -0.61026595213E+01  0.25659023380E+01 -0.16049821545E+02  0.17361540253E+02  0.51100000000E-03 0.  1.
        -12    1    3    3    0    0 -0.12075377823E+02 -0.98712591391E+01  0.18230985826E+02  0.23992193537E+02  0.00000000000E+00 0.  1.
</event>
<event>
 7    1  0.6065977E-013  0.5930186E+02  0.7816164E-02  0.1266605E+00
        -11   -1    0    0    0    0  0.00000000000E+00  0.00000000000E+00  0.45593999997E+02  0.45594000000E+02  0.51100000000E-03 0.  1.
         11   -1    0    0    0    0 -0.00000000000E+00 -0.00000000000E+00 -0.45593999997E+02  0.45594000000E+02  0.51100000000E-03 0. -1.
    9900012    2    1    2    0    0 -0.15011178310E+02  0.27460272042E+02 -0.61093348533E+01  0.59301859010E+02  0.49999844948E+02 0.  0.
        -12    1    1    2    0    0  0.15011178310E+02 -0.27460272042E+02  0.61093348533E+01  0.31886140990E+02  0.00000000000E+00 0.  1.
         11    1    3    3    0    0 -0.18762780153E+02  0.28774947879E+02 -0.20539684285E+02  0.40023970009E+02  0.51100000000E-03 0. -1.
        -11    1    3    3    0    0  0.51354023884E+01  0.71295559043E+00  0.58609744939E+00  0.52176789712E+01  0.51100000000E-03 0.  1.
         12    1    3    3    0    0 -0.13838005462E+01 -0.20276314276E+01  0.13844251982E+02  0.14060210030E+02  0.00000000000E+00 0. -1.
</event>
<event>
 7    1  0.6065977E-013  0.5930185E+02  0.7816164E-02  0.1266605E+00
        -11   -1    0    0    0    0  0.00000000000E+00  0.00000000000E+00  0.45593999997E+02  0.45594000000E+02  0.51100000000E-03 0.  1.
         11   -1    0    0    0    0 -0.00000000000E+00 -0.00000000000E+00 -0.45593999997E+02  0.45594000000E+02  0.51100000000E-03 0. -1.
    9900012    2    1    2    0    0  0.30923619487E+02  0.77704678480E+01  0.27593225129E+00  0.59301850164E+02  0.49999828815E+02 0.  0.
        -12    1    1    2    0    0 -0.30923619487E+02 -0.77704678480E+01 -0.27593225129E+00  0.31886149836E+02  0.00000000000E+00 0.  1.
         11    1    3    3    0    0  0.93037787678E+01 -0.12151496883E+02 -0.72158750916E+01  0.16920048152E+02  0.51100000000E-03 0. -1.
        -11    1    3    3    0    0  0.64412673301E+01  0.22537863515E+02 -0.31638612243E+01  0.23652806065E+02  0.51100000000E-03 0.  1.
        -12    1    3    3    0    0  0.15178573389E+02 -0.26158987833E+01  0.10655668567E+02  0.18728995947E+02  0.00000000000E+00 0.  1.
</event>
<event>
 7    1  0.6065977E-013  0.5930192E+02  0.7816164E-02  0.1266605E+00
        -11   -1    0    0    0    0  0.00000000000E+00  0.00000000000E+00  0.45593999997E+02  0.45594000000E+02  0.51100000000E-03 0.  1.
         11   -1    0    0    0    0 -0.00000000000E+00 -0.00000000000E+00 -0.45593999997E+02  0.45594000000E+02  0.51100000000E-03 0. -1.
    9900012    2    1    2    0    0  0.12990800401E+02 -0.54828457262E+01 -0.28598939754E+02  0.59301923927E+02  0.49999963341E+02 0.  0.
        -12    1    1    2    0    0 -0.12990800401E+02  0.54828457262E+01  0.28598939754E+02  0.31886076073E+02  0.00000000000E+00 0.  1.
         11    1    3    3    0    0  0.88086975038E+01  0.21251340442E+02 -0.54701273142E+01  0.23646033819E+02  0.51100000000E-03 0.  1.
        -11    1    3    3    0    0  0.21781631092E+01 -0.18988036553E+02 -0.16964762662E+02  0.25555686238E+02  0.51100000000E-03 0. -1.
        -12    1    3    3    0    0  0.20039397884E+01 -0.77461496157E+01 -0.61640497778E+01  0.10100203870E+02  0.00000000000E+00 0.  1.
</event>
<event>
 7    1  0.6065977E-013  0.5930202E+02  0.7816164E-02  0.1266604E+00
        -11   -1    0    0    0    0  0.00000000000E+00  0.00000000000E+00  0.45593999997E+02  0.45594000000E+02  0.51100000000E-03 0.  1.
         11   -1    0    0    0    0 -0.00000000000E+00 -0.00000000000E+00 -0.45593999997E+02  0.45594000000E+02  0.51100000000E-03 0. -1.
    9900012    2    1    2    0    0 -0.69945520544E+01  0.20915263738E+02 -0.23029192036E+02  0.59302020299E+02  0.50000139100E+02 0.  0.
        -12    1    1    2    0    0  0.69945520544E+01 -0.20915263738E+02  0.23029192036E+02  0.31885979701E+02  0.00000000000E+00 0.  1.
         11    1    3    3    0    0 -0.22999381022E+01  0.86214037815E+01 -0.11943211483E+02  0.14908340593E+02  0.51100000000E-03 0. -1.
        -11    1    3    3    0    0  0.26813762788E+01  0.87899949419E+01  0.14705214106E+02  0.17340620288E+02  0.51100000000E-03 0.  1.
        -12    1    3    3    0    0 -0.73759902310E+01  0.35038650145E+01 -0.25791194658E+02  0.27053059417E+02  0.00000000000E+00 0.  1.
</event>
<event>
 7    1  0.6065977E-013  0.5930192E+02  0.7816164E-02  0.1266605E+00
        -11   -1    0    0    0    0  0.00000000000E+00  0.00000000000E+00  0.45593999997E+02  0.45594000000E+02  0.51100000000E-03 0.  1.
         11   -1    0    0    0    0 -0.00000000000E+00 -0.00000000000E+00 -0.45593999997E+02  0.45594000000E+02  0.51100000000E-03 0. -1.
    9900012    2    1    2    0    0 -0.17095180842E+02 -0.13774785511E+02 -0.23124273683E+02  0.59301922203E+02  0.49999960197E+02 0.  0.
        -12    1    1    2    0    0  0.17095180842E+02  0.13774785511E+02  0.23124273683E+02  0.31886077797E+02  0.00000000000E+00 0.  1.
         11    1    3    3    0    0 -0.10105271923E+02 -0.23740756446E+02 -0.20038181246E+01  0.25879631462E+02  0.51100000000E-03 0. -1.
        -11    1    3    3    0    0 -0.27438847011E+00  0.11858155855E+02 -0.74421422125E+00  0.11884654155E+02  0.51100000000E-03 0.  1.
         12    1    3    3    0    0 -0.67155204495E+01 -0.18921849204E+01 -0.20376241337E+02  0.21537636586E+02  0.00000000000E+00 0. -1.
</event>
<event>
 7    1  0.6065977E-013  0.5930192E+02  0.7816164E-02  0.1266605E+00
        -11   -1    0    0    0    0  0.00000000000E+00  0.00000000000E+00  0.45593999997E+02  0.45594000000E+02  0.51100000000E-03 0.  1.
         11   -1    0    0    0    0 -0.00000000000E+00 -0.00000000000E+00 -0.45593999997E+02  0.45594000000E+02  0.51100000000E-03 0. -1.
    9900012    2    1    2    0    0 -0.35367985398E+01  0.29155958303E+02 -0.12415454466E+02  0.59301915918E+02  0.49999948735E+02 0.  0.
        -12    1    1    2    0    0  0.35367985398E+01 -0.29155958303E+02  0.12415454466E+02  0.31886084082E+02  0.00000000000E+00 0.  1.
         11    1    3    3    0    0 -0.10877245081E+02  0.17303621981E+02 -0.13229941695E+02  0.24346686668E+02  0.51100000000E-03 0. -1.
        -11    1    3    3    0    0  0.12319671934E+02  0.19533671903E+02  0.67317455275E+01  0.24055250002E+02  0.51100000000E-03 0.  1.
        -12    1    3    3    0    0 -0.49792253933E+01 -0.76813355812E+01 -0.59172582986E+01  0.10899979248E+02  0.00000000000E+00 0.  1.
</event>
<event>
 7    1  0.6065977E-013  0.5930194E+02  0.7816164E-02  0.1266605E+00
        -11   -1    0    0    0    0  0.00000000000E+00  0.00000000000E+00  0.45593999997E+02  0.45594000000E+02  0.51100000000E-03 0. -1.
         11   -1    0    0    0    0 -0.00000000000E+00 -0.00000000000E+00 -0.45593999997E+02  0.45594000000E+02  0.51100000000E-03 0.  1.
    9900012    2    1    2    0    0 -0.58238834867E+00  0.27594736265E+02  0.15965962676E+02  0.59301943331E+02  0.49999998729E+02 0.  0.
        -12    1    1    2    0    0  0.58238834867E+00 -0.27594736265E+02 -0.15965962676E+02  0.31886056669E+02  0.00000000000E+00 0.  1.
         11    1    3    3    0    0 -0.14616571982E+01  0.25045927890E+02  0.13209708281E+02  0.28353682985E+02  0.51100000000E-03 0. -1.
        -11    1    3    3    0    0 -0.14799239711E+02  0.17971304494E+01 -0.50508744661E+00  0.14916510566E+02  0.51100000000E-03 0.  1.
        -12    1    3    3    0    0  0.15678508561E+02  0.75167792535E+00  0.32613418418E+01  0.16031749780E+02  0.00000000000E+00 0.  1.
</event>
<event>
 7    1  0.6065977E-013  0.5930195E+02  0.7816164E-02  0.1266605E+00
        -11   -1    0    0    0    0  0.00000000000E+00  0.00000000000E+00  0.45593999997E+02  0.45594000000E+02  0.51100000000E-03 0. -1.
         11   -1    0    0    0    0 -0.00000000000E+00 -0.00000000000E+00 -0.45593999997E+02  0.45594000000E+02  0.51100000000E-03 0.  1.
    9900012    2    1    2    0    0 -0.82099163078E+01  0.69131136698E+01  0.30025424971E+02  0.59301952721E+02  0.50000015855E+02 0.  0.
        -12    1    1    2    0    0  0.82099163078E+01 -0.69131136698E+01 -0.30025424971E+02  0.31886047279E+02  0.00000000000E+00 0.  1.
         11    1    3    3    0    0  0.74839656540E+01 -0.17240652709E+00 -0.23985947869E+01  0.78608347606E+01  0.51100000000E-03 0. -1.
        -11    1    3    3    0    0 -0.20658416115E+02 -0.93960285121E+01  0.19389475938E+02  0.29849745151E+02  0.51100000000E-03 0.  1.
        -12    1    3    3    0    0  0.49645341536E+01  0.16481548709E+02  0.13034543820E+02  0.21591372810E+02  0.00000000000E+00 0.  1.
</event>
<event>
 7    1  0.6065977E-013  0.5930189E+02  0.7816164E-02  0.1266605E+00
        -11   -1    0    0    0    0  0.00000000000E+00  0.00000000000E+00  0.45593999997E+02  0.45594000000E+02  0.51100000000E-03 0. -1.
         11   -1    0    0    0    0 -0.00000000000E+00 -0.00000000000E+00 -0.45593999997E+02  0.45594000000E+02  0.51100000000E-03 0.  1.
    9900012    2    1    2    0    0 -0.18825625149E+02 -0.24891297671E+02  0.65378057771E+01  0.59301893835E+02  0.49999908460E+02 0.  0.
        -12    1    1    2    0    0  0.18825625149E+02  0.24891297671E+02 -0.65378057771E+01  0.31886106165E+02  0.00000000000E+00 0.  1.
         11    1    3    3    0    0 -0.11310449359E+02  0.70678563442E+01  0.16045144154E+02  0.20864503569E+02  0.51100000000E-03 0. -1.
        -11    1    3    3    0    0 -0.16896733002E+01 -0.30913127542E+02 -0.59314162536E+01  0.31522343652E+02  0.51100000000E-03 0.  1.
         12    1    3    3    0    0 -0.58255024897E+01 -0.10460264736E+01 -0.35759221233E+01  0.69150466139E+01  0.00000000000E+00 0. -1.
</event>
<event>
 7    1  0.6065977E-013  0.5930187E+02  0.7816164E-02  0.1266605E+00
        -11   -1    0    0    0    0  0.00000000000E+00  0.00000000000E+00  0.45593999997E+02  0.45594000000E+02  0.51100000000E-03 0. -1.
         11   -1    0    0    0    0 -0.00000000000E+00 -0.00000000000E+00 -0.45593999997E+02  0.45594000000E+02  0.51100000000E-03 0.  1.
    9900012    2    1    2    0    0  0.92118174325E+01  0.62972437770E+01  0.29869927235E+02  0.59301868020E+02  0.49999861380E+02 0.  0.
        -12    1    1    2    0    0 -0.92118174325E+01 -0.62972437770E+01 -0.29869927235E+02  0.31886131980E+02  0.00000000000E+00 0.  1.
         11    1    3    3    0    0  0.15076440661E+02 -0.10293797282E+02  0.22408797402E+02  0.28903555607E+02  0.51100000000E-03 0. -1.
        -11    1    3    3    0    0 -0.11011476835E+02  0.15991169139E+02 -0.20943015606E+01  0.19528343807E+02  0.51100000000E-03 0.  1.
        -12    1    3    3    0    0  0.51468536072E+01  0.59987191970E+00  0.95554313940E+01  0.10869968606E+02  0.00000000000E+00 0.  1.
</event>
<event>
 7    1  0.6065977E-013  0.5930193E+02  0.7816164E-02  0.1266605E+00
        -11   -1    0    0    0    0  0.00000000000E+00  0.00000000000E+00  0.45593999997E+02  0.45594000000E+02  0.51100000000E-03 0.  1.
         11   -1    0    0    0    0 -0.00000000000E+00 -0.00000000000E+00 -0.45593999997E+02  0.45594000000E+02  0.51100000000E-03 0. -1.
    9900012    2    1    2    0    0 -0.17494010766E+02  0.78628362926E+01 -0.25472665217E+02  0.59301932815E+02  0.49999979551E+02 0.  0.
        -12    1    1    2    0    0  0.17494010766E+02 -0.78628362926E+01  0.25472665217E+02  0.31886067185E+02  0.00000000000E+00 0.  1.
         11    1    3    3    0    0 -0.63786725440E+00 -0.78827448931E+01 -0.15726149717E+02  0.17602736346E+02  0.51100000000E-03 0. -1.
        -11    1    3    3    0    0 -0.31401532781E+01  0.23937570313E+02 -0.28940840871E+01  0.24315500366E+02  0.51100000000E-03 0.  1.
        -12    1    3    3    0    0 -0.13715990234E+02 -0.81919891269E+01 -0.68524314128E+01  0.17383696104E+02  0.00000000000E+00 0.  1.
</event>
<event>
 7    1  0.6065977E-013  0.5930195E+02  0.7816164E-02  0.1266605E+00
        -11   -1    0    0    0    0  0.00000000000E+00  0.00000000000E+00  0.45593999997E+02  0.45594000000E+02  0.51100000000E-03 0.  1.
         11   -1    0    0    0    0 -0.00000000000E+00 -0.00000000000E+00 -0.45593999997E+02  0.45594000000E+02  0.51100000000E-03 0. -1.
    9900012    2    1    2    0    0 -0.24662519516E+02  0.19794940402E+02  0.40792770924E+01  0.59301952331E+02  0.50000015143E+02 0.  0.
        -12    1    1    2    0    0  0.24662519516E+02 -0.19794940402E+02 -0.40792770924E+01  0.31886047669E+02  0.00000000000E+00 0.  1.
         11    1    3    3    0    0  0.66664752506E+01  0.22263501945E+02  0.20026952275E+01  0.23326298454E+02  0.51100000000E-03 0. -1.
        -11    1    3    3    0    0 -0.16516284337E+02  0.72973230917E+01  0.24970586548E+01  0.18228381025E+02  0.51100000000E-03 0.  1.
         12    1    3    3    0    0 -0.14812710429E+02 -0.97658846349E+01 -0.42047678985E+00  0.17747272852E+02  0.00000000000E+00 0. -1.
</event>
<event>
 7    1  0.6065977E-013  0.5930194E+02  0.7816164E-02  0.1266605E+00
        -11   -1    0    0    0    0  0.00000000000E+00  0.00000000000E+00  0.45593999997E+02  0.45594000000E+02  0.51100000000E-03 0. -1.
         11   -1    0    0    0    0 -0.00000000000E+00 -0.00000000000E+00 -0.45593999997E+02  0.45594000000E+02  0.51100000000E-03 0.  1.
    9900012    2    1    2    0    0  0.40787049509E+01  0.24097772883E+02  0.20478827124E+02  0.59301939529E+02  0.49999991796E+02 0.  0.
        -12    1    1    2    0    0 -0.40787049509E+01 -0.24097772883E+02 -0.20478827124E+02  0.31886060471E+02  0.00000000000E+00 0.  1.
         11    1    3    3    0    0 -0.20048900162E+02  0.10723373323E+02  0.40438893064E+01  0.23093336141E+02  0.51100000000E-03 0. -1.
        -11    1    3    3    0    0  0.16171700037E+02  0.11760351839E+02  0.25949050779E+01  0.20163414644E+02  0.51100000000E-03 0.  1.
         12    1    3    3    0    0  0.79559050756E+01  0.16140477212E+01  0.13840032740E+02  0.16045188745E+02  0.00000000000E+00 0. -1.
</event>
<event>
 7    1  0.6065977E-013  0.5930201E+02  0.7816164E-02  0.1266605E+00
        -11   -1    0    0    0    0  0.00000000000E+00  0.00000000000E+00  0.45593999997E+02  0.45594000000E+02  0.51100000000E-03 0.  1.
         11   -1    0    0    0    0 -0.00000000000E+00 -0.00000000000E+00 -0.45593999997E+02  0.45594000000E+02  0.51100000000E-03 0. -1.
    9900012    2    1    2    0    0 -0.17718025342E+02  0.69115992718E+01 -0.25593313176E+02  0.59302010822E+02  0.50000121817E+02 0.  0.
        -12    1    1    2    0    0  0.17718025342E+02 -0.69115992718E+01  0.25593313176E+02  0.31885989178E+02  0.00000000000E+00 0.  1.
         11    1    3    3    0    0  0.99644764186E+00  0.12338860057E+02 -0.13854295834E+02  0.18579071256E+02  0.51100000000E-03 0. -1.
        -11    1    3    3    0    0 -0.11282598342E+02 -0.15365131402E+02  0.51678003013E+01  0.19750707546E+02  0.51100000000E-03 0.  1.
        -12    1    3    3    0    0 -0.74318746424E+01  0.99378706174E+01 -0.16906817643E+02  0.20972232020E+02  0.00000000000E+00 0.  1.
</event>
<event>
 7    1  0.6065977E-013  0.5930197E+02  0.7816164E-02  0.1266605E+00
        -11   -1    0    0    0    0  0.00000000000E+00  0.00000000000E+00  0.45593999997E+02  0.45594000000E+02  0.51100000000E-03 0. -1.
         11   -1    0    0    0    0 -0.00000000000E+00 -0.00000000000E+00 -0.45593999997E+02  0.45594000000E+02  0.51100000000E-03 0.  1.
    9900012    2    1    2    0    0 -0.12971982647E+02 -0.15313308435E+02  0.24777996652E+02  0.59301970659E+02  0.50000048569E+02 0.  0.
        -12    1    1    2    0    0  0.12971982647E+02  0.15313308435E+02 -0.24777996652E+02  0.31886029341E+02  0.00000000000E+00 0.  1.
         11    1    3    3    0    0  0.15469234261E+02  0.36792428714E+01  0.10074360470E+02  0.18823569690E+02  0.51100000000E-03 0. -1.
        -11    1    3    3    0    0 -0.72998275753E+01 -0.28383011970E+01 -0.31443942252E+01  0.84398253310E+01  0.51100000000E-03 0.  1.
         12    1    3    3    0    0 -0.21141389333E+02 -0.16154250110E+02  0.17848030408E+02  0.32038575639E+02  0.00000000000E+00 0. -1.
</event>
<event>
 7    1  0.6065977E-013  0.5930186E+02  0.7816164E-02  0.1266605E+00
        -11   -1    0    0    0    0  0.00000000000E+00  0.00000000000E+00  0.45593999997E+02  0.45594000000E+02  0.51100000000E-03 0.  1.
         11   -1    0    0    0    0 -0.00000000000E+00 -0.00000000000E+00 -0.45593999997E+02  0.45594000000E+02  0.51100000000E-03 0. -1.
    9900012    2    1    2    0    0  0.25114163061E+02  0.33346766076E+01  0.19361935085E+02  0.59301862188E+02  0.49999850744E+02 0.  0.
        -12    1    1    2    0    0 -0.25114163061E+02 -0.33346766076E+01 -0.19361935085E+02  0.31886137812E+02  0.00000000000E+00 0.  1.
         11    1    3    3    0    0  0.42632771733E+01  0.25492536070E+01 -0.12575000179E+01  0.51240152972E+01  0.51100000000E-03 0. -1.
        -11    1    3    3    0    0  0.24213908410E+02 -0.17500172864E+02  0.19238525507E+02  0.35534353444E+02  0.51100000000E-03 0.  1.
        -12    1    3    3    0    0 -0.33630225225E+01  0.18285595864E+02  0.13809095964E+01  0.18643493447E+02  0.00000000000E+00 0.  1.
</event>
<event>
 7    1  0.6065977E-013  0.5930196E+02  0.7816164E-02  0.1266605E+00
        -11   -1    0    0    0    0  0.00000000000E+00  0.00000000000E+00  0.45593999997E+02  0.45594000000E+02  0.51100000000E-03 0. -1.
         11   -1    0    0    0    0 -0.00000000000E+00 -0.00000000000E+00 -0.45593999997E+02  0.45594000000E+02  0.51100000000E-03 0.  1.
    9900012    2    1    2    0    0 -0.18459279207E+02 -0.86723388002E+00  0.25985045834E+02  0.59301957749E+02  0.50000025024E+02 0.  0.
        -12    1    1    2    0    0  0.18459279207E+02  0.86723388002E+00 -0.25985045834E+02  0.31886042251E+02  0.00000000000E+00 0.  1.
         11    1    3    3    0    0  0.19783340814E+01  0.61018410209E+01  0.27785439849E+02  0.28516257423E+02  0.51100000000E-03 0. -1.
        -11    1    3    3    0    0 -0.54224275808E+01  0.74293135841E+01 -0.36610837570E+01  0.98995432085E+01  0.51100000000E-03 0.  1.
         12    1    3    3    0    0 -0.15015185708E+02 -0.14398388485E+02  0.18606897424E+01  0.20886157117E+02  0.00000000000E+00 0. -1.
</event>
<event>
 7    1  0.6065977E-013  0.5930198E+02  0.7816164E-02  0.1266605E+00
        -11   -1    0    0    0    0  0.00000000000E+00  0.00000000000E+00  0.45593999997E+02  0.45594000000E+02  0.51100000000E-03 0. -1.
         11   -1    0    0    0    0 -0.00000000000E+00 -0.00000000000E+00 -0.45593999997E+02  0.45594000000E+02  0.51100000000E-03 0.  1.
    9900012    2    1    2    0    0  0.16484210341E+02 -0.16454146179E+02  0.21777290285E+02  0.59301976585E+02  0.50000059377E+02 0.  0.
        -12    1    1    2    0    0 -0.16484210341E+02  0.16454146179E+02 -0.21777290285E+02  0.31886023415E+02  0.00000000000E+00 0.  1.
         11    1    3    3    0    0  0.21132069353E+02 -0.13392468007E+02  0.11248225785E+02  0.27430733458E+02  0.51100000000E-03 0. -1.
        -11    1    3    3    0    0 -0.73071444305E+01 -0.19573461228E+01  0.20311159089E+02  0.21674149288E+02  0.51100000000E-03 0.  1.
        -12    1    3    3    0    0  0.26592854186E+01 -0.11043320492E+01 -0.97820945890E+01  0.10197093839E+02  0.00000000000E+00 0.  1.
</event>
<event>
 7    1  0.6065977E-013  0.5930195E+02  0.7816164E-02  0.1266605E+00
        -11   -1    0    0    0    0  0.00000000000E+00  0.00000000000E+00  0.45593999997E+02  0.45594000000E+02  0.51100000000E-03 0.  1.
         11   -1    0    0    0    0 -0.00000000000E+00 -0.00000000000E+00 -0.45593999997E+02  0.45594000000E+02  0.51100000000E-03 0. -1.
    9900012    2    1    2    0    0 -0.17130377375E+02  0.25755806138E+02  0.77400922887E+01  0.59301946505E+02  0.50000004518E+02 0.  0.
        -12    1    1    2    0    0  0.17130377375E+02 -0.25755806138E+02 -0.77400922887E+01  0.31886053495E+02  0.00000000000E+00 0.  1.
         11    1    3    3    0    0  0.48767118188E+01 -0.56995121614E+00  0.17220717433E+02  0.17906989466E+02  0.51100000000E-03 0. -1.
        -11    1    3    3    0    0 -0.14364355185E+02  0.54423020408E+01 -0.11319542452E+02  0.19081021801E+02  0.51100000000E-03 0.  1.
         12    1    3    3    0    0 -0.76427340089E+01  0.20883455313E+02  0.18389173072E+01  0.22313935238E+02  0.00000000000E+00 0. -1.
</event>
<event>
 7    1  0.6065977E-013  0.5930194E+02  0.7816164E-02  0.1266605E+00
        -11   -1    0    0    0    0  0.00000000000E+00  0.00000000000E+00  0.45593999997E+02  0.45594000000E+02  0.51100000000E-03 0. -1.
         11   -1    0    0    0    0 -0.00000000000E+00 -0.00000000000E+00 -0.45593999997E+02  0.45594000000E+02  0.51100000000E-03 0.  1.
    9900012    2    1    2    0    0  0.21834449450E+01  0.31463132604E+02  0.46930337907E+01  0.59301941742E+02  0.49999995831E+02 0.  0.
        -12    1    1    2    0    0 -0.21834449450E+01 -0.31463132604E+02 -0.46930337907E+01  0.31886058258E+02  0.00000000000E+00 0.  1.
         11    1    3    3    0    0 -0.11154472746E+02  0.66248193252E+01  0.79728622834E+01  0.15227508876E+02  0.51100000000E-03 0. -1.
        -11    1    3    3    0    0  0.20250187159E+02  0.28826634675E+02 -0.58061746887E+01  0.35703733858E+02  0.51100000000E-03 0.  1.
        -12    1    3    3    0    0 -0.69122694689E+01 -0.39883213962E+01  0.25263461961E+01  0.83706990074E+01  0.00000000000E+00 0.  1.
</event>
<event>
 7    1  0.6065977E-013  0.5930193E+02  0.7816164E-02  0.1266605E+00
        -11   -1    0    0    0    0  0.00000000000E+00  0.00000000000E+00  0.45593999997E+02  0.45594000000E+02  0.51100000000E-03 0.  1.
         11   -1    0    0    0    0 -0.00000000000E+00 -0.00000000000E+00 -0.45593999997E+02  0.45594000000E+02  0.51100000000E-03 0. -1.
    9900012    2    1    2    0    0 -0.43698389373E+01 -0.18272497626E+02 -0.25763183190E+02  0.59301932982E+02  0.49999979855E+02 0.  0.
        -12    1    1    2    0    0  0.43698389373E+01  0.18272497626E+02  0.25763183190E+02  0.31886067018E+02  0.00000000000E+00 0.  1.
         11    1    3    3    0    0 -0.19003712322E+02 -0.10357033678E+02 -0.31597757841E+02  0.38299184449E+02  0.51100000000E-03 0. -1.
        -11    1    3    3    0    0  0.12674547764E+02 -0.59356219614E+01  0.91128630106E+01  0.16700899425E+02  0.51100000000E-03 0.  1.
         12    1    3    3    0    0  0.19593256203E+01 -0.19798419867E+01 -0.32782883590E+01  0.43018491075E+01  0.00000000000E+00 0. -1.
</event>
<event>
 7    1  0.6065977E-013  0.5930200E+02  0.7816164E-02  0.1266605E+00
        -11   -1    0    0    0    0  0.00000000000E+00  0.00000000000E+00  0.45593999997E+02  0.45594000000E+02  0.51100000000E-03 0.  1.
         11   -1    0    0    0    0 -0.00000000000E+00 -0.00000000000E+00 -0.45593999997E+02  0.45594000000E+02  0.51100000000E-03 0. -1.
    9900012    2    1    2    0    0 -0.11338511306E+02  0.71164140462E+00 -0.29793430369E+02  0.59302003618E+02  0.50000108678E+02 0.  0.
        -12    1    1    2    0    0  0.11338511306E+02 -0.71164140462E+00  0.29793430369E+02  0.31885996382E+02  0.00000000000E+00 0.  1.
         11    1    3    3    0    0  0.13436587971E+02 -0.37280907819E+01 -0.15654094652E+02  0.20964046290E+02  0.51100000000E-03 0. -1.
        -11    1    3    3    0    0 -0.72707225170E+01  0.12647899020E+02 -0.11993556244E+02  0.18885924579E+02  0.51100000000E-03 0.  1.
         12    1    3    3    0    0 -0.17504376761E+02 -0.82081668336E+01 -0.21457794725E+01  0.19452032750E+02  0.00000000000E+00 0. -1.
</event>
<event>
 7    1  0.6065977E-013  0.5930196E+02  0.7816164E-02  0.1266605E+00
        -11   -1    0    0    0    0  0.00000000000E+00  0.00000000000E+00  0.45593999997E+02  0.45594000000E+02  0.51100000000E-03 0. -1.
         11   -1    0    0    0    0 -0.00000000000E+00 -0.00000000000E+00 -0.45593999997E+02  0.45594000000E+02  0.51100000000E-03 0.  1.
    9900012    2    1    2    0    0  0.13673891093E+02  0.25280751894E+02  0.13806815068E+02  0.59301955148E+02  0.50000020281E+02 0.  0.
        -12    1    1    2    0    0 -0.13673891093E+02 -0.25280751894E+02 -0.13806815068E+02  0.31886044852E+02  0.00000000000E+00 0.  1.
         11    1    3    3    0    0 -0.12844979260E+02  0.27912225190E+01  0.61606366408E+01  0.14516812991E+02  0.51100000000E-03 0. -1.
        -11    1    3    3    0    0  0.13342529709E+02  0.21857622255E+02 -0.54665769743E+01  0.26185152544E+02  0.51100000000E-03 0.  1.
         12    1    3    3    0    0  0.13176340644E+02  0.63190712006E+00  0.13112755401E+02  0.18599989613E+02  0.00000000000E+00 0. -1.
</event>
<event>
 7    1  0.6065977E-013  0.5930194E+02  0.7816164E-02  0.1266605E+00
        -11   -1    0    0    0    0  0.00000000000E+00  0.00000000000E+00  0.45593999997E+02  0.45594000000E+02  0.51100000000E-03 0.  1.
         11   -1    0    0    0    0 -0.00000000000E+00 -0.00000000000E+00 -0.45593999997E+02  0.45594000000E+02  0.51100000000E-03 0. -1.
    9900012    2    1    2    0    0  0.16522530787E+02 -0.22969078732E+02 -0.14701976205E+02  0.59301941828E+02  0.49999995988E+02 0.  0.
        -12    1    1    2    0    0 -0.16522530787E+02  0.22969078732E+02  0.14701976205E+02  0.31886058172E+02  0.00000000000E+00 0.  1.
         11    1    3    3    0    0 -0.46396073345E+01 -0.75248958218E+01 -0.83199973597E+01  0.12139702207E+02  0.51100000000E-03 0. -1.
        -11    1    3    3    0    0  0.28012752571E+02 -0.60549328700E+01  0.69347334134E+01  0.29486726614E+02  0.51100000000E-03 0.  1.
        -12    1    3    3    0    0 -0.68506144490E+01 -0.93892500404E+01 -0.13316712259E+02  0.17675513006E+02  0.00000000000E+00 0.  1.
</event>
<event>
 7    1  0.6065977E-013  0.5930186E+02  0.7816164E-02  0.1266605E+00
        -11   -1    0    0    0    0  0.00000000000E+00  0.00000000000E+00  0.45593999997E+02  0.45594000000E+02  0.51100000000E-03 0. -1.
         11   -1    0    0    0    0 -0.00000000000E+00 -0.00000000000E+00 -0.45593999997E+02  0.45594000000E+02  0.51100000000E-03 0.  1.
    9900012    2    1    2    0    0  0.21376091874E+01 -0.30732444537E+02  0.82263985250E+01  0.59301856412E+02  0.49999840209E+02 0.  0.
        -12    1    1    2    0    0 -0.21376091874E+01  0.30732444537E+02 -0.82263985250E+01  0.31886143588E+02  0.00000000000E+00 0.  1.
         11    1    3    3    0    0 -0.11838451179E+02 -0.23104953851E+02  0.13817929015E+02  0.29409572954E+02  0.51100000000E-03 0. -1.
        -11    1    3    3    0    0  0.79482191944E+01 -0.16591176369E+02 -0.19821630441E+01  0.18503250857E+02  0.51100000000E-03 0.  1.
         12    1    3    3    0    0  0.60278411720E+01  0.89636856838E+01 -0.36093674463E+01  0.11389032601E+02  0.00000000000E+00 0. -1.
</event>
<event>
 7    1  0.6065977E-013  0.5930194E+02  0.7816164E-02  0.1266605E+00
        -11   -1    0    0    0    0  0.00000000000E+00  0.00000000000E+00  0.45593999997E+02  0.45594000000E+02  0.51100000000E-03 0.  1.
         11   -1    0    0    0    0 -0.00000000000E+00 -0.00000000000E+00 -0.45593999997E+02  0.45594000000E+02  0.51100000000E-03 0. -1.
    9900012    2    1    2    0    0  0.30079411939E+02  0.10289295935E+02 -0.24657405084E+01  0.59301944902E+02  0.50000001595E+02 0.  0.
        -12    1    1    2    0    0 -0.30079411939E+02 -0.10289295935E+02  0.24657405084E+01  0.31886055098E+02  0.00000000000E+00 0.  1.
         11    1    3    3    0    0  0.76935207437E+01 -0.88052479630E+01 -0.17891456441E+02  0.21373508532E+02  0.51100000000E-03 0. -1.
        -11    1    3    3    0    0  0.28585622377E+01  0.95835379539E+01  0.12505526601E+02  0.16012612954E+02  0.51100000000E-03 0.  1.
         12    1    3    3    0    0  0.19527328958E+02  0.95110059437E+01  0.29201893308E+01  0.21915823416E+02  0.00000000000E+00 0. -1.
</event>
<event>
 7    1  0.6065977E-013  0.5930194E+02  0.7816164E-02  0.1266605E+00
        -11   -1    0    0    0    0  0.00000000000E+00  0.00000000000E+00  0.45593999997E+02  0.45594000000E+02  0.51100000000E-03 0. -1.
         11   -1    0    0    0    0 -0.00000000000E+00 -0.00000000000E+00 -0.45593999997E+02  0.45594000000E+02  0.51100000000E-03 0.  1.
    9900012    2    1    2    0    0  0.52543740796E+01 -0.14542221822E+02  0.27886125039E+02  0.59301942982E+02  0.49999998093E+02 0.  0.
        -12    1    1    2    0    0 -0.52543740796E+01  0.14542221822E+02 -0.27886125039E+02  0.31886057018E+02  0.00000000000E+00 0.  1.
         11    1    3    3    0    0 -0.62348713228E+01  0.45280024482E+01 -0.60561266600E+01  0.98006681898E+01  0.51100000000E-03 0.  1.
        -11    1    3    3    0    0  0.18902294230E+02 -0.88728937025E+01  0.29483460926E+02  0.36128927998E+02  0.51100000000E-03 0. -1.
         12    1    3    3    0    0 -0.74130488279E+01 -0.10197330568E+02  0.44587907727E+01  0.13372346794E+02  0.00000000000E+00 0. -1.
</event>
<event>
 7    1  0.6065977E-013  0.5930195E+02  0.7816164E-02  0.1266605E+00
        -11   -1    0    0    0    0  0.00000000000E+00  0.00000000000E+00  0.45593999997E+02  0.45594000000E+02  0.51100000000E-03 0. -1.
         11   -1    0    0    0    0 -0.00000000000E+00 -0.00000000000E+00 -0.45593999997E+02  0.45594000000E+02  0.51100000000E-03 0.  1.
    9900012    2    1    2    0    0  0.31169450897E+02 -0.44325476078E+01  0.50535096381E+01  0.59301951215E+02  0.50000013107E+02 0.  0.
        -12    1    1    2    0    0 -0.31169450897E+02  0.44325476078E+01 -0.50535096381E+01  0.31886048785E+02  0.00000000000E+00 0.  1.
         11    1    3    3    0    0  0.27532179370E+02  0.20186676042E+01  0.12636039563E+02  0.30360589847E+02  0.51100000000E-03 0. -1.
        -11    1    3    3    0    0 -0.41041397123E+01  0.44039091644E+01 -0.13173498414E+02  0.14483764685E+02  0.51100000000E-03 0.  1.
        -12    1    3    3    0    0  0.77414112387E+01 -0.10855124376E+02  0.55909684896E+01  0.14457596683E+02  0.00000000000E+00 0.  1.
</event>
<event>
 7    1  0.6065977E-013  0.5930195E+02  0.7816164E-02  0.1266605E+00
        -11   -1    0    0    0    0  0.00000000000E+00  0.00000000000E+00  0.45593999997E+02  0.45594000000E+02  0.51100000000E-03 0.  1.
         11   -1    0    0    0    0 -0.00000000000E+00 -0.00000000000E+00 -0.45593999997E+02  0.45594000000E+02  0.51100000000E-03 0. -1.
    9900012    2    1    2    0    0  0.14566278851E+02  0.19881530536E+01 -0.28294717346E+02  0.59301948789E+02  0.50000008684E+02 0.  0.
        -12    1    1    2    0    0 -0.14566278851E+02 -0.19881530536E+01  0.28294717346E+02  0.31886051211E+02  0.00000000000E+00 0.  1.
         11    1    3    3    0    0  0.15773520559E+02 -0.93181437394E+01 -0.27883809048E+02  0.33363731220E+02  0.51100000000E-03 0. -1.
        -11    1    3    3    0    0 -0.55871414270E+01  0.11706349787E+02 -0.93404369117E+01  0.15984321588E+02  0.51100000000E-03 0.  1.
        -12    1    3    3    0    0  0.43798997183E+01 -0.40005299433E+00  0.89295286142E+01  0.99538959816E+01  0.00000000000E+00 0.  1.
</event>
<event>
 7    1  0.6065977E-013  0.5930194E+02  0.7816164E-02  0.1266605E+00
        -11   -1    0    0    0    0  0.00000000000E+00  0.00000000000E+00  0.45593999997E+02  0.45594000000E+02  0.51100000000E-03 0. -1.
         11   -1    0    0    0    0 -0.00000000000E+00 -0.00000000000E+00 -0.45593999997E+02  0.45594000000E+02  0.51100000000E-03 0.  1.
    9900012    2    1    2    0    0  0.10840852138E+02 -0.24367391331E+02  0.17476466753E+02  0.59301941518E+02  0.49999995423E+02 0.  0.
        -12    1    1    2    0    0 -0.10840852138E+02  0.24367391331E+02 -0.17476466753E+02  0.31886058482E+02  0.00000000000E+00 0.  1.
         11    1    3    3    0    0 -0.48682765306E+01  0.38401703988E+01  0.25050689982E+02  0.25806667625E+02  0.51100000000E-03 0. -1.
        -11    1    3    3    0    0  0.48058325355E+01 -0.12235860526E+02 -0.46112553906E+01  0.13931115738E+02  0.51100000000E-03 0.  1.
         12    1    3    3    0    0  0.10903296133E+02 -0.15971701204E+02 -0.29629678379E+01  0.19564158155E+02  0.00000000000E+00 0. -1.
</event>
<event>
 7    1  0.6065977E-013  0.5930194E+02  0.7816164E-02  0.1266605E+00
        -11   -1    0    0    0    0  0.00000000000E+00  0.00000000000E+00  0.45593999997E+02  0.45594000000E+02  0.51100000000E-03 0. -1.
         11   -1    0    0    0    0 -0.00000000000E+00 -0.00000000000E+00 -0.45593999997E+02  0.45594000000E+02  0.51100000000E-03 0.  1.
    9900012    2    1    2    0    0  0.41926385854E+01  0.29688363997E+01  0.31469484712E+02  0.59301942296E+02  0.49999996842E+02 0.  0.
        -12    1    1    2    0    0 -0.41926385854E+01 -0.29688363997E+01 -0.31469484712E+02  0.31886057704E+02  0.00000000000E+00 0.  1.
         11    1    3    3    0    0  0.29714586297E+01  0.88163570764E+01  0.10242977010E+02  0.13837496044E+02  0.51100000000E-03 0. -1.
        -11    1    3    3    0    0  0.72823865947E+00 -0.17594713042E+02 -0.36186174143E+01  0.17977726520E+02  0.51100000000E-03 0.  1.
        -12    1    3    3    0    0  0.49294129621E+00  0.11747192365E+02  0.24845125116E+02  0.27486719732E+02  0.00000000000E+00 0.  1.
</event>
<event>
 7    1  0.6065977E-013  0.5930195E+02  0.7816164E-02  0.1266605E+00
        -11   -1    0    0    0    0  0.00000000000E+00  0.00000000000E+00  0.45593999997E+02  0.45594000000E+02  0.51100000000E-03 0. -1.
         11   -1    0    0    0    0 -0.00000000000E+00 -0.00000000000E+00 -0.45593999997E+02  0.45594000000E+02  0.51100000000E-03 0.  1.
    9900012    2    1    2    0    0 -0.12255375070E+02  0.28839232916E+02  0.59012458566E+01  0.59301948568E+02  0.50000008280E+02 0.  0.
        -12    1    1    2    0    0  0.12255375070E+02 -0.28839232916E+02 -0.59012458566E+01  0.31886051432E+02  0.00000000000E+00 0.  1.
         11    1    3    3    0    0  0.16691144755E+02  0.12255224351E+02 -0.61468131085E+01  0.21600188628E+02  0.51100000000E-03 0. -1.
        -11    1    3    3    0    0 -0.27610633492E+02  0.11087305431E+02  0.11894377127E+02  0.32042965391E+02  0.51100000000E-03 0.  1.
        -12    1    3    3    0    0 -0.13358863336E+01  0.54967031335E+01  0.15368183781E+00  0.56587945484E+01  0.00000000000E+00 0.  1.
</event>
<event>
 7    1  0.6065977E-013  0.5930194E+02  0.7816164E-02  0.1266605E+00
        -11   -1    0    0    0    0  0.00000000000E+00  0.00000000000E+00  0.45593999997E+02  0.45594000000E+02  0.51100000000E-03 0.  1.
         11   -1    0    0    0    0 -0.00000000000E+00 -0.00000000000E+00 -0.45593999997E+02  0.45594000000E+02  0.51100000000E-03 0. -1.
    9900012    2    1    2    0    0  0.28270632648E+02  0.14174244341E+02 -0.40722453666E+01  0.59301936347E+02  0.49999985992E+02 0.  0.
        -12    1    1    2    0    0 -0.28270632648E+02 -0.14174244341E+02  0.40722453666E+01  0.31886063653E+02  0.00000000000E+00 0.  1.
         11    1    3    3    0    0  0.77794771232E+01  0.25277125805E+02  0.26493750864E+01  0.26579551198E+02  0.51100000000E-03 0. -1.
        -11    1    3    3    0    0  0.13274324597E+02 -0.74911220899E+01 -0.14841479974E+02  0.21274259840E+02  0.51100000000E-03 0.  1.
        -12    1    3    3    0    0  0.72168309282E+01 -0.36117593748E+01  0.81198595214E+01  0.11448125308E+02  0.00000000000E+00 0.  1.
</event>
<event>
 7    1  0.6065977E-013  0.5930196E+02  0.7816164E-02  0.1266605E+00
        -11   -1    0    0    0    0  0.00000000000E+00  0.00000000000E+00  0.45593999997E+02  0.45594000000E+02  0.51100000000E-03 0.  1.
         11   -1    0    0    0    0 -0.00000000000E+00 -0.00000000000E+00 -0.45593999997E+02  0.45594000000E+02  0.51100000000E-03 0. -1.
    9900012    2    1    2    0    0 -0.19278020612E+02  0.34530478983E+01 -0.25162551055E+02  0.59301959259E+02  0.50000027778E+02 0.  0.
        -12    1    1    2    0    0  0.19278020612E+02 -0.34530478983E+01  0.25162551055E+02  0.31886040741E+02  0.00000000000E+00 0.  1.
         11    1    3    3    0    0 -0.30063861510E+02 -0.42471016750E+01 -0.15328009146E+02  0.34012078827E+02  0.51100000000E-03 0. -1.
        -11    1    3    3    0    0  0.10745975983E+02 -0.26643948628E+01 -0.10172737811E+00  0.11071826793E+02  0.51100000000E-03 0.  1.
         12    1    3    3    0    0  0.39864914756E-01  0.10364544436E+02 -0.97328145314E+01  0.14218053639E+02  0.00000000000E+00 0. -1.
</event>
<event>
 7    1  0.6065977E-013  0.5930197E+02  0.7816164E-02  0.1266605E+00
        -11   -1    0    0    0    0  0.00000000000E+00  0.00000000000E+00  0.45593999997E+02  0.45594000000E+02  0.51100000000E-03 0.  1.
         11   -1    0    0    0    0 -0.00000000000E+00 -0.00000000000E+00 -0.45593999997E+02  0.45594000000E+02  0.51100000000E-03 0. -1.
    9900012    2    1    2    0    0 -0.73587062951E+01 -0.30882183364E+02 -0.29764201318E+01  0.59301970387E+02  0.50000048073E+02 0.  0.
        -12    1    1    2    0    0  0.73587062951E+01  0.30882183364E+02  0.29764201318E+01  0.31886029613E+02  0.00000000000E+00 0.  1.
         11    1    3    3    0    0 -0.14253887863E+02 -0.31082830771E+01 -0.85667642329E+01  0.16918161620E+02  0.51100000000E-03 0. -1.
        -11    1    3    3    0    0  0.16017656968E+02 -0.73022441751E+01  0.89049385962E+01  0.19727798570E+02  0.51100000000E-03 0.  1.
         12    1    3    3    0    0 -0.91224754000E+01 -0.20471656112E+02 -0.33145944952E+01  0.22656010197E+02  0.00000000000E+00 0. -1.
</event>
<event>
 7    1  0.6065977E-013  0.5930196E+02  0.7816164E-02  0.1266605E+00
        -11   -1    0    0    0    0  0.00000000000E+00  0.00000000000E+00  0.45593999997E+02  0.45594000000E+02  0.51100000000E-03 0.  1.
         11   -1    0    0    0    0 -0.00000000000E+00 -0.00000000000E+00 -0.45593999997E+02  0.45594000000E+02  0.51100000000E-03 0. -1.
    9900012    2    1    2    0    0  0.46801791061E+01 -0.13968860453E+02 -0.28278730163E+02  0.59301957310E+02  0.50000024223E+02 0.  0.
        -12    1    1    2    0    0 -0.46801791061E+01  0.13968860453E+02  0.28278730163E+02  0.31886042690E+02  0.00000000000E+00 0.  1.
         11    1    3    3    0    0  0.15605313123E+02  0.28108473054E+01 -0.12771029336E+02  0.20359907928E+02  0.51100000000E-03 0. -1.
        -11    1    3    3    0    0 -0.18043112578E+02 -0.47877221464E+01 -0.16563896334E+02  0.24956739709E+02  0.51100000000E-03 0.  1.
         12    1    3    3    0    0  0.71179785609E+01 -0.11991985612E+02  0.10561955073E+01  0.13985309673E+02  0.00000000000E+00 0. -1.
</event>
<event>
 7    1  0.6065977E-013  0.5930196E+02  0.7816164E-02  0.1266605E+00
        -11   -1    0    0    0    0  0.00000000000E+00  0.00000000000E+00  0.45593999997E+02  0.45594000000E+02  0.51100000000E-03 0.  1.
         11   -1    0    0    0    0 -0.00000000000E+00 -0.00000000000E+00 -0.45593999997E+02  0.45594000000E+02  0.51100000000E-03 0. -1.
    9900012    2    1    2    0    0 -0.25953678266E+02 -0.10355902572E+01 -0.18494700305E+02  0.59301955998E+02  0.50000021830E+02 0.  0.
        -12    1    1    2    0    0  0.25953678266E+02  0.10355902572E+01  0.18494700305E+02  0.31886044002E+02  0.00000000000E+00 0.  1.
         11    1    3    3    0    0 -0.39124888544E+02  0.35629739780E+01 -0.12760669040E+02  0.41307219245E+02  0.51100000000E-03 0. -1.
        -11    1    3    3    0    0  0.12673044428E+02 -0.47688850708E+01 -0.79602383547E+01  0.15707123060E+02  0.51100000000E-03 0.  1.
         12    1    3    3    0    0  0.49816584991E+00  0.17032083565E+00  0.22262070896E+01  0.22876136927E+01  0.00000000000E+00 0. -1.
</event>
<event>
 7    1  0.6065977E-013  0.5930194E+02  0.7816164E-02  0.1266605E+00
        -11   -1    0    0    0    0  0.00000000000E+00  0.00000000000E+00  0.45593999997E+02  0.45594000000E+02  0.51100000000E-03 0.  1.
         11   -1    0    0    0    0 -0.00000000000E+00 -0.00000000000E+00 -0.45593999997E+02  0.45594000000E+02  0.51100000000E-03 0. -1.
    9900012    2    1    2    0    0  0.21627143661E+02  0.97649705400E+01 -0.21298652893E+02  0.59301943366E+02  0.49999998793E+02 0.  0.
        -12    1    1    2    0    0 -0.21627143661E+02 -0.97649705400E+01  0.21298652893E+02  0.31886056634E+02  0.00000000000E+00 0.  1.
         11    1    3    3    0    0  0.80184641790E+01 -0.18496148356E+01 -0.30004400568E+02  0.31112391366E+02  0.51100000000E-03 0. -1.
        -11    1    3    3    0    0  0.18833648756E+02  0.10005781804E+02  0.73420870693E+01  0.22555004716E+02  0.51100000000E-03 0.  1.
        -12    1    3    3    0    0 -0.52249692738E+01  0.16088035721E+01  0.13636606051E+01  0.56345472837E+01  0.00000000000E+00 0.  1.
</event>
<event>
 7    1  0.6065977E-013  0.5930195E+02  0.7816164E-02  0.1266605E+00
        -11   -1    0    0    0    0  0.00000000000E+00  0.00000000000E+00  0.45593999997E+02  0.45594000000E+02  0.51100000000E-03 0. -1.
         11   -1    0    0    0    0 -0.00000000000E+00 -0.00000000000E+00 -0.45593999997E+02  0.45594000000E+02  0.51100000000E-03 0.  1.
    9900012    2    1    2    0    0 -0.26993955239E+02  0.13255572439E+02  0.10598872003E+02  0.59301954339E+02  0.50000018806E+02 0.  0.
        -12    1    1    2    0    0  0.26993955239E+02 -0.13255572439E+02 -0.10598872003E+02  0.31886045661E+02  0.00000000000E+00 0.  1.
         11    1    3    3    0    0 -0.12320755693E+02  0.75903532814E+01  0.27934510851E+02  0.31460314374E+02  0.51100000000E-03 0. -1.
        -11    1    3    3    0    0 -0.16206167274E+02  0.10043367637E+01 -0.15908786207E+02  0.22731872534E+02  0.51100000000E-03 0.  1.
         12    1    3    3    0    0  0.15329677281E+01  0.46608823940E+01 -0.14268526407E+01  0.51097674315E+01  0.00000000000E+00 0. -1.
</event>
<event>
 7    1  0.6065977E-013  0.5930193E+02  0.7816164E-02  0.1266605E+00
        -11   -1    0    0    0    0  0.00000000000E+00  0.00000000000E+00  0.45593999997E+02  0.45594000000E+02  0.51100000000E-03 0. -1.
         11   -1    0    0    0    0 -0.00000000000E+00 -0.00000000000E+00 -0.45593999997E+02  0.45594000000E+02  0.51100000000E-03 0.  1.
    9900012    2    1    2    0    0  0.22874034102E+02  0.18814708168E+02  0.11811306865E+02  0.59301927031E+02  0.49999969002E+02 0.  0.
        -12    1    1    2    0    0 -0.22874034102E+02 -0.18814708168E+02 -0.11811306865E+02  0.31886072969E+02  0.00000000000E+00 0.  1.
         11    1    3    3    0    0  0.10580233733E+01  0.41983644580E+01  0.18354392376E+02  0.18858138755E+02  0.51100000000E-03 0. -1.
        -11    1    3    3    0    0  0.19074759573E+02  0.18402924502E+01 -0.15461975645E+02  0.24623278014E+02  0.51100000000E-03 0.  1.
        -12    1    3    3    0    0  0.27412511557E+01  0.12776051260E+02  0.89188901344E+01  0.15820510261E+02  0.00000000000E+00 0.  1.
</event>
<event>
 7    1  0.6065977E-013  0.5930191E+02  0.7816164E-02  0.1266605E+00
        -11   -1    0    0    0    0  0.00000000000E+00  0.00000000000E+00  0.45593999997E+02  0.45594000000E+02  0.51100000000E-03 0.  1.
         11   -1    0    0    0    0 -0.00000000000E+00 -0.00000000000E+00 -0.45593999997E+02  0.45594000000E+02  0.51100000000E-03 0. -1.
    9900012    2    1    2    0    0 -0.23019490245E+02 -0.11524406299E+02 -0.18815259557E+02  0.59301907987E+02  0.49999934270E+02 0.  0.
        -12    1    1    2    0    0  0.23019490245E+02  0.11524406299E+02  0.18815259557E+02  0.31886092013E+02  0.00000000000E+00 0.  1.
         11    1    3    3    0    0 -0.15016816669E+02  0.11979974795E+02  0.13779466711E+00  0.19210506671E+02  0.51100000000E-03 0. -1.
        -11    1    3    3    0    0 -0.14877355294E+02 -0.20240382050E+02 -0.20381483538E+02  0.32348317384E+02  0.51100000000E-03 0.  1.
        -12    1    3    3    0    0  0.68746817177E+01 -0.32639990430E+01  0.14284293143E+01  0.77430839321E+01  0.00000000000E+00 0.  1.
</event>
<event>
 7    1  0.6065977E-013  0.5930195E+02  0.7816164E-02  0.1266605E+00
        -11   -1    0    0    0    0  0.00000000000E+00  0.00000000000E+00  0.45593999997E+02  0.45594000000E+02  0.51100000000E-03 0.  1.
         11   -1    0    0    0    0 -0.00000000000E+00 -0.00000000000E+00 -0.45593999997E+02  0.45594000000E+02  0.51100000000E-03 0. -1.
    9900012    2    1    2    0    0  0.75992091028E+01  0.86272337364E+01 -0.29741266800E+02  0.59301951455E+02  0.50000013546E+02 0.  0.
        -12    1    1    2    0    0 -0.75992091028E+01 -0.86272337364E+01  0.29741266800E+02  0.31886048545E+02  0.00000000000E+00 0.  1.
         11    1    3    3    0    0  0.64237507377E+01  0.29870908388E+01 -0.20992140848E+02  0.22155298753E+02  0.51100000000E-03 0. -1.
        -11    1    3    3    0    0 -0.90490026474E+01  0.86435342768E+01  0.97053934736E+01  0.15836344163E+02  0.51100000000E-03 0.  1.
        -12    1    3    3    0    0  0.10224461013E+02 -0.30033913792E+01 -0.18454519426E+02  0.21310308539E+02  0.00000000000E+00 0.  1.
</event>
<event>
 7    1  0.6065977E-013  0.5930193E+02  0.7816164E-02  0.1266605E+00
        -11   -1    0    0    0    0  0.00000000000E+00  0.00000000000E+00  0.45593999997E+02  0.45594000000E+02  0.51100000000E-03 0. -1.
         11   -1    0    0    0    0 -0.00000000000E+00 -0.00000000000E+00 -0.45593999997E+02  0.45594000000E+02  0.51100000000E-03 0.  1.
    9900012    2    1    2    0    0  0.18955091692E+01  0.20168278806E+02  0.24624561174E+02  0.59301930345E+02  0.49999975047E+02 0.  0.
        -12    1    1    2    0    0 -0.18955091692E+01 -0.20168278806E+02 -0.24624561174E+02  0.31886069655E+02  0.00000000000E+00 0.  1.
         11    1    3    3    0    0  0.12612808454E+01 -0.60838328698E+01  0.17172166301E+02  0.18261630472E+02  0.51100000000E-03 0. -1.
        -11    1    3    3    0    0  0.80759017849E+00  0.27844460234E+02 -0.51570621665E+01  0.28329515669E+02  0.51100000000E-03 0.  1.
        -12    1    3    3    0    0 -0.17336185466E+00 -0.15923485576E+01  0.12609457039E+02  0.12710784204E+02  0.00000000000E+00 0.  1.
</event>
<event>
 7    1  0.6065977E-013  0.5930196E+02  0.7816164E-02  0.1266605E+00
        -11   -1    0    0    0    0  0.00000000000E+00  0.00000000000E+00  0.45593999997E+02  0.45594000000E+02  0.51100000000E-03 0. -1.
         11   -1    0    0    0    0 -0.00000000000E+00 -0.00000000000E+00 -0.45593999997E+02  0.45594000000E+02  0.51100000000E-03 0.  1.
    9900012    2    1    2    0    0  0.16843488067E+02 -0.47126119245E+01  0.26660982768E+02  0.59301955975E+02  0.50000021789E+02 0.  0.
        -12    1    1    2    0    0 -0.16843488067E+02  0.47126119245E+01 -0.26660982768E+02  0.31886044025E+02  0.00000000000E+00 0.  1.
         11    1    3    3    0    0 -0.34357289482E+01  0.18662746792E+02  0.11420353405E+02  0.22147840152E+02  0.51100000000E-03 0. -1.
        -11    1    3    3    0    0  0.21937923156E+02 -0.18799472869E+02  0.14132132431E+02  0.32162242146E+02  0.51100000000E-03 0.  1.
        -12    1    3    3    0    0 -0.16587061413E+01 -0.45758858479E+01  0.11084969316E+01  0.49918736767E+01  0.00000000000E+00 0.  1.
</event>
<event>
 7    1  0.6065977E-013  0.5930192E+02  0.7816164E-02  0.1266605E+00
        -11   -1    0    0    0    0  0.00000000000E+00  0.00000000000E+00  0.45593999997E+02  0.45594000000E+02  0.51100000000E-03 0. -1.
         11   -1    0    0    0    0 -0.00000000000E+00 -0.00000000000E+00 -0.45593999997E+02  0.45594000000E+02  0.51100000000E-03 0.  1.
    9900012    2    1    2    0    0 -0.16227879217E+02 -0.99374356102E+01  0.25585646120E+02  0.59301921882E+02  0.49999959612E+02 0.  0.
        -12    1    1    2    0    0  0.16227879217E+02  0.99374356102E+01 -0.25585646120E+02  0.31886078118E+02  0.00000000000E+00 0.  1.
         11    1    3    3    0    0  0.12999794220E+01 -0.64994936169E+01  0.22859761303E+02  0.23801303554E+02  0.51100000000E-03 0. -1.
        -11    1    3    3    0    0 -0.23642117488E+02  0.43660921615E+01 -0.27100312312E+01  0.24194147011E+02  0.51100000000E-03 0.  1.
        -12    1    3    3    0    0  0.61142588490E+01 -0.78040341547E+01  0.54359160479E+01  0.11306471317E+02  0.00000000000E+00 0.  1.
</event>
<event>
 7    1  0.6065977E-013  0.5930193E+02  0.7816164E-02  0.1266605E+00
        -11   -1    0    0    0    0  0.00000000000E+00  0.00000000000E+00  0.45593999997E+02  0.45594000000E+02  0.51100000000E-03 0. -1.
         11   -1    0    0    0    0 -0.00000000000E+00 -0.00000000000E+00 -0.45593999997E+02  0.45594000000E+02  0.51100000000E-03 0.  1.
    9900012    2    1    2    0    0  0.17524511410E+02  0.15498995497E+02  0.21665504869E+02  0.59301929957E+02  0.49999974338E+02 0.  0.
        -12    1    1    2    0    0 -0.17524511410E+02 -0.15498995497E+02 -0.21665504869E+02  0.31886070043E+02  0.00000000000E+00 0.  1.
         11    1    3    3    0    0 -0.17747396951E+01  0.43214006535E+01  0.18803662999E+02  0.19375292179E+02  0.51100000000E-03 0. -1.
        -11    1    3    3    0    0  0.28420853687E+02  0.52797355335E+01  0.11468783638E+01  0.28929843793E+02  0.51100000000E-03 0.  1.
        -12    1    3    3    0    0 -0.91216025827E+01  0.58978593098E+01  0.17149635062E+01  0.10996793985E+02  0.00000000000E+00 0.  1.
</event>
<event>
 7    1  0.6065977E-013  0.5930195E+02  0.7816164E-02  0.1266605E+00
        -11   -1    0    0    0    0  0.00000000000E+00  0.00000000000E+00  0.45593999997E+02  0.45594000000E+02  0.51100000000E-03 0.  1.
         11   -1    0    0    0    0 -0.00000000000E+00 -0.00000000000E+00 -0.45593999997E+02  0.45594000000E+02  0.51100000000E-03 0. -1.
    9900012    2    1    2    0    0  0.18024499925E+02  0.10695734186E+02 -0.24029961902E+02  0.59301946680E+02  0.50000004837E+02 0.  0.
        -12    1    1    2    0    0 -0.18024499925E+02 -0.10695734186E+02  0.24029961902E+02  0.31886053320E+02  0.00000000000E+00 0.  1.
         11    1    3    3    0    0 -0.70152569223E+01  0.15583083025E+02 -0.22291539705E+01  0.17234135718E+02  0.51100000000E-03 0. -1.
        -11    1    3    3    0    0  0.20288143093E+02  0.67961201336E+01 -0.67602046567E+01  0.22438724703E+02  0.51100000000E-03 0.  1.
         12    1    3    3    0    0  0.47516137539E+01 -0.11683468972E+02 -0.15040603275E+02  0.19629086259E+02  0.00000000000E+00 0. -1.
</event>
<event>
 7    1  0.6065977E-013  0.5930196E+02  0.7816164E-02  0.1266605E+00
        -11   -1    0    0    0    0  0.00000000000E+00  0.00000000000E+00  0.45593999997E+02  0.45594000000E+02  0.51100000000E-03 0.  1.
         11   -1    0    0    0    0 -0.00000000000E+00 -0.00000000000E+00 -0.45593999997E+02  0.45594000000E+02  0.51100000000E-03 0. -1.
    9900012    2    1    2    0    0 -0.22547882023E+02  0.96033365276E+01 -0.20398245864E+02  0.59301960884E+02  0.50000030742E+02 0.  0.
        -12    1    1    2    0    0  0.22547882023E+02 -0.96033365276E+01  0.20398245864E+02  0.31886039116E+02  0.00000000000E+00 0.  1.
         11    1    3    3    0    0 -0.10666625772E+01 -0.71085340833E+00 -0.23539269505E+02  0.23574144538E+02  0.51100000000E-03 0. -1.
        -11    1    3    3    0    0 -0.19897901598E+02  0.18243718344E+02  0.49405980618E+01  0.27443929319E+02  0.51100000000E-03 0.  1.
         12    1    3    3    0    0 -0.15833178473E+01 -0.79295284077E+01 -0.17995744204E+01  0.82838870265E+01  0.00000000000E+00 0. -1.
</event>
<event>
 7    1  0.6065977E-013  0.5930197E+02  0.7816164E-02  0.1266605E+00
        -11   -1    0    0    0    0  0.00000000000E+00  0.00000000000E+00  0.45593999997E+02  0.45594000000E+02  0.51100000000E-03 0. -1.
         11   -1    0    0    0    0 -0.00000000000E+00 -0.00000000000E+00 -0.45593999997E+02  0.45594000000E+02  0.51100000000E-03 0.  1.
    9900012    2    1    2    0    0  0.17756699511E+02  0.25206461577E+02  0.81272920196E+01  0.59301969229E+02  0.50000045961E+02 0.  0.
        -12    1    1    2    0    0 -0.17756699511E+02 -0.25206461577E+02 -0.81272920196E+01  0.31886030771E+02  0.00000000000E+00 0.  1.
         11    1    3    3    0    0  0.20152074737E+02 -0.39705104637E+01 -0.99583583724E+01  0.22826299991E+02  0.51100000000E-03 0.  1.
        -11    1    3    3    0    0 -0.26367773110E+01  0.30357185416E+02  0.17415346307E+02  0.35097088031E+02  0.51100000000E-03 0. -1.
         12    1    3    3    0    0  0.24140208579E+00 -0.11802133759E+01  0.67030408449E+00  0.13785812073E+01  0.00000000000E+00 0. -1.
</event>
<event>
 7    1  0.6065977E-013  0.5930193E+02  0.7816164E-02  0.1266605E+00
        -11   -1    0    0    0    0  0.00000000000E+00  0.00000000000E+00  0.45593999997E+02  0.45594000000E+02  0.51100000000E-03 0.  1.
         11   -1    0    0    0    0 -0.00000000000E+00 -0.00000000000E+00 -0.45593999997E+02  0.45594000000E+02  0.51100000000E-03 0. -1.
    9900012    2    1    2    0    0 -0.27652871720E+02  0.11058355782E+02 -0.11390904153E+02  0.59301933382E+02  0.49999980585E+02 0.  0.
        -12    1    1    2    0    0  0.27652871720E+02 -0.11058355782E+02  0.11390904153E+02  0.31886066618E+02  0.00000000000E+00 0.  1.
         11    1    3    3    0    0 -0.36447045764E+00  0.24470897445E+01 -0.21006260703E+02  0.21151455645E+02  0.51100000000E-03 0. -1.
        -11    1    3    3    0    0 -0.30698214819E+02  0.10373390539E+02  0.10763179550E+02  0.34144306386E+02  0.51100000000E-03 0.  1.
         12    1    3    3    0    0  0.34098135565E+01 -0.17621245015E+01 -0.11478230004E+01  0.40061713505E+01  0.00000000000E+00 0. -1.
</event>
<event>
 7    1  0.6065977E-013  0.5930200E+02  0.7816164E-02  0.1266605E+00
        -11   -1    0    0    0    0  0.00000000000E+00  0.00000000000E+00  0.45593999997E+02  0.45594000000E+02  0.51100000000E-03 0. -1.
         11   -1    0    0    0    0 -0.00000000000E+00 -0.00000000000E+00 -0.45593999997E+02  0.45594000000E+02  0.51100000000E-03 0.  1.
    9900012    2    1    2    0    0  0.46181756112E+01  0.24066875822E+02  0.20400368859E+02  0.59301998253E+02  0.50000098893E+02 0.  0.
        -12    1    1    2    0    0 -0.46181756112E+01 -0.24066875822E+02 -0.20400368859E+02  0.31886001747E+02  0.00000000000E+00 0.  1.
         11    1    3    3    0    0  0.16355107293E+02  0.19170335140E+01  0.27892823151E+02  0.32390957622E+02  0.51100000000E-03 0. -1.
        -11    1    3    3    0    0 -0.79052551680E+01  0.15067758972E+02 -0.80817304005E+01  0.18837324285E+02  0.51100000000E-03 0.  1.
         12    1    3    3    0    0 -0.38316765140E+01  0.70820833367E+01  0.58927610857E+00  0.80737163455E+01  0.00000000000E+00 0. -1.
</event>
<event>
 7    1  0.6065977E-013  0.5930195E+02  0.7816164E-02  0.1266605E+00
        -11   -1    0    0    0    0  0.00000000000E+00  0.00000000000E+00  0.45593999997E+02  0.45594000000E+02  0.51100000000E-03 0. -1.
         11   -1    0    0    0    0 -0.00000000000E+00 -0.00000000000E+00 -0.45593999997E+02  0.45594000000E+02  0.51100000000E-03 0.  1.
    9900012    2    1    2    0    0 -0.23718815906E+02  0.20231511425E+02 -0.66950885957E+01  0.59301945151E+02  0.50000002048E+02 0.  0.
        -12    1    1    2    0    0  0.23718815906E+02 -0.20231511425E+02  0.66950885957E+01  0.31886054849E+02  0.00000000000E+00 0.  1.
         11    1    3    3    0    0 -0.30605965600E+02  0.44022481464E+01  0.14416786773E+01  0.30954536933E+02  0.51100000000E-03 0. -1.
        -11    1    3    3    0    0  0.50257300579E+01  0.16413730668E+02  0.26643915423E+01  0.17371456462E+02  0.51100000000E-03 0.  1.
        -12    1    3    3    0    0  0.18614196360E+01 -0.58446738960E+00 -0.10801158815E+02  0.10975951756E+02  0.00000000000E+00 0.  1.
</event>
<event>
 7    1  0.6065977E-013  0.5930196E+02  0.7816164E-02  0.1266605E+00
        -11   -1    0    0    0    0  0.00000000000E+00  0.00000000000E+00  0.45593999997E+02  0.45594000000E+02  0.51100000000E-03 0.  1.
         11   -1    0    0    0    0 -0.00000000000E+00 -0.00000000000E+00 -0.45593999997E+02  0.45594000000E+02  0.51100000000E-03 0. -1.
    9900012    2    1    2    0    0 -0.11795572757E+02  0.27233091199E+02 -0.11659440055E+02  0.59301963317E+02  0.50000035179E+02 0.  0.
        -12    1    1    2    0    0  0.11795572757E+02 -0.27233091199E+02  0.11659440055E+02  0.31886036683E+02  0.00000000000E+00 0.  1.
         11    1    3    3    0    0  0.10830683023E+02  0.24023224544E+02 -0.69278214909E+01  0.27247270012E+02  0.51100000000E-03 0. -1.
        -11    1    3    3    0    0 -0.25508103056E+02  0.62900423166E+01 -0.71033202163E+01  0.27215530717E+02  0.51100000000E-03 0.  1.
        -12    1    3    3    0    0  0.28818472764E+01 -0.30801756609E+01  0.23717016522E+01  0.48391625880E+01  0.00000000000E+00 0.  1.
</event>
<event>
 7    1  0.6065977E-013  0.5930193E+02  0.7816164E-02  0.1266605E+00
        -11   -1    0    0    0    0  0.00000000000E+00  0.00000000000E+00  0.45593999997E+02  0.45594000000E+02  0.51100000000E-03 0.  1.
         11   -1    0    0    0    0 -0.00000000000E+00 -0.00000000000E+00 -0.45593999997E+02  0.45594000000E+02  0.51100000000E-03 0. -1.
    9900012    2    1    2    0    0  0.29064657894E+02  0.10177209444E+02  0.82699118444E+01  0.59301931373E+02  0.49999976921E+02 0.  0.
        -12    1    1    2    0    0 -0.29064657894E+02 -0.10177209444E+02 -0.82699118444E+01  0.31886068627E+02  0.00000000000E+00 0.  1.
         11    1    3    3    0    0  0.19137580924E+02 -0.29268055127E+00  0.13684092816E+02  0.23528430929E+02  0.51100000000E-03 0.  1.
        -11    1    3    3    0    0  0.13397909154E+02  0.11006367101E+02 -0.16627364084E+02  0.24023183034E+02  0.51100000000E-03 0. -1.
         12    1    3    3    0    0 -0.34708321837E+01 -0.53647710571E+00  0.11213183112E+02  0.11750317410E+02  0.00000000000E+00 0. -1.
</event>
<event>
 7    1  0.6065977E-013  0.5930194E+02  0.7816164E-02  0.1266605E+00
        -11   -1    0    0    0    0  0.00000000000E+00  0.00000000000E+00  0.45593999997E+02  0.45594000000E+02  0.51100000000E-03 0.  1.
         11   -1    0    0    0    0 -0.00000000000E+00 -0.00000000000E+00 -0.45593999997E+02  0.45594000000E+02  0.51100000000E-03 0. -1.
    9900012    2    1    2    0    0 -0.28934348133E+02  0.10220470017E+02  0.86640800315E+01  0.59301940475E+02  0.49999993521E+02 0.  0.
        -12    1    1    2    0    0  0.28934348133E+02 -0.10220470017E+02 -0.86640800315E+01  0.31886059525E+02  0.00000000000E+00 0.  1.
         11    1    3    3    0    0 -0.71229989163E+01  0.54004221316E+01  0.67130290793E+01  0.11178838600E+02  0.51100000000E-03 0. -1.
        -11    1    3    3    0    0 -0.26755957461E+02 -0.82373065446E+00 -0.14208987874E+02  0.30306024624E+02  0.51100000000E-03 0.  1.
        -12    1    3    3    0    0  0.49446082447E+01  0.56437785396E+01  0.16160038826E+02  0.17817077251E+02  0.00000000000E+00 0.  1.
</event>
<event>
 7    1  0.6065977E-013  0.5930190E+02  0.7816164E-02  0.1266605E+00
        -11   -1    0    0    0    0  0.00000000000E+00  0.00000000000E+00  0.45593999997E+02  0.45594000000E+02  0.51100000000E-03 0.  1.
         11   -1    0    0    0    0 -0.00000000000E+00 -0.00000000000E+00 -0.45593999997E+02  0.45594000000E+02  0.51100000000E-03 0. -1.
    9900012    2    1    2    0    0 -0.12953960026E+02 -0.12066812919E+02 -0.26520000549E+02  0.59301898270E+02  0.49999916549E+02 0.  0.
        -12    1    1    2    0    0  0.12953960026E+02  0.12066812919E+02  0.26520000549E+02  0.31886101730E+02  0.00000000000E+00 0.  1.
         11    1    3    3    0    0 -0.14806979686E+02 -0.24174150656E+02 -0.24663062887E+02  0.37575296122E+02  0.51100000000E-03 0. -1.
        -11    1    3    3    0    0 -0.30222190504E+01  0.14245271780E+02 -0.51741469816E+01  0.15454234802E+02  0.51100000000E-03 0.  1.
         12    1    3    3    0    0  0.48752387104E+01 -0.21379340425E+01  0.33172093197E+01  0.62723673461E+01  0.00000000000E+00 0. -1.
</event>
<event>
 7    1  0.6065977E-013  0.5930194E+02  0.7816164E-02  0.1266605E+00
        -11   -1    0    0    0    0  0.00000000000E+00  0.00000000000E+00  0.45593999997E+02  0.45594000000E+02  0.51100000000E-03 0.  1.
         11   -1    0    0    0    0 -0.00000000000E+00 -0.00000000000E+00 -0.45593999997E+02  0.45594000000E+02  0.51100000000E-03 0. -1.
    9900012    2    1    2    0    0  0.32494695028E+01 -0.31719995595E+02 -0.58549871153E-01  0.59301943475E+02  0.49999998992E+02 0.  0.
        -12    1    1    2    0    0 -0.32494695028E+01  0.31719995595E+02  0.58549871153E-01  0.31886056525E+02  0.00000000000E+00 0.  1.
         11    1    3    3    0    0 -0.58253124998E+01  0.72817552407E+01 -0.12159487569E+02  0.15323555831E+02  0.51100000000E-03 0. -1.
        -11    1    3    3    0    0  0.71364608599E+01 -0.18399457684E+02 -0.51666168387E+00  0.19741733871E+02  0.51100000000E-03 0.  1.
         12    1    3    3    0    0  0.19383211426E+01 -0.20602293152E+02  0.12617599382E+02  0.24236653774E+02  0.00000000000E+00 0. -1.
</event>
<event>
 7    1  0.6065977E-013  0.5930214E+02  0.7816164E-02  0.1266604E+00
        -11   -1    0    0    0    0  0.00000000000E+00  0.00000000000E+00  0.45593999997E+02  0.45594000000E+02  0.51100000000E-03 0.  1.
         11   -1    0    0    0    0 -0.00000000000E+00 -0.00000000000E+00 -0.45593999997E+02  0.45594000000E+02  0.51100000000E-03 0. -1.
    9900012    2    1    2    0    0 -0.16880919149E+02  0.26109468786E+02 -0.70737949177E+01  0.59302135324E+02  0.50000348877E+02 0.  0.
        -12    1    1    2    0    0  0.16880919149E+02 -0.26109468786E+02  0.70737949177E+01  0.31885864676E+02  0.00000000000E+00 0.  1.
         11    1    3    3    0    0  0.24488465725E+01  0.13277847689E+02 -0.87171285559E+01  0.16071291774E+02  0.51100000000E-03 0. -1.
        -11    1    3    3    0    0  0.54651520056E+00 -0.64363808670E+01  0.12037575435E+02  0.13661218839E+02  0.51100000000E-03 0.  1.
        -12    1    3    3    0    0 -0.19876280922E+02  0.19268001965E+02 -0.10394241797E+02  0.29569624711E+02  0.00000000000E+00 0.  1.
</event>
<event>
 7    1  0.6065977E-013  0.5930193E+02  0.7816164E-02  0.1266605E+00
        -11   -1    0    0    0    0  0.00000000000E+00  0.00000000000E+00  0.45593999997E+02  0.45594000000E+02  0.51100000000E-03 0. -1.
         11   -1    0    0    0    0 -0.00000000000E+00 -0.00000000000E+00 -0.45593999997E+02  0.45594000000E+02  0.51100000000E-03 0.  1.
    9900012    2    1    2    0    0  0.15377227608E+02 -0.22327051091E+02  0.16785869745E+02  0.59301925258E+02  0.49999965768E+02 0.  0.
        -12    1    1    2    0    0 -0.15377227608E+02  0.22327051091E+02 -0.16785869745E+02  0.31886074742E+02  0.00000000000E+00 0.  1.
         11    1    3    3    0    0  0.19955693585E+01  0.55865301348E+01  0.21526037050E+02  0.22328499443E+02  0.51100000000E-03 0.  1.
        -11    1    3    3    0    0  0.14801948566E+02 -0.10198456616E+02 -0.65005583311E+01  0.19114482927E+02  0.51100000000E-03 0. -1.
         12    1    3    3    0    0 -0.14202903156E+01 -0.17715124610E+02  0.17603910261E+01  0.17858942888E+02  0.00000000000E+00 0. -1.
</event>
<event>
 7    1  0.6065977E-013  0.5930202E+02  0.7816164E-02  0.1266604E+00
        -11   -1    0    0    0    0  0.00000000000E+00  0.00000000000E+00  0.45593999997E+02  0.45594000000E+02  0.51100000000E-03 0.  1.
         11   -1    0    0    0    0 -0.00000000000E+00 -0.00000000000E+00 -0.45593999997E+02  0.45594000000E+02  0.51100000000E-03 0. -1.
    9900012    2    1    2    0    0  0.16191624661E+02 -0.17462337579E+02 -0.21204090805E+02  0.59302024873E+02  0.50000147443E+02 0.  0.
        -12    1    1    2    0    0 -0.16191624661E+02  0.17462337579E+02  0.21204090805E+02  0.31885975127E+02  0.00000000000E+00 0.  1.
         11    1    3    3    0    0  0.18777052857E+02 -0.15348276205E+02 -0.30251638127E+02  0.38772527723E+02  0.51100000000E-03 0. -1.
        -11    1    3    3    0    0 -0.91469809527E+01  0.32722356703E+01  0.32273005570E+01  0.10236711189E+02  0.51100000000E-03 0.  1.
         12    1    3    3    0    0  0.65615527570E+01 -0.53862970444E+01  0.58202467644E+01  0.10292785961E+02  0.00000000000E+00 0. -1.
</event>
<event>
 7    1  0.6065977E-013  0.5930197E+02  0.7816164E-02  0.1266605E+00
        -11   -1    0    0    0    0  0.00000000000E+00  0.00000000000E+00  0.45593999997E+02  0.45594000000E+02  0.51100000000E-03 0.  1.
         11   -1    0    0    0    0 -0.00000000000E+00 -0.00000000000E+00 -0.45593999997E+02  0.45594000000E+02  0.51100000000E-03 0. -1.
    9900012    2    1    2    0    0 -0.90794184503E+01  0.20345891671E+02 -0.22810693905E+02  0.59301970086E+02  0.50000047524E+02 0.  0.
        -12    1    1    2    0    0  0.90794184503E+01 -0.20345891671E+02  0.22810693905E+02  0.31886029914E+02  0.00000000000E+00 0.  1.
         11    1    3    3    0    0  0.83162698081E+01  0.71909435585E+01 -0.10408524276E+02  0.15139596779E+02  0.51100000000E-03 0. -1.
        -11    1    3    3    0    0 -0.16763007023E+02  0.27858611733E+01  0.98239939755E+01  0.19628303157E+02  0.51100000000E-03 0.  1.
        -12    1    3    3    0    0 -0.63268123497E+00  0.10369086939E+02 -0.22226163605E+02  0.24534070149E+02  0.00000000000E+00 0.  1.
</event>
<event>
 7    1  0.6065977E-013  0.5930194E+02  0.7816164E-02  0.1266605E+00
        -11   -1    0    0    0    0  0.00000000000E+00  0.00000000000E+00  0.45593999997E+02  0.45594000000E+02  0.51100000000E-03 0.  1.
         11   -1    0    0    0    0 -0.00000000000E+00 -0.00000000000E+00 -0.45593999997E+02  0.45594000000E+02  0.51100000000E-03 0. -1.
    9900012    2    1    2    0    0 -0.47049843819E+01 -0.18315998590E+02 -0.25673101463E+02  0.59301940020E+02  0.49999992690E+02 0.  0.
        -12    1    1    2    0    0  0.47049843819E+01  0.18315998590E+02  0.25673101463E+02  0.31886059980E+02  0.00000000000E+00 0.  1.
         11    1    3    3    0    0 -0.79931070193E+01 -0.20201978171E+01 -0.26282057723E+02  0.27544827417E+02  0.51100000000E-03 0. -1.
        -11    1    3    3    0    0  0.13962844280E+02 -0.23302183802E+01  0.79259995236E+00  0.14178122338E+02  0.51100000000E-03 0.  1.
        -12    1    3    3    0    0 -0.10674721643E+02 -0.13965582392E+02 -0.18364369202E+00  0.17578990264E+02  0.00000000000E+00 0.  1.
</event>
<event>
 7    1  0.6065977E-013  0.5930195E+02  0.7816164E-02  0.1266605E+00
        -11   -1    0    0    0    0  0.00000000000E+00  0.00000000000E+00  0.45593999997E+02  0.45594000000E+02  0.51100000000E-03 0. -1.
         11   -1    0    0    0    0 -0.00000000000E+00 -0.00000000000E+00 -0.45593999997E+02  0.45594000000E+02  0.51100000000E-03 0.  1.
    9900012    2    1    2    0    0 -0.24516766590E+02  0.15860995547E+02  0.12809272188E+02  0.59301945403E+02  0.50000002509E+02 0.  0.
        -12    1    1    2    0    0  0.24516766590E+02 -0.15860995547E+02 -0.12809272188E+02  0.31886054597E+02  0.00000000000E+00 0.  1.
         11    1    3    3    0    0 -0.19992300980E+02  0.24577483338E+02  0.24079415841E+02  0.39794007755E+02  0.51100000000E-03 0. -1.
        -11    1    3    3    0    0  0.20488234660E+01  0.13413660107E+01  0.70067035960E+00  0.25471316384E+01  0.51100000000E-03 0.  1.
         12    1    3    3    0    0 -0.65732890761E+01 -0.10057853802E+02 -0.11970814012E+02  0.16960806010E+02  0.00000000000E+00 0. -1.
</event>
<event>
 7    1  0.6065977E-013  0.5930195E+02  0.7816164E-02  0.1266605E+00
        -11   -1    0    0    0    0  0.00000000000E+00  0.00000000000E+00  0.45593999997E+02  0.45594000000E+02  0.51100000000E-03 0. -1.
         11   -1    0    0    0    0 -0.00000000000E+00 -0.00000000000E+00 -0.45593999997E+02  0.45594000000E+02  0.51100000000E-03 0.  1.
    9900012    2    1    2    0    0 -0.18417316830E+02 -0.22384106223E+01  0.25932843430E+02  0.59301946470E+02  0.50000004455E+02 0.  0.
        -12    1    1    2    0    0  0.18417316830E+02  0.22384106223E+01 -0.25932843430E+02  0.31886053530E+02  0.00000000000E+00 0.  1.
         11    1    3    3    0    0 -0.24362194892E+02 -0.15050870839E+02  0.41835444520E+01  0.28940409420E+02  0.51100000000E-03 0.  1.
        -11    1    3    3    0    0 -0.83539872697E+00  0.11777475057E+02  0.20093482943E+02  0.23305683143E+02  0.51100000000E-03 0. -1.
        -12    1    3    3    0    0  0.67802767889E+01  0.10349851594E+01  0.16558160352E+01  0.70558539070E+01  0.00000000000E+00 0.  1.
</event>
<event>
 7    1  0.6065977E-013  0.5930192E+02  0.7816164E-02  0.1266605E+00
        -11   -1    0    0    0    0  0.00000000000E+00  0.00000000000E+00  0.45593999997E+02  0.45594000000E+02  0.51100000000E-03 0.  1.
         11   -1    0    0    0    0 -0.00000000000E+00 -0.00000000000E+00 -0.45593999997E+02  0.45594000000E+02  0.51100000000E-03 0. -1.
    9900012    2    1    2    0    0  0.95463697977E+01  0.26246813471E+02 -0.15384863165E+02  0.59301915130E+02  0.49999947298E+02 0.  0.
        -12    1    1    2    0    0 -0.95463697977E+01 -0.26246813471E+02  0.15384863165E+02  0.31886084870E+02  0.00000000000E+00 0.  1.
         11    1    3    3    0    0  0.49375736041E+01  0.35708123387E+02 -0.24145924798E+02  0.43387502734E+02  0.51100000000E-03 0. -1.
        -11    1    3    3    0    0 -0.22574359286E+01 -0.36439003351E+01  0.28288100282E+01  0.51357757993E+01  0.51100000000E-03 0.  1.
         12    1    3    3    0    0  0.68662321222E+01 -0.58174095803E+01  0.59322516050E+01  0.10778636597E+02  0.00000000000E+00 0. -1.
</event>
<event>
 7    1  0.6065977E-013  0.5930188E+02  0.7816164E-02  0.1266605E+00
        -11   -1    0    0    0    0  0.00000000000E+00  0.00000000000E+00  0.45593999997E+02  0.45594000000E+02  0.51100000000E-03 0.  1.
         11   -1    0    0    0    0 -0.00000000000E+00 -0.00000000000E+00 -0.45593999997E+02  0.45594000000E+02  0.51100000000E-03 0. -1.
    9900012    2    1    2    0    0  0.10044021440E+02 -0.34629280465E+01 -0.30064103398E+02  0.59301881540E+02  0.49999886036E+02 0.  0.
        -12    1    1    2    0    0 -0.10044021440E+02  0.34629280465E+01  0.30064103398E+02  0.31886118460E+02  0.00000000000E+00 0.  1.
         11    1    3    3    0    0  0.13090097909E+02 -0.99279619871E+01 -0.92466900175E+01  0.18852489730E+02  0.51100000000E-03 0.  1.
        -11    1    3    3    0    0  0.75043584227E+01  0.17374500996E+02 -0.15173180972E+02  0.24257248428E+02  0.51100000000E-03 0. -1.
         12    1    3    3    0    0 -0.10550434891E+02 -0.10909467056E+02 -0.56442324082E+01  0.16192143382E+02  0.00000000000E+00 0. -1.
</event>
<event>
 7    1  0.6065977E-013  0.5930193E+02  0.7816164E-02  0.1266605E+00
        -11   -1    0    0    0    0  0.00000000000E+00  0.00000000000E+00  0.45593999997E+02  0.45594000000E+02  0.51100000000E-03 0.  1.
         11   -1    0    0    0    0 -0.00000000000E+00 -0.00000000000E+00 -0.45593999997E+02  0.45594000000E+02  0.51100000000E-03 0. -1.
    9900012    2    1    2    0    0 -0.17054092262E+01 -0.41606737509E+01 -0.31567416824E+02  0.59301930446E+02  0.49999975230E+02 0.  0.
        -12    1    1    2    0    0  0.17054092262E+01  0.41606737509E+01  0.31567416824E+02  0.31886069554E+02  0.00000000000E+00 0.  1.
         11    1    3    3    0    0 -0.17005040319E+02 -0.81883943494E-01  0.22201756026E+01  0.17149556297E+02  0.51100000000E-03 0. -1.
        -11    1    3    3    0    0  0.12671306963E+02 -0.19993336510E+01 -0.59973564092E+01  0.14160778205E+02  0.51100000000E-03 0.  1.
         12    1    3    3    0    0  0.26283241292E+01 -0.20794561563E+01 -0.27790236017E+02  0.27991595944E+02  0.00000000000E+00 0. -1.
</event>
<event>
 7    1  0.6065977E-013  0.5930195E+02  0.7816164E-02  0.1266605E+00
        -11   -1    0    0    0    0  0.00000000000E+00  0.00000000000E+00  0.45593999997E+02  0.45594000000E+02  0.51100000000E-03 0. -1.
         11   -1    0    0    0    0 -0.00000000000E+00 -0.00000000000E+00 -0.45593999997E+02  0.45594000000E+02  0.51100000000E-03 0.  1.
    9900012    2    1    2    0    0 -0.12130435847E+02  0.23305703574E+02  0.18067019104E+02  0.59301945489E+02  0.50000002666E+02 0.  0.
        -12    1    1    2    0    0  0.12130435847E+02 -0.23305703574E+02 -0.18067019104E+02  0.31886054511E+02  0.00000000000E+00 0.  1.
         11    1    3    3    0    0 -0.89759475891E+01  0.16443491066E+00  0.18619640569E+02  0.20670889897E+02  0.51100000000E-03 0. -1.
        -11    1    3    3    0    0  0.80968855893E-01  0.30541933642E+02 -0.75786661373E+00  0.30551442333E+02  0.51100000000E-03 0.  1.
        -12    1    3    3    0    0 -0.32354571139E+01 -0.74006649782E+01  0.20524514913E+00  0.80796132597E+01  0.00000000000E+00 0.  1.
</event>
<event>
 7    1  0.6065977E-013  0.5930200E+02  0.7816164E-02  0.1266605E+00
        -11   -1    0    0    0    0  0.00000000000E+00  0.00000000000E+00  0.45593999997E+02  0.45594000000E+02  0.51100000000E-03 0. -1.
         11   -1    0    0    0    0 -0.00000000000E+00 -0.00000000000E+00 -0.45593999997E+02  0.45594000000E+02  0.51100000000E-03 0.  1.
    9900012    2    1    2    0    0 -0.18783893296E+02 -0.11256990204E+02  0.23176773063E+02  0.59301995462E+02  0.50000093803E+02 0.  0.
        -12    1    1    2    0    0  0.18783893296E+02  0.11256990204E+02 -0.23176773063E+02  0.31886004538E+02  0.00000000000E+00 0.  1.
         11    1    3    3    0    0 -0.86688127193E+01 -0.82399782282E+01  0.60445908706E+01  0.13400844534E+02  0.51100000000E-03 0. -1.
        -11    1    3    3    0    0 -0.10192592998E+02  0.16443424970E+02 -0.90469123965E+00  0.19367334439E+02  0.51100000000E-03 0.  1.
        -12    1    3    3    0    0  0.77512421279E-01 -0.19460436945E+02  0.18036873432E+02  0.26533816489E+02  0.00000000000E+00 0.  1.
</event>
<event>
 7    1  0.6065977E-013  0.5930194E+02  0.7816164E-02  0.1266605E+00
        -11   -1    0    0    0    0  0.00000000000E+00  0.00000000000E+00  0.45593999997E+02  0.45594000000E+02  0.51100000000E-03 0. -1.
         11   -1    0    0    0    0 -0.00000000000E+00 -0.00000000000E+00 -0.45593999997E+02  0.45594000000E+02  0.51100000000E-03 0.  1.
    9900012    2    1    2    0    0  0.28540669559E+02  0.69570989297E+01  0.12399600437E+02  0.59301935091E+02  0.49999983701E+02 0.  0.
        -12    1    1    2    0    0 -0.28540669559E+02 -0.69570989297E+01 -0.12399600437E+02  0.31886064909E+02  0.00000000000E+00 0.  1.
         11    1    3    3    0    0  0.39746820396E+02  0.11002749863E+02  0.81297320925E+01  0.42035256397E+02  0.51100000000E-03 0. -1.
        -11    1    3    3    0    0 -0.75067530136E+01 -0.16954687047E+01  0.82955912083E+01  0.11315599352E+02  0.51100000000E-03 0.  1.
        -12    1    3    3    0    0 -0.36993978239E+01 -0.23501822284E+01 -0.40257228634E+01  0.59510793423E+01  0.00000000000E+00 0.  1.
</event>
<event>
 7    1  0.6065977E-013  0.5930168E+02  0.7816164E-02  0.1266606E+00
        -11   -1    0    0    0    0  0.00000000000E+00  0.00000000000E+00  0.45593999997E+02  0.45594000000E+02  0.51100000000E-03 0.  1.
         11   -1    0    0    0    0 -0.00000000000E+00 -0.00000000000E+00 -0.45593999997E+02  0.45594000000E+02  0.51100000000E-03 0. -1.
    9900012    2    1    2    0    0 -0.30113956022E+02  0.86933808975E+01  0.58576469660E+01  0.59301682453E+02  0.49999522948E+02 0.  0.
        -12    1    1    2    0    0  0.30113956022E+02 -0.86933808975E+01 -0.58576469660E+01  0.31886317547E+02  0.00000000000E+00 0.  1.
         11    1    3    3    0    0  0.41921734516E+01  0.18358115875E+02 -0.38281602055E+01  0.19215867078E+02  0.51100000000E-03 0. -1.
        -11    1    3    3    0    0 -0.17499289690E+02  0.30493633684E+01  0.33138634484E+01  0.18069461747E+02  0.51100000000E-03 0.  1.
         12    1    3    3    0    0 -0.16806839784E+02 -0.12714098346E+02  0.63719437231E+01  0.22016353628E+02  0.00000000000E+00 0. -1.
</event>
<event>
 7    1  0.6065977E-013  0.5930193E+02  0.7816164E-02  0.1266605E+00
        -11   -1    0    0    0    0  0.00000000000E+00  0.00000000000E+00  0.45593999997E+02  0.45594000000E+02  0.51100000000E-03 0. -1.
         11   -1    0    0    0    0 -0.00000000000E+00 -0.00000000000E+00 -0.45593999997E+02  0.45594000000E+02  0.51100000000E-03 0.  1.
    9900012    2    1    2    0    0  0.81780010237E+01  0.30778102713E+02 -0.15968895428E+01  0.59301931512E+02  0.49999977175E+02 0.  0.
        -12    1    1    2    0    0 -0.81780010237E+01 -0.30778102713E+02  0.15968895428E+01  0.31886068488E+02  0.00000000000E+00 0.  1.
         11    1    3    3    0    0 -0.93618423937E+01  0.10813535938E+02  0.12667615876E+02  0.19106154630E+02  0.51100000000E-03 0. -1.
        -11    1    3    3    0    0  0.18444619409E+02  0.20095022763E+01 -0.11951133330E+02  0.22069700331E+02  0.51100000000E-03 0.  1.
        -12    1    3    3    0    0 -0.90477599183E+00  0.17955064499E+02 -0.23133720889E+01  0.18126076552E+02  0.00000000000E+00 0.  1.
</event>
<event>
 7    1  0.6065977E-013  0.5930185E+02  0.7816164E-02  0.1266605E+00
        -11   -1    0    0    0    0  0.00000000000E+00  0.00000000000E+00  0.45593999997E+02  0.45594000000E+02  0.51100000000E-03 0.  1.
         11   -1    0    0    0    0 -0.00000000000E+00 -0.00000000000E+00 -0.45593999997E+02  0.45594000000E+02  0.51100000000E-03 0. -1.
    9900012    2    1    2    0    0  0.13486088591E+02 -0.20081214638E+02 -0.20774901723E+02  0.59301853974E+02  0.49999835763E+02 0.  0.
        -12    1    1    2    0    0 -0.13486088591E+02  0.20081214638E+02  0.20774901723E+02  0.31886146026E+02  0.00000000000E+00 0.  1.
         11    1    3    3    0    0 -0.37820845668E+00  0.27531914196E+01 -0.28111077128E+02  0.28248110772E+02  0.51100000000E-03 0. -1.
        -11    1    3    3    0    0 -0.47381128851E+00 -0.84103017797E+00  0.45508200531E+01  0.46520739799E+01  0.51100000000E-03 0.  1.
         12    1    3    3    0    0  0.14338108336E+02 -0.21993375879E+02  0.27853553523E+01  0.26401669221E+02  0.00000000000E+00 0. -1.
</event>
<event>
 7    1  0.6065977E-013  0.5930194E+02  0.7816164E-02  0.1266605E+00
        -11   -1    0    0    0    0  0.00000000000E+00  0.00000000000E+00  0.45593999997E+02  0.45594000000E+02  0.51100000000E-03 0.  1.
         11   -1    0    0    0    0 -0.00000000000E+00 -0.00000000000E+00 -0.45593999997E+02  0.45594000000E+02  0.51100000000E-03 0. -1.
    9900012    2    1    2    0    0  0.29001311306E+02 -0.11771086916E+02 -0.60898318650E+01  0.59301943536E+02  0.49999999104E+02 0.  0.
        -12    1    1    2    0    0 -0.29001311306E+02  0.11771086916E+02  0.60898318650E+01  0.31886056464E+02  0.00000000000E+00 0.  1.
         11    1    3    3    0    0  0.25273087735E+02 -0.84984869299E+01 -0.63590534780E+01  0.27411508626E+02  0.51100000000E-03 0. -1.
        -11    1    3    3    0    0  0.11250165014E+01  0.51842844425E+01  0.14328167546E+02  0.15278705861E+02  0.51100000000E-03 0.  1.
        -12    1    3    3    0    0  0.26032070703E+01 -0.84568844284E+01 -0.14058945933E+02  0.16611729050E+02  0.00000000000E+00 0.  1.
</event>
<event>
 7    1  0.6065977E-013  0.5930195E+02  0.7816164E-02  0.1266605E+00
        -11   -1    0    0    0    0  0.00000000000E+00  0.00000000000E+00  0.45593999997E+02  0.45594000000E+02  0.51100000000E-03 0.  1.
         11   -1    0    0    0    0 -0.00000000000E+00 -0.00000000000E+00 -0.45593999997E+02  0.45594000000E+02  0.51100000000E-03 0. -1.
    9900012    2    1    2    0    0 -0.20206525456E+01 -0.31463602817E+02  0.47622641379E+01  0.59301945075E+02  0.50000001910E+02 0.  0.
        -12    1    1    2    0    0  0.20206525456E+01  0.31463602817E+02 -0.47622641379E+01  0.31886054925E+02  0.00000000000E+00 0.  1.
         11    1    3    3    0    0  0.74474754819E+01 -0.29928295290E+02  0.22700888296E+02  0.38294883205E+02  0.51100000000E-03 0. -1.
        -11    1    3    3    0    0 -0.21331586170E+01 -0.13014272720E+01 -0.12886930054E+01  0.28115491376E+01  0.51100000000E-03 0.  1.
         12    1    3    3    0    0 -0.73349694104E+01 -0.23388025584E+00 -0.16649931152E+02  0.18195512733E+02  0.00000000000E+00 0. -1.
</event>
<event>
 7    1  0.6065977E-013  0.5930195E+02  0.7816164E-02  0.1266605E+00
        -11   -1    0    0    0    0  0.00000000000E+00  0.00000000000E+00  0.45593999997E+02  0.45594000000E+02  0.51100000000E-03 0.  1.
         11   -1    0    0    0    0 -0.00000000000E+00 -0.00000000000E+00 -0.45593999997E+02  0.45594000000E+02  0.51100000000E-03 0. -1.
    9900012    2    1    2    0    0  0.22642670116E+02  0.29065912486E+01 -0.22261654413E+02  0.59301952270E+02  0.50000015031E+02 0.  0.
        -12    1    1    2    0    0 -0.22642670116E+02 -0.29065912486E+01  0.22261654413E+02  0.31886047730E+02  0.00000000000E+00 0.  1.
         11    1    3    3    0    0  0.18073499827E+02  0.24263364677E+01 -0.35794133904E+02  0.40171613446E+02  0.51100000000E-03 0. -1.
        -11    1    3    3    0    0  0.49004464083E+01 -0.55300625244E+01  0.62150927833E+01  0.96552237203E+01  0.51100000000E-03 0.  1.
        -12    1    3    3    0    0 -0.33127611880E+00  0.60103173053E+01  0.73173867084E+01  0.94751151031E+01  0.00000000000E+00 0.  1.
</event>
<event>
 7    1  0.6065977E-013  0.5930193E+02  0.7816164E-02  0.1266605E+00
        -11   -1    0    0    0    0  0.00000000000E+00  0.00000000000E+00  0.45593999997E+02  0.45594000000E+02  0.51100000000E-03 0. -1.
         11   -1    0    0    0    0 -0.00000000000E+00 -0.00000000000E+00 -0.45593999997E+02  0.45594000000E+02  0.51100000000E-03 0.  1.
    9900012    2    1    2    0    0  0.11313926159E+02 -0.28589944670E+02 -0.84457931594E+01  0.59301932769E+02  0.49999979466E+02 0.  0.
        -12    1    1    2    0    0 -0.11313926159E+02  0.28589944670E+02  0.84457931594E+01  0.31886067231E+02  0.00000000000E+00 0.  1.
         11    1    3    3    0    0  0.80042521925E+01  0.13075088008E+02 -0.52647076703E+01  0.16209353062E+02  0.51100000000E-03 0.  1.
        -11    1    3    3    0    0 -0.60482841413E+00 -0.35027726576E+02 -0.85458136446E+00  0.35043369645E+02  0.51100000000E-03 0. -1.
        -12    1    3    3    0    0  0.39145023805E+01 -0.66373061019E+01 -0.23265041246E+01  0.80492100618E+01  0.00000000000E+00 0.  1.
</event>
<event>
 7    1  0.6065977E-013  0.5930194E+02  0.7816164E-02  0.1266605E+00
        -11   -1    0    0    0    0  0.00000000000E+00  0.00000000000E+00  0.45593999997E+02  0.45594000000E+02  0.51100000000E-03 0.  1.
         11   -1    0    0    0    0 -0.00000000000E+00 -0.00000000000E+00 -0.45593999997E+02  0.45594000000E+02  0.51100000000E-03 0. -1.
    9900012    2    1    2    0    0 -0.21553732202E+02  0.14856616143E+02 -0.18205443123E+02  0.59301943888E+02  0.49999999746E+02 0.  0.
        -12    1    1    2    0    0  0.21553732202E+02 -0.14856616143E+02  0.18205443123E+02  0.31886056112E+02  0.00000000000E+00 0.  1.
         11    1    3    3    0    0  0.11412528386E+02  0.35111784473E+01 -0.13927686990E+02  0.18345425681E+02  0.51100000000E-03 0. -1.
        -11    1    3    3    0    0 -0.23275952822E+02  0.11576436582E+02 -0.11934177941E+02  0.28604343500E+02  0.51100000000E-03 0.  1.
        -12    1    3    3    0    0 -0.96903077659E+01 -0.23099888679E+00  0.76564218083E+01  0.12352174707E+02  0.00000000000E+00 0.  1.
</event>
<event>
 7    1  0.6065977E-013  0.5930196E+02  0.7816164E-02  0.1266605E+00
        -11   -1    0    0    0    0  0.00000000000E+00  0.00000000000E+00  0.45593999997E+02  0.45594000000E+02  0.51100000000E-03 0.  1.
         11   -1    0    0    0    0 -0.00000000000E+00 -0.00000000000E+00 -0.45593999997E+02  0.45594000000E+02  0.51100000000E-03 0. -1.
    9900012    2    1    2    0    0 -0.30386784838E+02 -0.83165103347E+01  0.49191993340E+01  0.59301959810E+02  0.50000028783E+02 0.  0.
        -12    1    1    2    0    0  0.30386784838E+02  0.83165103347E+01 -0.49191993340E+01  0.31886040190E+02  0.00000000000E+00 0.  1.
         11    1    3    3    0    0 -0.26004474104E+02 -0.12515378745E+01 -0.13306884036E+02  0.29238197337E+02  0.51100000000E-03 0. -1.
        -11    1    3    3    0    0 -0.10886350114E+02 -0.81736465411E+01  0.19050519804E+02  0.23414598473E+02  0.51100000000E-03 0.  1.
         12    1    3    3    0    0  0.65040393801E+01  0.11086740809E+01 -0.82443643338E+00  0.66491640007E+01  0.00000000000E+00 0. -1.
</event>
<event>
 7    1  0.6065977E-013  0.5930195E+02  0.7816164E-02  0.1266605E+00
        -11   -1    0    0    0    0  0.00000000000E+00  0.00000000000E+00  0.45593999997E+02  0.45594000000E+02  0.51100000000E-03 0.  1.
         11   -1    0    0    0    0 -0.00000000000E+00 -0.00000000000E+00 -0.45593999997E+02  0.45594000000E+02  0.51100000000E-03 0. -1.
    9900012    2    1    2    0    0  0.29865818396E+02  0.62464014496E+01 -0.92593337982E+01  0.59301954433E+02  0.50000018977E+02 0.  0.
        -12    1    1    2    0    0 -0.29865818396E+02 -0.62464014496E+01  0.92593337982E+01  0.31886045567E+02  0.00000000000E+00 0.  1.
         11    1    3    3    0    0 -0.72638212572E+01  0.51486351418E+01 -0.96993034159E+01  0.13166169910E+02  0.51100000000E-03 0. -1.
        -11    1    3    3    0    0  0.40970490235E+02  0.37011464488E+01  0.21430087872E+01  0.41193106730E+02  0.51100000000E-03 0.  1.
        -12    1    3    3    0    0 -0.38408505824E+01 -0.26033801410E+01 -0.17030391695E+01  0.49426777933E+01  0.00000000000E+00 0.  1.
</event>
<event>
 7    1  0.6065977E-013  0.5930194E+02  0.7816164E-02  0.1266605E+00
        -11   -1    0    0    0    0  0.00000000000E+00  0.00000000000E+00  0.45593999997E+02  0.45594000000E+02  0.51100000000E-03 0.  1.
         11   -1    0    0    0    0 -0.00000000000E+00 -0.00000000000E+00 -0.45593999997E+02  0.45594000000E+02  0.51100000000E-03 0. -1.
    9900012    2    1    2    0    0 -0.48999124169E+01 -0.79700531608E+01 -0.30482619775E+02  0.59301937254E+02  0.49999987646E+02 0.  0.
        -12    1    1    2    0    0  0.48999124169E+01  0.79700531608E+01  0.30482619775E+02  0.31886062746E+02  0.00000000000E+00 0.  1.
         11    1    3    3    0    0  0.73979054283E+01 -0.82946062857E+01 -0.27329770362E+02  0.29503319245E+02  0.51100000000E-03 0. -1.
        -11    1    3    3    0    0 -0.20554712646E+02  0.29933465251E+01 -0.37225210508E+01  0.21102452432E+02  0.51100000000E-03 0.  1.
        -12    1    3    3    0    0  0.82568948011E+01 -0.26687934002E+01  0.56967163757E+00  0.86961655771E+01  0.00000000000E+00 0.  1.
</event>
<event>
 7    1  0.6065977E-013  0.5930195E+02  0.7816164E-02  0.1266605E+00
        -11   -1    0    0    0    0  0.00000000000E+00  0.00000000000E+00  0.45593999997E+02  0.45594000000E+02  0.51100000000E-03 0. -1.
         11   -1    0    0    0    0 -0.00000000000E+00 -0.00000000000E+00 -0.45593999997E+02  0.45594000000E+02  0.51100000000E-03 0.  1.
    9900012    2    1    2    0    0  0.26058548479E+02  0.26086563702E+01  0.18189751337E+02  0.59301951474E+02  0.50000013580E+02 0.  0.
        -12    1    1    2    0    0 -0.26058548479E+02 -0.26086563702E+01 -0.18189751337E+02  0.31886048526E+02  0.00000000000E+00 0.  1.
         11    1    3    3    0    0  0.38943724607E+02  0.14566442022E+01  0.19393261155E+02  0.43529691902E+02  0.51100000000E-03 0. -1.
        -11    1    3    3    0    0 -0.58919160347E+00 -0.20979489654E+01 -0.20949722970E+01  0.30228208338E+01  0.51100000000E-03 0.  1.
         12    1    3    3    0    0 -0.12295984524E+02  0.32499611334E+01  0.89146247962E+00  0.12749438738E+02  0.00000000000E+00 0. -1.
</event>
<event>
 7    1  0.6065977E-013  0.5930195E+02  0.7816164E-02  0.1266605E+00
        -11   -1    0    0    0    0  0.00000000000E+00  0.00000000000E+00  0.45593999997E+02  0.45594000000E+02  0.51100000000E-03 0.  1.
         11   -1    0    0    0    0 -0.00000000000E+00 -0.00000000000E+00 -0.45593999997E+02  0.45594000000E+02  0.51100000000E-03 0. -1.
    9900012    2    1    2    0    0 -0.11683834463E+02  0.28371224268E+02 -0.86765185209E+01  0.59301947753E+02  0.50000006795E+02 0.  0.
        -12    1    1    2    0    0  0.11683834463E+02 -0.28371224268E+02  0.86765185209E+01  0.31886052247E+02  0.00000000000E+00 0.  1.
         11    1    3    3    0    0  0.12613558720E+02 -0.65711183347E+01 -0.59599020082E+01  0.15420826565E+02  0.51100000000E-03 0. -1.
        -11    1    3    3    0    0 -0.98746038954E+01  0.77014690098E+01 -0.36490537776E+01  0.13043619924E+02  0.51100000000E-03 0.  1.
         12    1    3    3    0    0 -0.14422789288E+02  0.27240873593E+02  0.93243726479E+00  0.30837501264E+02  0.00000000000E+00 0. -1.
</event>
<event>
 7    1  0.6065977E-013  0.5930195E+02  0.7816164E-02  0.1266605E+00
        -11   -1    0    0    0    0  0.00000000000E+00  0.00000000000E+00  0.45593999997E+02  0.45594000000E+02  0.51100000000E-03 0.  1.
         11   -1    0    0    0    0 -0.00000000000E+00 -0.00000000000E+00 -0.45593999997E+02  0.45594000000E+02  0.51100000000E-03 0. -1.
    9900012    2    1    2    0    0  0.14272556993E+02  0.22878111722E+02 -0.17017819821E+02  0.59301951788E+02  0.50000014154E+02 0.  0.
        -12    1    1    2    0    0 -0.14272556993E+02 -0.22878111722E+02  0.17017819821E+02  0.31886048212E+02  0.00000000000E+00 0.  1.
         11    1    3    3    0    0 -0.11743481227E+02  0.48788489801E+00 -0.30570230867E+01  0.12144660284E+02  0.51100000000E-03 0. -1.
        -11    1    3    3    0    0  0.15943526432E+02 -0.38787109282E+01 -0.85695606519E+01  0.18511558648E+02  0.51100000000E-03 0.  1.
         12    1    3    3    0    0  0.10072511788E+02  0.26268937752E+02 -0.53912360825E+01  0.28645732856E+02  0.00000000000E+00 0. -1.
</event>
<event>
 7    1  0.6065977E-013  0.5930195E+02  0.7816164E-02  0.1266605E+00
        -11   -1    0    0    0    0  0.00000000000E+00  0.00000000000E+00  0.45593999997E+02  0.45594000000E+02  0.51100000000E-03 0. -1.
         11   -1    0    0    0    0 -0.00000000000E+00 -0.00000000000E+00 -0.45593999997E+02  0.45594000000E+02  0.51100000000E-03 0.  1.
    9900012    2    1    2    0    0  0.24335482918E+02 -0.45905307089E+01 -0.20085605171E+02  0.59301949192E+02  0.50000009418E+02 0.  0.
        -12    1    1    2    0    0 -0.24335482918E+02  0.45905307089E+01  0.20085605171E+02  0.31886050808E+02  0.00000000000E+00 0.  1.
         11    1    3    3    0    0  0.31842280216E+02 -0.11142361183E+01 -0.15066239857E+00  0.31862125335E+02  0.51100000000E-03 0. -1.
        -11    1    3    3    0    0  0.46487632126E+01  0.17794860561E+01 -0.89185734120E+01  0.10213643914E+02  0.51100000000E-03 0.  1.
         12    1    3    3    0    0 -0.12155560511E+02 -0.52557806468E+01 -0.11016369361E+02  0.17226179943E+02  0.00000000000E+00 0. -1.
</event>
<event>
 7    1  0.6065977E-013  0.5930192E+02  0.7816164E-02  0.1266605E+00
        -11   -1    0    0    0    0  0.00000000000E+00  0.00000000000E+00  0.45593999997E+02  0.45594000000E+02  0.51100000000E-03 0. -1.
         11   -1    0    0    0    0 -0.00000000000E+00 -0.00000000000E+00 -0.45593999997E+02  0.45594000000E+02  0.51100000000E-03 0.  1.
    9900012    2    1    2    0    0  0.10447049947E+02 -0.82482357884E+01  0.28974947848E+02  0.59301923901E+02  0.49999963294E+02 0.  0.
        -12    1    1    2    0    0 -0.10447049947E+02  0.82482357884E+01 -0.28974947848E+02  0.31886076099E+02  0.00000000000E+00 0.  1.
         11    1    3    3    0    0 -0.73852883530E+01 -0.85257067591E+01  0.20876617948E+02  0.23728955666E+02  0.51100000000E-03 0. -1.
        -11    1    3    3    0    0  0.17753566605E+02  0.12691913259E+02  0.25408046479E+01  0.21971105523E+02  0.51100000000E-03 0.  1.
        -12    1    3    3    0    0  0.78771695557E-01 -0.12414442289E+02  0.55575252517E+01  0.13601862712E+02  0.00000000000E+00 0.  1.
</event>
<event>
 7    1  0.6065977E-013  0.5930197E+02  0.7816164E-02  0.1266605E+00
        -11   -1    0    0    0    0  0.00000000000E+00  0.00000000000E+00  0.45593999997E+02  0.45594000000E+02  0.51100000000E-03 0.  1.
         11   -1    0    0    0    0 -0.00000000000E+00 -0.00000000000E+00 -0.45593999997E+02  0.45594000000E+02  0.51100000000E-03 0. -1.
    9900012    2    1    2    0    0 -0.77562664036E+01  0.14903389666E+02 -0.27100699676E+02  0.59301974613E+02  0.50000055780E+02 0.  0.
        -12    1    1    2    0    0  0.77562664036E+01 -0.14903389666E+02  0.27100699676E+02  0.31886025387E+02  0.00000000000E+00 0.  1.
         11    1    3    3    0    0  0.63348463157E+01 -0.10166468033E+02 -0.22915903856E+02  0.25857803462E+02  0.51100000000E-03 0. -1.
        -11    1    3    3    0    0 -0.16343435302E+00  0.13019504342E+02  0.35082134662E+01  0.13484871749E+02  0.51100000000E-03 0.  1.
         12    1    3    3    0    0 -0.13927678366E+02  0.12050353357E+02 -0.76930092866E+01  0.19959299401E+02  0.00000000000E+00 0. -1.
</event>
<event>
 7    1  0.6065977E-013  0.5930195E+02  0.7816164E-02  0.1266605E+00
        -11   -1    0    0    0    0  0.00000000000E+00  0.00000000000E+00  0.45593999997E+02  0.45594000000E+02  0.51100000000E-03 0.  1.
         11   -1    0    0    0    0 -0.00000000000E+00 -0.00000000000E+00 -0.45593999997E+02  0.45594000000E+02  0.51100000000E-03 0. -1.
    9900012    2    1    2    0    0 -0.27700313091E+02 -0.15792793654E+02 -0.16937429969E-01  0.59301953465E+02  0.50000017212E+02 0.  0.
        -12    1    1    2    0    0  0.27700313091E+02  0.15792793654E+02  0.16937429969E-01  0.31886046535E+02  0.00000000000E+00 0.  1.
         11    1    3    3    0    0 -0.34484359959E+02 -0.12491196148E+02 -0.98067732179E+00  0.36690091186E+02  0.51100000000E-03 0. -1.
        -11    1    3    3    0    0  0.71796530165E+01 -0.69321311741E+01 -0.80913678205E+01  0.12848038509E+02  0.51100000000E-03 0.  1.
         12    1    3    3    0    0 -0.39560614867E+00  0.36305336682E+01  0.90551077124E+01  0.97638237706E+01  0.00000000000E+00 0. -1.
</event>
<event>
 7    1  0.6065977E-013  0.5930200E+02  0.7816164E-02  0.1266605E+00
        -11   -1    0    0    0    0  0.00000000000E+00  0.00000000000E+00  0.45593999997E+02  0.45594000000E+02  0.51100000000E-03 0.  1.
         11   -1    0    0    0    0 -0.00000000000E+00 -0.00000000000E+00 -0.45593999997E+02  0.45594000000E+02  0.51100000000E-03 0. -1.
    9900012    2    1    2    0    0  0.40333706649E+01 -0.20359394054E+02 -0.24206276842E+02  0.59302002387E+02  0.50000106434E+02 0.  0.
        -12    1    1    2    0    0 -0.40333706649E+01  0.20359394054E+02  0.24206276842E+02  0.31885997613E+02  0.00000000000E+00 0.  1.
         11    1    3    3    0    0 -0.56666643274E+01  0.14068808282E+02 -0.84639168168E+01  0.17368947556E+02  0.51100000000E-03 0. -1.
        -11    1    3    3    0    0 -0.60037842856E+00 -0.18442760752E+02 -0.13330730978E+02  0.22764100401E+02  0.51100000000E-03 0.  1.
         12    1    3    3    0    0  0.10300413421E+02 -0.15985441584E+02 -0.24116290479E+01  0.19168954430E+02  0.00000000000E+00 0. -1.
</event>
<event>
 7    1  0.6065977E-013  0.5930193E+02  0.7816164E-02  0.1266605E+00
        -11   -1    0    0    0    0  0.00000000000E+00  0.00000000000E+00  0.45593999997E+02  0.45594000000E+02  0.51100000000E-03 0.  1.
         11   -1    0    0    0    0 -0.00000000000E+00 -0.00000000000E+00 -0.45593999997E+02  0.45594000000E+02  0.51100000000E-03 0. -1.
    9900012    2    1    2    0    0 -0.16506410193E+02  0.22803714378E+02 -0.14974986382E+02  0.59301934328E+02  0.49999982310E+02 0.  0.
        -12    1    1    2    0    0  0.16506410193E+02 -0.22803714378E+02  0.14974986382E+02  0.31886065672E+02  0.00000000000E+00 0.  1.
         11    1    3    3    0    0 -0.13762279759E+02 -0.88720095914E+01 -0.11418514291E+02  0.19962348740E+02  0.51100000000E-03 0. -1.
        -11    1    3    3    0    0 -0.10122346980E+02  0.14245633459E+02  0.55494822333E+01  0.18335668364E+02  0.51100000000E-03 0.  1.
         12    1    3    3    0    0  0.73782165457E+01  0.17430090510E+02 -0.91059543240E+01  0.21003917224E+02  0.00000000000E+00 0. -1.
</event>
<event>
 7    1  0.6065977E-013  0.5930162E+02  0.7816164E-02  0.1266606E+00
        -11   -1    0    0    0    0  0.00000000000E+00  0.00000000000E+00  0.45593999997E+02  0.45594000000E+02  0.51100000000E-03 0.  1.
         11   -1    0    0    0    0 -0.00000000000E+00 -0.00000000000E+00 -0.45593999997E+02  0.45594000000E+02  0.51100000000E-03 0. -1.
    9900012    2    1    2    0    0 -0.31574546164E+02  0.12060725941E+01 -0.42819308030E+01  0.59301615633E+02  0.49999401084E+02 0.  0.
        -12    1    1    2    0    0  0.31574546164E+02 -0.12060725941E+01  0.42819308030E+01  0.31886384367E+02  0.00000000000E+00 0.  1.
         11    1    3    3    0    0 -0.16264649511E+02  0.17335798804E+02 -0.19226590385E+02  0.30573362949E+02  0.51100000000E-03 0. -1.
        -11    1    3    3    0    0 -0.18933999351E+01 -0.89963998367E+01  0.41350534932E+01  0.10080617094E+02  0.51100000000E-03 0.  1.
         12    1    3    3    0    0 -0.13416496718E+02 -0.71333263735E+01  0.10809606089E+02  0.18647635591E+02  0.00000000000E+00 0. -1.
</event>
<event>
 7    1  0.6065977E-013  0.5930195E+02  0.7816164E-02  0.1266605E+00
        -11   -1    0    0    0    0  0.00000000000E+00  0.00000000000E+00  0.45593999997E+02  0.45594000000E+02  0.51100000000E-03 0.  1.
         11   -1    0    0    0    0 -0.00000000000E+00 -0.00000000000E+00 -0.45593999997E+02  0.45594000000E+02  0.51100000000E-03 0. -1.
    9900012    2    1    2    0    0 -0.53034520408E+01 -0.27487208254E+02 -0.15265876194E+02  0.59301949804E+02  0.50000010534E+02 0.  0.
        -12    1    1    2    0    0  0.53034520408E+01  0.27487208254E+02  0.15265876194E+02  0.31886050196E+02  0.00000000000E+00 0.  1.
         11    1    3    3    0    0  0.99880602460E+01 -0.14534111103E+02 -0.12998774003E+02  0.21908214416E+02  0.51100000000E-03 0. -1.
        -11    1    3    3    0    0 -0.19365323486E+02 -0.13424542594E+02  0.91383681011E+01  0.25273382626E+02  0.51100000000E-03 0.  1.
        -12    1    3    3    0    0  0.40738111992E+01  0.47144544284E+00 -0.11405470292E+02  0.12120352762E+02  0.00000000000E+00 0.  1.
</event>
<event>
 7    1  0.6065977E-013  0.5930193E+02  0.7816164E-02  0.1266605E+00
        -11   -1    0    0    0    0  0.00000000000E+00  0.00000000000E+00  0.45593999997E+02  0.45594000000E+02  0.51100000000E-03 0.  1.
         11   -1    0    0    0    0 -0.00000000000E+00 -0.00000000000E+00 -0.45593999997E+02  0.45594000000E+02  0.51100000000E-03 0. -1.
    9900012    2    1    2    0    0 -0.96251048387E+01 -0.27041559036E+02 -0.13886439531E+02  0.59301925279E+02  0.49999965807E+02 0.  0.
        -12    1    1    2    0    0  0.96251048387E+01  0.27041559036E+02  0.13886439531E+02  0.31886074721E+02  0.00000000000E+00 0.  1.
         11    1    3    3    0    0  0.62187772834E+01 -0.11582915274E+02 -0.22085037874E+02  0.25701867934E+02  0.51100000000E-03 0. -1.
        -11    1    3    3    0    0  0.34401494415E+01 -0.47973425889E+01  0.98712341904E+01  0.11501755901E+02  0.51100000000E-03 0.  1.
         12    1    3    3    0    0 -0.19284031564E+02 -0.10661301173E+02 -0.16726358472E+01  0.22098301444E+02  0.00000000000E+00 0. -1.
</event>
<event>
 7    1  0.6065977E-013  0.5930194E+02  0.7816164E-02  0.1266605E+00
        -11   -1    0    0    0    0  0.00000000000E+00  0.00000000000E+00  0.45593999997E+02  0.45594000000E+02  0.51100000000E-03 0. -1.
         11   -1    0    0    0    0 -0.00000000000E+00 -0.00000000000E+00 -0.45593999997E+02  0.45594000000E+02  0.51100000000E-03 0.  1.
    9900012    2    1    2    0    0  0.83370930033E+01 -0.11460813451E+02  0.28563323335E+02  0.59301940277E+02  0.49999993160E+02 0.  0.
        -12    1    1    2    0    0 -0.83370930033E+01  0.11460813451E+02 -0.28563323335E+02  0.31886059723E+02  0.00000000000E+00 0.  1.
         11    1    3    3    0    0 -0.16749126598E+02 -0.11440431379E+02  0.23695456322E+02  0.31191206493E+02  0.51100000000E-03 0. -1.
        -11    1    3    3    0    0  0.16453178272E+02 -0.21930952209E+01  0.83143458967E+01  0.18564619303E+02  0.51100000000E-03 0.  1.
         12    1    3    3    0    0  0.86330413289E+01  0.21727131489E+01 -0.34464788836E+01  0.95461144823E+01  0.00000000000E+00 0. -1.
</event>
<event>
 7    1  0.6065977E-013  0.5930193E+02  0.7816164E-02  0.1266605E+00
        -11   -1    0    0    0    0  0.00000000000E+00  0.00000000000E+00  0.45593999997E+02  0.45594000000E+02  0.51100000000E-03 0. -1.
         11   -1    0    0    0    0 -0.00000000000E+00 -0.00000000000E+00 -0.45593999997E+02  0.45594000000E+02  0.51100000000E-03 0.  1.
    9900012    2    1    2    0    0 -0.31603695307E+02  0.36480752615E+01  0.21492851509E+01  0.59301930364E+02  0.49999975081E+02 0.  0.
        -12    1    1    2    0    0  0.31603695307E+02 -0.36480752615E+01 -0.21492851509E+01  0.31886069636E+02  0.00000000000E+00 0.  1.
         11    1    3    3    0    0 -0.15235423189E+02 -0.19260297356E+02  0.77769059136E+01  0.25759608690E+02  0.51100000000E-03 0.  1.
        -11    1    3    3    0    0 -0.15438407068E+02  0.18272904839E+02  0.25903323129E+01  0.24061448124E+02  0.51100000000E-03 0. -1.
        -12    1    3    3    0    0 -0.92986504942E+00  0.46354677787E+01 -0.82179530756E+01  0.94808735510E+01  0.00000000000E+00 0.  1.
</event>
<event>
 7    1  0.6065977E-013  0.5930195E+02  0.7816164E-02  0.1266605E+00
        -11   -1    0    0    0    0  0.00000000000E+00  0.00000000000E+00  0.45593999997E+02  0.45594000000E+02  0.51100000000E-03 0.  1.
         11   -1    0    0    0    0 -0.00000000000E+00 -0.00000000000E+00 -0.45593999997E+02  0.45594000000E+02  0.51100000000E-03 0. -1.
    9900012    2    1    2    0    0 -0.13556227833E+01  0.31263901199E+02 -0.61196949982E+01  0.59301954491E+02  0.50000019083E+02 0.  0.
        -12    1    1    2    0    0  0.13556227833E+01 -0.31263901199E+02  0.61196949982E+01  0.31886045509E+02  0.00000000000E+00 0.  1.
         11    1    3    3    0    0 -0.35425301716E+01  0.37440026954E+02 -0.97481378007E+01  0.38850113631E+02  0.51100000000E-03 0. -1.
        -11    1    3    3    0    0  0.86859938565E+01 -0.46303055586E+00  0.69998579343E+01  0.11165074918E+02  0.51100000000E-03 0.  1.
        -12    1    3    3    0    0 -0.64990864682E+01 -0.57130951987E+01 -0.33714151319E+01  0.92867659421E+01  0.00000000000E+00 0.  1.
</event>
<event>
 7    1  0.6065977E-013  0.5930194E+02  0.7816164E-02  0.1266605E+00
        -11   -1    0    0    0    0  0.00000000000E+00  0.00000000000E+00  0.45593999997E+02  0.45594000000E+02  0.51100000000E-03 0. -1.
         11   -1    0    0    0    0 -0.00000000000E+00 -0.00000000000E+00 -0.45593999997E+02  0.45594000000E+02  0.51100000000E-03 0.  1.
    9900012    2    1    2    0    0  0.24290463722E+02  0.15497015656E+02  0.13657836464E+02  0.59301943189E+02  0.49999998470E+02 0.  0.
        -12    1    1    2    0    0 -0.24290463722E+02 -0.15497015656E+02 -0.13657836464E+02  0.31886056811E+02  0.00000000000E+00 0.  1.
         11    1    3    3    0    0  0.18662849425E+02  0.10715715788E+02  0.19211960505E+02  0.28848361136E+02  0.51100000000E-03 0. -1.
        -11    1    3    3    0    0 -0.23105458119E+01  0.72685533393E+01 -0.15627514348E+02  0.17389355784E+02  0.51100000000E-03 0.  1.
        -12    1    3    3    0    0  0.79381601092E+01 -0.24872534714E+01  0.10073390307E+02  0.13064226270E+02  0.00000000000E+00 0.  1.
</event>
<event>
 7    1  0.6065977E-013  0.5930196E+02  0.7816164E-02  0.1266605E+00
        -11   -1    0    0    0    0  0.00000000000E+00  0.00000000000E+00  0.45593999997E+02  0.45594000000E+02  0.51100000000E-03 0. -1.
         11   -1    0    0    0    0 -0.00000000000E+00 -0.00000000000E+00 -0.45593999997E+02  0.45594000000E+02  0.51100000000E-03 0.  1.
    9900012    2    1    2    0    0  0.65235184866E+01  0.20396693970E+02  0.23624947996E+02  0.59301959384E+02  0.50000028007E+02 0.  0.
        -12    1    1    2    0    0 -0.65235184866E+01 -0.20396693970E+02 -0.23624947996E+02  0.31886040616E+02  0.00000000000E+00 0.  1.
         11    1    3    3    0    0  0.15056924600E+02  0.73113758433E+01  0.15504027570E+02  0.22815390996E+02  0.51100000000E-03 0. -1.
        -11    1    3    3    0    0 -0.17436868714E+02  0.21002355326E+01  0.12643757774E+02  0.21640702178E+02  0.51100000000E-03 0.  1.
        -12    1    3    3    0    0  0.89034626003E+01  0.10985082594E+02 -0.45228373486E+01  0.14845866211E+02  0.00000000000E+00 0.  1.
</event>
<event>
 7    1  0.6065977E-013  0.5930194E+02  0.7816164E-02  0.1266605E+00
        -11   -1    0    0    0    0  0.00000000000E+00  0.00000000000E+00  0.45593999997E+02  0.45594000000E+02  0.51100000000E-03 0.  1.
         11   -1    0    0    0    0 -0.00000000000E+00 -0.00000000000E+00 -0.45593999997E+02  0.45594000000E+02  0.51100000000E-03 0. -1.
    9900012    2    1    2    0    0 -0.14723760284E+02  0.82795607087E+01 -0.27044043565E+02  0.59301944509E+02  0.50000000879E+02 0.  0.
        -12    1    1    2    0    0  0.14723760284E+02 -0.82795607087E+01  0.27044043565E+02  0.31886055491E+02  0.00000000000E+00 0.  1.
         11    1    3    3    0    0 -0.86926701896E+01  0.18000186763E+02 -0.17823304598E+02  0.26781326061E+02  0.51100000000E-03 0. -1.
        -11    1    3    3    0    0 -0.14107196785E+02 -0.10572291734E+02  0.29650792462E+01  0.17876746036E+02  0.51100000000E-03 0.  1.
         12    1    3    3    0    0  0.80761066907E+01  0.85166567966E+00 -0.12185818213E+02  0.14643872412E+02  0.00000000000E+00 0. -1.
</event>
<event>
 7    1  0.6065977E-013  0.5930193E+02  0.7816164E-02  0.1266605E+00
        -11   -1    0    0    0    0  0.00000000000E+00  0.00000000000E+00  0.45593999997E+02  0.45594000000E+02  0.51100000000E-03 0.  1.
         11   -1    0    0    0    0 -0.00000000000E+00 -0.00000000000E+00 -0.45593999997E+02  0.45594000000E+02  0.51100000000E-03 0. -1.
    9900012    2    1    2    0    0  0.97643867282E+01  0.27562896435E+02  0.12714743947E+02  0.59301933737E+02  0.49999981233E+02 0.  0.
        -12    1    1    2    0    0 -0.97643867282E+01 -0.27562896435E+02 -0.12714743947E+02  0.31886066263E+02  0.00000000000E+00 0.  1.
         11    1    3    3    0    0  0.15496854632E+02  0.35952749222E+02  0.93399192838E+01  0.40249059276E+02  0.51100000000E-03 0. -1.
        -11    1    3    3    0    0 -0.70515277954E+00 -0.74852020645E+01  0.88181502128E+01  0.11588151873E+02  0.51100000000E-03 0.  1.
        -12    1    3    3    0    0 -0.50273151245E+01 -0.90465072229E+00 -0.54433255493E+01  0.74647225887E+01  0.00000000000E+00 0.  1.
</event>
<event>
 7    1  0.6065977E-013  0.5930196E+02  0.7816164E-02  0.1266605E+00
        -11   -1    0    0    0    0  0.00000000000E+00  0.00000000000E+00  0.45593999997E+02  0.45594000000E+02  0.51100000000E-03 0.  1.
         11   -1    0    0    0    0 -0.00000000000E+00 -0.00000000000E+00 -0.45593999997E+02  0.45594000000E+02  0.51100000000E-03 0. -1.
    9900012    2    1    2    0    0  0.17447689315E+01 -0.16832110049E+02 -0.27025091221E+02  0.59301957554E+02  0.50000024670E+02 0.  0.
        -12    1    1    2    0    0 -0.17447689315E+01  0.16832110049E+02  0.27025091221E+02  0.31886042446E+02  0.00000000000E+00 0.  1.
         11    1    3    3    0    0 -0.16666539818E+02 -0.10399707798E+02 -0.15176209537E+02  0.24824278599E+02  0.51100000000E-03 0.  1.
        -11    1    3    3    0    0  0.11422438029E+02 -0.14967537468E+02 -0.77091440689E+00  0.18843926811E+02  0.51100000000E-03 0. -1.
         12    1    3    3    0    0  0.69888707208E+01  0.85351352168E+01 -0.11077967277E+02  0.15633752144E+02  0.00000000000E+00 0. -1.
</event>
<event>
 7    1  0.6065977E-013  0.5930192E+02  0.7816164E-02  0.1266605E+00
        -11   -1    0    0    0    0  0.00000000000E+00  0.00000000000E+00  0.45593999997E+02  0.45594000000E+02  0.51100000000E-03 0.  1.
         11   -1    0    0    0    0 -0.00000000000E+00 -0.00000000000E+00 -0.45593999997E+02  0.45594000000E+02  0.51100000000E-03 0. -1.
    9900012    2    1    2    0    0 -0.38165657017E+01 -0.28043658708E+02 -0.14687035915E+02  0.59301921667E+02  0.49999959219E+02 0.  0.
        -12    1    1    2    0    0  0.38165657017E+01  0.28043658708E+02  0.14687035915E+02  0.31886078333E+02  0.00000000000E+00 0.  1.
         11    1    3    3    0    0 -0.24393549867E+02 -0.22623367631E+02 -0.10829730354E+02  0.34987784981E+02  0.51100000000E-03 0. -1.
        -11    1    3    3    0    0  0.18668478630E+02 -0.74984997264E+01 -0.57413615128E+01  0.20921348541E+02  0.51100000000E-03 0.  1.
         12    1    3    3    0    0  0.19085055357E+01  0.20782086487E+01  0.18840559521E+01  0.33927881452E+01  0.00000000000E+00 0. -1.
</event>
<event>
 7    1  0.6065977E-013  0.5930197E+02  0.7816164E-02  0.1266605E+00
        -11   -1    0    0    0    0  0.00000000000E+00  0.00000000000E+00  0.45593999997E+02  0.45594000000E+02  0.51100000000E-03 0. -1.
         11   -1    0    0    0    0 -0.00000000000E+00 -0.00000000000E+00 -0.45593999997E+02  0.45594000000E+02  0.51100000000E-03 0.  1.
    9900012    2    1    2    0    0 -0.19930464525E+02 -0.48380254741E+01  0.24414928067E+02  0.59301974547E+02  0.50000055659E+02 0.  0.
        -12    1    1    2    0    0  0.19930464525E+02  0.48380254741E+01 -0.24414928067E+02  0.31886025453E+02  0.00000000000E+00 0.  1.
         11    1    3    3    0    0  0.45835469882E+01  0.12294751897E+02  0.44210898430E+01  0.13846149749E+02  0.51100000000E-03 0. -1.
        -11    1    3    3    0    0 -0.17612350248E+02 -0.15017282015E+02 -0.10893376440E+01  0.23171109105E+02  0.51100000000E-03 0.  1.
         12    1    3    3    0    0 -0.69016612654E+01 -0.21154953561E+01  0.21083175868E+02  0.22284715693E+02  0.00000000000E+00 0. -1.
</event>
<event>
 7    1  0.6065977E-013  0.5930191E+02  0.7816164E-02  0.1266605E+00
        -11   -1    0    0    0    0  0.00000000000E+00  0.00000000000E+00  0.45593999997E+02  0.45594000000E+02  0.51100000000E-03 0. -1.
         11   -1    0    0    0    0 -0.00000000000E+00 -0.00000000000E+00 -0.45593999997E+02  0.45594000000E+02  0.51100000000E-03 0.  1.
    9900012    2    1    2    0    0 -0.31006521600E+02  0.52156402943E+01  0.53024143231E+01  0.59301907686E+02  0.49999933720E+02 0.  0.
        -12    1    1    2    0    0  0.31006521600E+02 -0.52156402943E+01 -0.53024143231E+01  0.31886092314E+02  0.00000000000E+00 0.  1.
         11    1    3    3    0    0 -0.26965474718E+02 -0.86008711902E+01 -0.33532862512E+01  0.28501865569E+02  0.51100000000E-03 0. -1.
        -11    1    3    3    0    0  0.88386678701E+01 -0.12217725681E+01  0.61620844858E+01  0.10843710776E+02  0.51100000000E-03 0.  1.
         12    1    3    3    0    0 -0.12879714753E+02  0.15038284053E+02  0.24936160885E+01  0.19956331340E+02  0.00000000000E+00 0. -1.
</event>
<event>
 7    1  0.6065977E-013  0.5930194E+02  0.7816164E-02  0.1266605E+00
        -11   -1    0    0    0    0  0.00000000000E+00  0.00000000000E+00  0.45593999997E+02  0.45594000000E+02  0.51100000000E-03 0. -1.
         11   -1    0    0    0    0 -0.00000000000E+00 -0.00000000000E+00 -0.45593999997E+02  0.45594000000E+02  0.51100000000E-03 0.  1.
    9900012    2    1    2    0    0  0.15799363156E+02 -0.26399791669E+02 -0.83756625070E+01  0.59301943506E+02  0.49999999048E+02 0.  0.
        -12    1    1    2    0    0 -0.15799363156E+02  0.26399791669E+02  0.83756625070E+01  0.31886056494E+02  0.00000000000E+00 0.  1.
         11    1    3    3    0    0  0.14508514190E+01 -0.59550853801E+00  0.14312380139E+02  0.14398049373E+02  0.51100000000E-03 0. -1.
        -11    1    3    3    0    0  0.29753849326E+01 -0.24585977770E+02 -0.74717630873E+01  0.25867942754E+02  0.51100000000E-03 0.  1.
         12    1    3    3    0    0  0.11373126805E+02 -0.12183053610E+01 -0.15216279559E+02  0.19035951378E+02  0.00000000000E+00 0. -1.
</event>
<event>
 7    1  0.6065977E-013  0.5930194E+02  0.7816164E-02  0.1266605E+00
        -11   -1    0    0    0    0  0.00000000000E+00  0.00000000000E+00  0.45593999997E+02  0.45594000000E+02  0.51100000000E-03 0.  1.
         11   -1    0    0    0    0 -0.00000000000E+00 -0.00000000000E+00 -0.45593999997E+02  0.45594000000E+02  0.51100000000E-03 0. -1.
    9900012    2    1    2    0    0 -0.35276961380E+00  0.30202631745E+02 -0.10217506819E+02  0.59301939467E+02  0.49999991682E+02 0.  0.
        -12    1    1    2    0    0  0.35276961380E+00 -0.30202631745E+02  0.10217506819E+02  0.31886060533E+02  0.00000000000E+00 0.  1.
         11    1    3    3    0    0 -0.14455466428E+02  0.31979992743E+02 -0.37830924817E+01  0.35298615192E+02  0.51100000000E-03 0. -1.
        -11    1    3    3    0    0  0.13434365640E+01 -0.83093654048E+01 -0.44841222776E+01  0.95371761068E+01  0.51100000000E-03 0.  1.
        -12    1    3    3    0    0  0.12759260250E+02  0.65320044065E+01 -0.19502920596E+01  0.14466148168E+02  0.00000000000E+00 0.  1.
</event>
<event>
 7    1  0.6065977E-013  0.5930200E+02  0.7816164E-02  0.1266605E+00
        -11   -1    0    0    0    0  0.00000000000E+00  0.00000000000E+00  0.45593999997E+02  0.45594000000E+02  0.51100000000E-03 0. -1.
         11   -1    0    0    0    0 -0.00000000000E+00 -0.00000000000E+00 -0.45593999997E+02  0.45594000000E+02  0.51100000000E-03 0.  1.
    9900012    2    1    2    0    0  0.19451511245E+02 -0.17667841929E+02  0.18061096369E+02  0.59301997895E+02  0.50000098242E+02 0.  0.
        -12    1    1    2    0    0 -0.19451511245E+02  0.17667841929E+02 -0.18061096369E+02  0.31886002105E+02  0.00000000000E+00 0.  1.
         11    1    3    3    0    0  0.17994222116E+02 -0.19800306725E+02 -0.41275214966E+01  0.27071767765E+02  0.51100000000E-03 0. -1.
        -11    1    3    3    0    0  0.57652368164E+01  0.80622607990E+01  0.22814129577E+02  0.24874133420E+02  0.51100000000E-03 0.  1.
         12    1    3    3    0    0 -0.43079476869E+01 -0.59297960034E+01 -0.62551171201E+00  0.73560967107E+01  0.00000000000E+00 0. -1.
</event>
<event>
 7    1  0.6065977E-013  0.5930195E+02  0.7816164E-02  0.1266605E+00
        -11   -1    0    0    0    0  0.00000000000E+00  0.00000000000E+00  0.45593999997E+02  0.45594000000E+02  0.51100000000E-03 0.  1.
         11   -1    0    0    0    0 -0.00000000000E+00 -0.00000000000E+00 -0.45593999997E+02  0.45594000000E+02  0.51100000000E-03 0. -1.
    9900012    2    1    2    0    0 -0.24257627810E+02 -0.14391756277E+02 -0.14871609185E+02  0.59301954220E+02  0.50000018589E+02 0.  0.
        -12    1    1    2    0    0  0.24257627810E+02  0.14391756277E+02  0.14871609185E+02  0.31886045780E+02  0.00000000000E+00 0.  1.
         11    1    3    3    0    0  0.80228055783E+01 -0.18790239955E+00 -0.11153921743E+00  0.80257808292E+01  0.51100000000E-03 0.  1.
        -11    1    3    3    0    0 -0.20611596799E+02 -0.21521996565E+02  0.16575088736E+01  0.29845964462E+02  0.51100000000E-03 0. -1.
        -12    1    3    3    0    0 -0.11668836589E+02  0.73181426874E+01 -0.16417578841E+02  0.21430208929E+02  0.00000000000E+00 0.  1.
</event>
<event>
 7    1  0.6065977E-013  0.5930195E+02  0.7816164E-02  0.1266605E+00
        -11   -1    0    0    0    0  0.00000000000E+00  0.00000000000E+00  0.45593999997E+02  0.45594000000E+02  0.51100000000E-03 0.  1.
         11   -1    0    0    0    0 -0.00000000000E+00 -0.00000000000E+00 -0.45593999997E+02  0.45594000000E+02  0.51100000000E-03 0. -1.
    9900012    2    1    2    0    0 -0.19481814312E+02 -0.17047632637E+02 -0.18616053446E+02  0.59301947982E+02  0.50000007211E+02 0.  0.
        -12    1    1    2    0    0  0.19481814312E+02  0.17047632637E+02  0.18616053446E+02  0.31886052018E+02  0.00000000000E+00 0.  1.
         11    1    3    3    0    0 -0.16783271233E+02 -0.48663376959E+01 -0.24560782614E+02  0.30142851204E+02  0.51100000000E-03 0. -1.
        -11    1    3    3    0    0 -0.55782870165E+00 -0.17625586884E+02 -0.35677705725E+01  0.17991705672E+02  0.51100000000E-03 0.  1.
         12    1    3    3    0    0 -0.21407143767E+01  0.54442919428E+01  0.95124997403E+01  0.11167391106E+02  0.00000000000E+00 0. -1.
</event>
<event>
 7    1  0.6065977E-013  0.5930195E+02  0.7816164E-02  0.1266605E+00
        -11   -1    0    0    0    0  0.00000000000E+00  0.00000000000E+00  0.45593999997E+02  0.45594000000E+02  0.51100000000E-03 0.  1.
         11   -1    0    0    0    0 -0.00000000000E+00 -0.00000000000E+00 -0.45593999997E+02  0.45594000000E+02  0.51100000000E-03 0. -1.
    9900012    2    1    2    0    0 -0.10715726412E+01  0.31237194047E+02 -0.63094971747E+01  0.59301947963E+02  0.50000007178E+02 0.  0.
        -12    1    1    2    0    0  0.10715726412E+01 -0.31237194047E+02  0.63094971747E+01  0.31886052037E+02  0.00000000000E+00 0.  1.
         11    1    3    3    0    0 -0.17939595073E+02  0.88701115864E+01  0.17798359045E+01  0.20091684027E+02  0.51100000000E-03 0.  1.
        -11    1    3    3    0    0  0.29657142686E+01  0.43865755052E+01 -0.14630719833E+02  0.15559417369E+02  0.51100000000E-03 0. -1.
        -12    1    3    3    0    0  0.13902308163E+02  0.17980506956E+02  0.65413867537E+01  0.23650846567E+02  0.00000000000E+00 0.  1.
</event>
<event>
 7    1  0.6065977E-013  0.5930193E+02  0.7816164E-02  0.1266605E+00
        -11   -1    0    0    0    0  0.00000000000E+00  0.00000000000E+00  0.45593999997E+02  0.45594000000E+02  0.51100000000E-03 0.  1.
         11   -1    0    0    0    0 -0.00000000000E+00 -0.00000000000E+00 -0.45593999997E+02  0.45594000000E+02  0.51100000000E-03 0. -1.
    9900012    2    1    2    0    0 -0.24743482707E+02 -0.38087222893E+01  0.19747789159E+02  0.59301929709E+02  0.49999973886E+02 0.  0.
        -12    1    1    2    0    0  0.24743482707E+02  0.38087222893E+01 -0.19747789159E+02  0.31886070291E+02  0.00000000000E+00 0.  1.
         11    1    3    3    0    0 -0.17353864457E+02  0.66185078642E+01  0.31436010610E+02  0.36512792570E+02  0.51100000000E-03 0.  1.
        -11    1    3    3    0    0 -0.49938558159E+00 -0.86713817750E+01 -0.12924597574E+02  0.15572009201E+02  0.51100000000E-03 0. -1.
        -12    1    3    3    0    0 -0.68902326683E+01 -0.17558483786E+01  0.12363761233E+01  0.72171279377E+01  0.00000000000E+00 0.  1.
</event>
<event>
 7    1  0.6065977E-013  0.5930192E+02  0.7816164E-02  0.1266605E+00
        -11   -1    0    0    0    0  0.00000000000E+00  0.00000000000E+00  0.45593999997E+02  0.45594000000E+02  0.51100000000E-03 0.  1.
         11   -1    0    0    0    0 -0.00000000000E+00 -0.00000000000E+00 -0.45593999997E+02  0.45594000000E+02  0.51100000000E-03 0. -1.
    9900012    2    1    2    0    0  0.20782821784E+02 -0.80560886320E+00 -0.24169135174E+02  0.59301924951E+02  0.49999965209E+02 0.  0.
        -12    1    1    2    0    0 -0.20782821784E+02  0.80560886320E+00  0.24169135174E+02  0.31886075049E+02  0.00000000000E+00 0.  1.
         11    1    3    3    0    0 -0.20201009814E+01 -0.90821963399E+01  0.53373485015E+00  0.93194405134E+01  0.51100000000E-03 0. -1.
        -11    1    3    3    0    0  0.22589075736E+02 -0.85733516277E+00 -0.31374178468E+02  0.38669632026E+02  0.51100000000E-03 0.  1.
        -12    1    3    3    0    0  0.21384702896E+00  0.91339226395E+01  0.66713084440E+01  0.11312852412E+02  0.00000000000E+00 0.  1.
</event>
<event>
 7    1  0.6065977E-013  0.5930188E+02  0.7816164E-02  0.1266605E+00
        -11   -1    0    0    0    0  0.00000000000E+00  0.00000000000E+00  0.45593999997E+02  0.45594000000E+02  0.51100000000E-03 0. -1.
         11   -1    0    0    0    0 -0.00000000000E+00 -0.00000000000E+00 -0.45593999997E+02  0.45594000000E+02  0.51100000000E-03 0.  1.
    9900012    2    1    2    0    0  0.69191575192E+01  0.12067800169E+02  0.28691773328E+02  0.59301883924E+02  0.49999890386E+02 0.  0.
        -12    1    1    2    0    0 -0.69191575192E+01 -0.12067800169E+02 -0.28691773328E+02  0.31886116076E+02  0.00000000000E+00 0.  1.
         11    1    3    3    0    0  0.15715374218E+02  0.12822909534E+02  0.36978648582E+02  0.42176064859E+02  0.51100000000E-03 0. -1.
        -11    1    3    3    0    0  0.21935410295E+00  0.42783998786E+01 -0.76684296644E+00  0.43521109981E+01  0.51100000000E-03 0.  1.
         12    1    3    3    0    0 -0.90155708014E+01 -0.50335092435E+01 -0.75200322883E+01  0.12773708068E+02  0.00000000000E+00 0. -1.
</event>
<event>
 7    1  0.6065977E-013  0.5930197E+02  0.7816164E-02  0.1266605E+00
        -11   -1    0    0    0    0  0.00000000000E+00  0.00000000000E+00  0.45593999997E+02  0.45594000000E+02  0.51100000000E-03 0.  1.
         11   -1    0    0    0    0 -0.00000000000E+00 -0.00000000000E+00 -0.45593999997E+02  0.45594000000E+02  0.51100000000E-03 0. -1.
    9900012    2    1    2    0    0  0.14310383517E+02 -0.27410577428E+02 -0.77840814383E+01  0.59301972414E+02  0.50000051771E+02 0.  0.
        -12    1    1    2    0    0 -0.14310383517E+02  0.27410577428E+02  0.77840814383E+01  0.31886027586E+02  0.00000000000E+00 0.  1.
         11    1    3    3    0    0 -0.37086536957E+01 -0.20659118957E+02 -0.19459409485E+02  0.28622053143E+02  0.51100000000E-03 0. -1.
        -11    1    3    3    0    0  0.10342889776E+00  0.61103940726E+01  0.41068865713E+01  0.73630245708E+01  0.51100000000E-03 0.  1.
        -12    1    3    3    0    0  0.17915608315E+02 -0.12861852543E+02  0.75684414754E+01  0.23316894701E+02  0.00000000000E+00 0.  1.
</event>
<event>
 7    1  0.6065977E-013  0.5930191E+02  0.7816164E-02  0.1266605E+00
        -11   -1    0    0    0    0  0.00000000000E+00  0.00000000000E+00  0.45593999997E+02  0.45594000000E+02  0.51100000000E-03 0.  1.
         11   -1    0    0    0    0 -0.00000000000E+00 -0.00000000000E+00 -0.45593999997E+02  0.45594000000E+02  0.51100000000E-03 0. -1.
    9900012    2    1    2    0    0  0.30689705682E+02 -0.60626772789E+01 -0.61732170506E+01  0.59301910566E+02  0.49999938975E+02 0.  0.
        -12    1    1    2    0    0 -0.30689705682E+02  0.60626772789E+01  0.61732170506E+01  0.31886089434E+02  0.00000000000E+00 0.  1.
         11    1    3    3    0    0  0.23728926308E+02 -0.17320578358E+02 -0.14775840307E+02  0.32884492324E+02  0.51100000000E-03 0. -1.
        -11    1    3    3    0    0  0.69174984055E+01  0.27442424975E+01  0.14336420944E+02  0.16152882617E+02  0.51100000000E-03 0.  1.
        -12    1    3    3    0    0  0.43280968163E-01  0.85136585816E+01 -0.57337976875E+01  0.10264535625E+02  0.00000000000E+00 0.  1.
</event>
<event>
 7    1  0.6065977E-013  0.5930195E+02  0.7816164E-02  0.1266605E+00
        -11   -1    0    0    0    0  0.00000000000E+00  0.00000000000E+00  0.45593999997E+02  0.45594000000E+02  0.51100000000E-03 0.  1.
         11   -1    0    0    0    0 -0.00000000000E+00 -0.00000000000E+00 -0.45593999997E+02  0.45594000000E+02  0.51100000000E-03 0. -1.
    9900012    2    1    2    0    0  0.22889812377E+02  0.21256934598E+02 -0.63968382093E+01  0.59301947904E+02  0.50000007070E+02 0.  0.
        -12    1    1    2    0    0 -0.22889812377E+02 -0.21256934598E+02  0.63968382093E+01  0.31886052096E+02  0.00000000000E+00 0.  1.
         11    1    3    3    0    0  0.10616120827E+02  0.67952058574E+01 -0.74515548214E+01  0.14642490006E+02  0.51100000000E-03 0. -1.
        -11    1    3    3    0    0  0.99357702907E+01 -0.61153936883E+01  0.15506934866E+02  0.19405736276E+02  0.51100000000E-03 0.  1.
        -12    1    3    3    0    0  0.23379212590E+01  0.20577122429E+02 -0.14452218254E+02  0.25253721622E+02  0.00000000000E+00 0.  1.
</event>
<event>
 7    1  0.6065977E-013  0.5930181E+02  0.7816164E-02  0.1266605E+00
        -11   -1    0    0    0    0  0.00000000000E+00  0.00000000000E+00  0.45593999997E+02  0.45594000000E+02  0.51100000000E-03 0.  1.
         11   -1    0    0    0    0 -0.00000000000E+00 -0.00000000000E+00 -0.45593999997E+02  0.45594000000E+02  0.51100000000E-03 0. -1.
    9900012    2    1    2    0    0 -0.93924949356E+01 -0.23412104744E+02 -0.19503420593E+02  0.59301811384E+02  0.49999758088E+02 0.  0.
        -12    1    1    2    0    0  0.93924949356E+01  0.23412104744E+02  0.19503420593E+02  0.31886188616E+02  0.00000000000E+00 0.  1.
         11    1    3    3    0    0  0.15244294504E+02 -0.21956816393E+01 -0.78569553946E+01  0.17289918482E+02  0.51100000000E-03 0. -1.
        -11    1    3    3    0    0 -0.22591150244E+02 -0.63944511398E+01 -0.72930700736E+00  0.23490018384E+02  0.51100000000E-03 0.  1.
        -12    1    3    3    0    0 -0.20456391958E+01 -0.14821971965E+02 -0.10917158191E+02  0.18521874517E+02  0.00000000000E+00 0.  1.
</event>
<event>
 7    1  0.6065977E-013  0.5930194E+02  0.7816164E-02  0.1266605E+00
        -11   -1    0    0    0    0  0.00000000000E+00  0.00000000000E+00  0.45593999997E+02  0.45594000000E+02  0.51100000000E-03 0. -1.
         11   -1    0    0    0    0 -0.00000000000E+00 -0.00000000000E+00 -0.45593999997E+02  0.45594000000E+02  0.51100000000E-03 0.  1.
    9900012    2    1    2    0    0 -0.12015358032E+02 -0.29487721084E+02 -0.16812153672E+01  0.59301937081E+02  0.49999987330E+02 0.  0.
        -12    1    1    2    0    0  0.12015358032E+02  0.29487721084E+02  0.16812153672E+01  0.31886062919E+02  0.00000000000E+00 0.  1.
         11    1    3    3    0    0 -0.13287194947E+02 -0.29173677287E+02 -0.28066620124E+01  0.32179657362E+02  0.51100000000E-03 0. -1.
        -11    1    3    3    0    0  0.52450692485E+01  0.41519854905E+01  0.12553872045E+02  0.14224958296E+02  0.51100000000E-03 0.  1.
         12    1    3    3    0    0 -0.39732323333E+01 -0.44660292881E+01 -0.11428425400E+02  0.12897321423E+02  0.00000000000E+00 0. -1.
</event>
<event>
 7    1  0.6065977E-013  0.5930196E+02  0.7816164E-02  0.1266605E+00
        -11   -1    0    0    0    0  0.00000000000E+00  0.00000000000E+00  0.45593999997E+02  0.45594000000E+02  0.51100000000E-03 0. -1.
         11   -1    0    0    0    0 -0.00000000000E+00 -0.00000000000E+00 -0.45593999997E+02  0.45594000000E+02  0.51100000000E-03 0.  1.
    9900012    2    1    2    0    0  0.57428282636E+01 -0.22285297065E+02  0.22070456239E+02  0.59301959475E+02  0.50000028172E+02 0.  0.
        -12    1    1    2    0    0 -0.57428282636E+01  0.22285297065E+02 -0.22070456239E+02  0.31886040525E+02  0.00000000000E+00 0.  1.
         11    1    3    3    0    0 -0.70597735383E+01 -0.26995515233E+02  0.22801218007E+02  0.36034619298E+02  0.51100000000E-03 0. -1.
        -11    1    3    3    0    0  0.12971875790E+02  0.10193092298E+02 -0.38723903240E+01  0.16945916888E+02  0.51100000000E-03 0.  1.
        -12    1    3    3    0    0 -0.16927398823E+00 -0.54828741298E+01  0.31416285566E+01  0.63214232887E+01  0.00000000000E+00 0.  1.
</event>
<event>
 7    1  0.6065977E-013  0.5930193E+02  0.7816164E-02  0.1266605E+00
        -11   -1    0    0    0    0  0.00000000000E+00  0.00000000000E+00  0.45593999997E+02  0.45594000000E+02  0.51100000000E-03 0.  1.
         11   -1    0    0    0    0 -0.00000000000E+00 -0.00000000000E+00 -0.45593999997E+02  0.45594000000E+02  0.51100000000E-03 0. -1.
    9900012    2    1    2    0    0 -0.52457760049E+01 -0.33730684814E+00 -0.31449792287E+02  0.59301931307E+02  0.49999976801E+02 0.  0.
        -12    1    1    2    0    0  0.52457760049E+01  0.33730684814E+00  0.31449792287E+02  0.31886068693E+02  0.00000000000E+00 0.  1.
         11    1    3    3    0    0  0.35438372931E+01 -0.13966304002E+02 -0.26818042530E+00  0.14411396575E+02  0.51100000000E-03 0.  1.
        -11    1    3    3    0    0 -0.15889265717E+01  0.14078220807E+02 -0.34239260541E+02  0.37054661669E+02  0.51100000000E-03 0. -1.
        -12    1    3    3    0    0 -0.72006867263E+01 -0.44922365367E+00  0.30576486792E+01  0.78358730635E+01  0.00000000000E+00 0.  1.
</event>
<event>
 7    1  0.6065977E-013  0.5930194E+02  0.7816164E-02  0.1266605E+00
        -11   -1    0    0    0    0  0.00000000000E+00  0.00000000000E+00  0.45593999997E+02  0.45594000000E+02  0.51100000000E-03 0. -1.
         11   -1    0    0    0    0 -0.00000000000E+00 -0.00000000000E+00 -0.45593999997E+02  0.45594000000E+02  0.51100000000E-03 0.  1.
    9900012    2    1    2    0    0  0.14117041870E+02  0.17928124040E+02  0.22271328475E+02  0.59301943881E+02  0.49999999733E+02 0.  0.
        -12    1    1    2    0    0 -0.14117041870E+02 -0.17928124040E+02 -0.22271328475E+02  0.31886056119E+02  0.00000000000E+00 0.  1.
         11    1    3    3    0    0 -0.37309429551E+00  0.13980721967E+01 -0.14195872741E+02  0.14269429154E+02  0.51100000000E-03 0.  1.
        -11    1    3    3    0    0  0.26571425677E+01  0.13950449742E+02  0.17634698094E+02  0.22641952914E+02  0.51100000000E-03 0. -1.
        -12    1    3    3    0    0  0.11832993597E+02  0.25796021017E+01  0.18832503123E+02  0.22390561814E+02  0.00000000000E+00 0.  1.
</event>
<event>
 7    1  0.6065977E-013  0.5930195E+02  0.7816164E-02  0.1266605E+00
        -11   -1    0    0    0    0  0.00000000000E+00  0.00000000000E+00  0.45593999997E+02  0.45594000000E+02  0.51100000000E-03 0.  1.
         11   -1    0    0    0    0 -0.00000000000E+00 -0.00000000000E+00 -0.45593999997E+02  0.45594000000E+02  0.51100000000E-03 0. -1.
    9900012    2    1    2    0    0 -0.28546458684E+02  0.13479239678E+02 -0.44866728923E+01  0.59301946006E+02  0.50000003608E+02 0.  0.
        -12    1    1    2    0    0  0.28546458684E+02 -0.13479239678E+02  0.44866728923E+01  0.31886053994E+02  0.00000000000E+00 0.  1.
         11    1    3    3    0    0 -0.76624179983E+01  0.69886189810E+00 -0.17358536712E+01  0.78876007608E+01  0.51100000000E-03 0. -1.
        -11    1    3    3    0    0 -0.11821637942E+01 -0.48393994147E+01  0.17450108402E+02  0.18147274766E+02  0.51100000000E-03 0.  1.
        -12    1    3    3    0    0 -0.19701876891E+02  0.17619777194E+02 -0.20200927623E+02  0.33267070479E+02  0.00000000000E+00 0.  1.
</event>
<event>
 7    1  0.6065977E-013  0.5930186E+02  0.7816164E-02  0.1266605E+00
        -11   -1    0    0    0    0  0.00000000000E+00  0.00000000000E+00  0.45593999997E+02  0.45594000000E+02  0.51100000000E-03 0. -1.
         11   -1    0    0    0    0 -0.00000000000E+00 -0.00000000000E+00 -0.45593999997E+02  0.45594000000E+02  0.51100000000E-03 0.  1.
    9900012    2    1    2    0    0 -0.36489674163E+01 -0.31659841371E+02 -0.10322240059E+01  0.59301858728E+02  0.49999844433E+02 0.  0.
        -12    1    1    2    0    0  0.36489674163E+01  0.31659841371E+02  0.10322240059E+01  0.31886141272E+02  0.00000000000E+00 0.  1.
         11    1    3    3    0    0 -0.11868897120E+02 -0.93254028609E+01  0.16867371048E+02  0.22634974347E+02  0.51100000000E-03 0. -1.
        -11    1    3    3    0    0 -0.60424570087E+01 -0.14148289714E+02 -0.10550552003E+02  0.18654745679E+02  0.51100000000E-03 0.  1.
         12    1    3    3    0    0  0.14262386712E+02 -0.81861487962E+01 -0.73490430503E+01  0.18012138702E+02  0.00000000000E+00 0. -1.
</event>
<event>
 7    1  0.6065977E-013  0.5930223E+02  0.7816164E-02  0.1266604E+00
        -11   -1    0    0    0    0  0.00000000000E+00  0.00000000000E+00  0.45593999997E+02  0.45594000000E+02  0.51100000000E-03 0. -1.
         11   -1    0    0    0    0 -0.00000000000E+00 -0.00000000000E+00 -0.45593999997E+02  0.45594000000E+02  0.51100000000E-03 0.  1.
    9900012    2    1    2    0    0  0.38201405715E+01  0.17636894088E+02  0.26287810857E+02  0.59302227206E+02  0.50000516446E+02 0.  0.
        -12    1    1    2    0    0 -0.38201405715E+01 -0.17636894088E+02 -0.26287810857E+02  0.31885772794E+02  0.00000000000E+00 0.  1.
         11    1    3    3    0    0  0.19658930348E+02  0.11505780806E+02  0.10361318665E+02  0.25024257414E+02  0.51100000000E-03 0. -1.
        -11    1    3    3    0    0 -0.15398140219E+02 -0.67277820459E+01  0.12558190845E+02  0.20977939151E+02  0.51100000000E-03 0.  1.
        -12    1    3    3    0    0 -0.44064955713E+00  0.12858895328E+02  0.33683013462E+01  0.13300030641E+02  0.00000000000E+00 0.  1.
</event>
<event>
 7    1  0.6065977E-013  0.5930194E+02  0.7816164E-02  0.1266605E+00
        -11   -1    0    0    0    0  0.00000000000E+00  0.00000000000E+00  0.45593999997E+02  0.45594000000E+02  0.51100000000E-03 0.  1.
         11   -1    0    0    0    0 -0.00000000000E+00 -0.00000000000E+00 -0.45593999997E+02  0.45594000000E+02  0.51100000000E-03 0. -1.
    9900012    2    1    2    0    0 -0.18436165410E+02 -0.20733403786E+02 -0.15714789516E+02  0.59301939768E+02  0.49999992232E+02 0.  0.
        -12    1    1    2    0    0  0.18436165410E+02  0.20733403786E+02  0.15714789516E+02  0.31886060232E+02  0.00000000000E+00 0.  1.
         11    1    3    3    0    0 -0.68211471671E+01 -0.10284758483E+02  0.10822146752E+02  0.16414114850E+02  0.51100000000E-03 0. -1.
        -11    1    3    3    0    0 -0.14618612104E+01 -0.13067363815E+02 -0.29239277458E+02  0.32059762660E+02  0.51100000000E-03 0.  1.
        -12    1    3    3    0    0 -0.10153157032E+02  0.26187185117E+01  0.27023411901E+01  0.10828062258E+02  0.00000000000E+00 0.  1.
</event>
<event>
 7    1  0.6065977E-013  0.5930194E+02  0.7816164E-02  0.1266605E+00
        -11   -1    0    0    0    0  0.00000000000E+00  0.00000000000E+00  0.45593999997E+02  0.45594000000E+02  0.51100000000E-03 0. -1.
         11   -1    0    0    0    0 -0.00000000000E+00 -0.00000000000E+00 -0.45593999997E+02  0.45594000000E+02  0.51100000000E-03 0.  1.
    9900012    2    1    2    0    0 -0.57778115689E+01  0.20189764730E+02  0.23993986964E+02  0.59301935383E+02  0.49999984234E+02 0.  0.
        -12    1    1    2    0    0  0.57778115689E+01 -0.20189764730E+02 -0.23993986964E+02  0.31886064617E+02  0.00000000000E+00 0.  1.
         11    1    3    3    0    0  0.11425635285E+02  0.11139785985E+02  0.16662201668E+02  0.23070954426E+02  0.51100000000E-03 0. -1.
        -11    1    3    3    0    0 -0.13681596752E+02 -0.71483664359E+01  0.11366993980E+02  0.19170127406E+02  0.51100000000E-03 0.  1.
         12    1    3    3    0    0 -0.35218501022E+01  0.16198345181E+02 -0.40352086842E+01  0.17060853550E+02  0.00000000000E+00 0. -1.
</event>
<event>
 7    1  0.6065977E-013  0.5930201E+02  0.7816164E-02  0.1266605E+00
        -11   -1    0    0    0    0  0.00000000000E+00  0.00000000000E+00  0.45593999997E+02  0.45594000000E+02  0.51100000000E-03 0. -1.
         11   -1    0    0    0    0 -0.00000000000E+00 -0.00000000000E+00 -0.45593999997E+02  0.45594000000E+02  0.51100000000E-03 0.  1.
    9900012    2    1    2    0    0 -0.11275159814E+02  0.27654230540E+02  0.11172764050E+02  0.59302010097E+02  0.50000120495E+02 0.  0.
        -12    1    1    2    0    0  0.11275159814E+02 -0.27654230540E+02 -0.11172764050E+02  0.31885989903E+02  0.00000000000E+00 0.  1.
         11    1    3    3    0    0  0.34648311012E+01 -0.77212807250E+01 -0.38564138254E+01  0.93002773318E+01  0.51100000000E-03 0. -1.
        -11    1    3    3    0    0 -0.21549001653E+02  0.21879717810E+02  0.33350904520E+01  0.30890198320E+02  0.51100000000E-03 0.  1.
         12    1    3    3    0    0  0.68090107378E+01  0.13495793454E+02  0.11694087423E+02  0.19111534445E+02  0.00000000000E+00 0. -1.
</event>
<event>
 7    1  0.6065977E-013  0.5930194E+02  0.7816164E-02  0.1266605E+00
        -11   -1    0    0    0    0  0.00000000000E+00  0.00000000000E+00  0.45593999997E+02  0.45594000000E+02  0.51100000000E-03 0. -1.
         11   -1    0    0    0    0 -0.00000000000E+00 -0.00000000000E+00 -0.45593999997E+02  0.45594000000E+02  0.51100000000E-03 0.  1.
    9900012    2    1    2    0    0 -0.35314859789E+01 -0.47343257794E+01  0.31334260902E+02  0.59301935018E+02  0.49999983568E+02 0.  0.
        -12    1    1    2    0    0  0.35314859789E+01  0.47343257794E+01 -0.31334260902E+02  0.31886064982E+02  0.00000000000E+00 0.  1.
         11    1    3    3    0    0  0.37384241203E+01 -0.14591581599E+02  0.11785320897E+02  0.19125476657E+02  0.51100000000E-03 0. -1.
        -11    1    3    3    0    0 -0.13199280403E+02  0.12471636631E+02 -0.14337765975E+01  0.18215884250E+02  0.51100000000E-03 0.  1.
        -12    1    3    3    0    0  0.59293703042E+01 -0.26143808114E+01  0.20982716602E+02  0.21960574110E+02  0.00000000000E+00 0.  1.
</event>
<event>
 7    1  0.6065977E-013  0.5930192E+02  0.7816164E-02  0.1266605E+00
        -11   -1    0    0    0    0  0.00000000000E+00  0.00000000000E+00  0.45593999997E+02  0.45594000000E+02  0.51100000000E-03 0.  1.
         11   -1    0    0    0    0 -0.00000000000E+00 -0.00000000000E+00 -0.45593999997E+02  0.45594000000E+02  0.51100000000E-03 0. -1.
    9900012    2    1    2    0    0  0.24430006946E+02  0.12164097967E+02 -0.16490342453E+02  0.59301922898E+02  0.49999961465E+02 0.  0.
        -12    1    1    2    0    0 -0.24430006946E+02 -0.12164097967E+02  0.16490342453E+02  0.31886077102E+02  0.00000000000E+00 0.  1.
         11    1    3    3    0    0  0.23849401917E+02  0.53794480172E+01 -0.26894580012E+02  0.36346263454E+02  0.51100000000E-03 0. -1.
        -11    1    3    3    0    0  0.29802676160E+01 -0.63861142295E+01  0.30255997548E+01  0.76693353136E+01  0.51100000000E-03 0.  1.
         12    1    3    3    0    0 -0.23996625872E+01  0.13170764179E+02  0.73786378038E+01  0.15286324131E+02  0.00000000000E+00 0. -1.
</event>
<event>
 7    1  0.6065977E-013  0.5930195E+02  0.7816164E-02  0.1266605E+00
        -11   -1    0    0    0    0  0.00000000000E+00  0.00000000000E+00  0.45593999997E+02  0.45594000000E+02  0.51100000000E-03 0. -1.
         11   -1    0    0    0    0 -0.00000000000E+00 -0.00000000000E+00 -0.45593999997E+02  0.45594000000E+02  0.51100000000E-03 0.  1.
    9900012    2    1    2    0    0  0.10652852574E+02 -0.10723904832E+02  0.28075517070E+02  0.59301951929E+02  0.50000014410E+02 0.  0.
        -12    1    1    2    0    0 -0.10652852574E+02  0.10723904832E+02 -0.28075517070E+02  0.31886048071E+02  0.00000000000E+00 0.  1.
         11    1    3    3    0    0  0.89228261523E+01 -0.11855979131E+02 -0.10244798391E+02  0.18031554621E+02  0.51100000000E-03 0.  1.
        -11    1    3    3    0    0 -0.20911392033E+01 -0.67763285895E+00  0.36663471133E+02  0.36729309349E+02  0.51100000000E-03 0. -1.
        -12    1    3    3    0    0  0.38211656253E+01  0.18097071576E+01  0.16568443284E+01  0.45410879600E+01  0.00000000000E+00 0.  1.
</event>
<event>
 7    1  0.6065977E-013  0.5930202E+02  0.7816164E-02  0.1266605E+00
        -11   -1    0    0    0    0  0.00000000000E+00  0.00000000000E+00  0.45593999997E+02  0.45594000000E+02  0.51100000000E-03 0. -1.
         11   -1    0    0    0    0 -0.00000000000E+00 -0.00000000000E+00 -0.45593999997E+02  0.45594000000E+02  0.51100000000E-03 0.  1.
    9900012    2    1    2    0    0  0.16603175043E+02 -0.17918048848E+02  0.20493753731E+02  0.59302018158E+02  0.50000135196E+02 0.  0.
        -12    1    1    2    0    0 -0.16603175043E+02  0.17918048848E+02 -0.20493753731E+02  0.31885981842E+02  0.00000000000E+00 0.  1.
         11    1    3    3    0    0  0.30795327247E+02 -0.10505912004E+02  0.77516381092E+01  0.33448681004E+02  0.51100000000E-03 0. -1.
        -11    1    3    3    0    0 -0.14071940586E+02 -0.49343466503E+01  0.22607200467E+01  0.15082378595E+02  0.51100000000E-03 0.  1.
         12    1    3    3    0    0 -0.12021161787E+00 -0.24777901935E+01  0.10481395575E+02  0.10770958559E+02  0.00000000000E+00 0. -1.
</event>
<event>
 7    1  0.6065977E-013  0.5930195E+02  0.7816164E-02  0.1266605E+00
        -11   -1    0    0    0    0  0.00000000000E+00  0.00000000000E+00  0.45593999997E+02  0.45594000000E+02  0.51100000000E-03 0. -1.
         11   -1    0    0    0    0 -0.00000000000E+00 -0.00000000000E+00 -0.45593999997E+02  0.45594000000E+02  0.51100000000E-03 0.  1.
    9900012    2    1    2    0    0  0.99817549040E+01 -0.14724737482E+02  0.26462560042E+02  0.59301946484E+02  0.50000004479E+02 0.  0.
        -12    1    1    2    0    0 -0.99817549040E+01  0.14724737482E+02 -0.26462560042E+02  0.31886053516E+02  0.00000000000E+00 0.  1.
         11    1    3    3    0    0  0.11111169695E+02  0.12864562328E+02  0.16212773888E+02  0.23490617133E+02  0.51100000000E-03 0. -1.
        -11    1    3    3    0    0  0.67339853322E+01 -0.76045101692E+01 -0.29820619347E+01  0.10586209284E+02  0.51100000000E-03 0.  1.
         12    1    3    3    0    0 -0.78634001234E+01 -0.19984789642E+02  0.13231848088E+02  0.25225120066E+02  0.00000000000E+00 0. -1.
</event>
<event>
 7    1  0.6065977E-013  0.5930195E+02  0.7816164E-02  0.1266605E+00
        -11   -1    0    0    0    0  0.00000000000E+00  0.00000000000E+00  0.45593999997E+02  0.45594000000E+02  0.51100000000E-03 0.  1.
         11   -1    0    0    0    0 -0.00000000000E+00 -0.00000000000E+00 -0.45593999997E+02  0.45594000000E+02  0.51100000000E-03 0. -1.
    9900012    2    1    2    0    0  0.35965117984E+01 -0.17301558971E+02 -0.26541318293E+02  0.59301946361E+02  0.50000004254E+02 0.  0.
        -12    1    1    2    0    0 -0.35965117984E+01  0.17301558971E+02  0.26541318293E+02  0.31886053639E+02  0.00000000000E+00 0.  1.
         11    1    3    3    0    0  0.17728482283E+02 -0.10997841975E+02 -0.32263848897E+02  0.38421446590E+02  0.51100000000E-03 0. -1.
        -11    1    3    3    0    0 -0.43762530379E+01 -0.69679052866E+01  0.72708550009E+01  0.10980374649E+02  0.51100000000E-03 0.  1.
        -12    1    3    3    0    0 -0.97557174466E+01  0.66418829006E+00 -0.15483243977E+01  0.99001251216E+01  0.00000000000E+00 0.  1.
</event>
<event>
 7    1  0.6065977E-013  0.5930189E+02  0.7816164E-02  0.1266605E+00
        -11   -1    0    0    0    0  0.00000000000E+00  0.00000000000E+00  0.45593999997E+02  0.45594000000E+02  0.51100000000E-03 0. -1.
         11   -1    0    0    0    0 -0.00000000000E+00 -0.00000000000E+00 -0.45593999997E+02  0.45594000000E+02  0.51100000000E-03 0.  1.
    9900012    2    1    2    0    0  0.30879502725E+02 -0.70402207437E+01 -0.36898952054E+01  0.59301894510E+02  0.49999909692E+02 0.  0.
        -12    1    1    2    0    0 -0.30879502725E+02  0.70402207437E+01  0.36898952054E+01  0.31886105490E+02  0.00000000000E+00 0.  1.
         11    1    3    3    0    0  0.59126143765E+01 -0.16948020582E+02  0.16833982242E+02  0.24608481644E+02  0.51100000000E-03 0. -1.
        -11    1    3    3    0    0  0.41855749621E+01  0.51790352517E+01 -0.48832103457E+01  0.82575533569E+01  0.51100000000E-03 0.  1.
         12    1    3    3    0    0  0.20781313387E+02  0.47287645871E+01 -0.15640667102E+02  0.26435859509E+02  0.00000000000E+00 0. -1.
</event>
<event>
 7    1  0.6065977E-013  0.5930198E+02  0.7816164E-02  0.1266605E+00
        -11   -1    0    0    0    0  0.00000000000E+00  0.00000000000E+00  0.45593999997E+02  0.45594000000E+02  0.51100000000E-03 0.  1.
         11   -1    0    0    0    0 -0.00000000000E+00 -0.00000000000E+00 -0.45593999997E+02  0.45594000000E+02  0.51100000000E-03 0. -1.
    9900012    2    1    2    0    0 -0.11300392613E+02 -0.21248417036E+02 -0.20917079688E+02  0.59301979201E+02  0.50000064147E+02 0.  0.
        -12    1    1    2    0    0  0.11300392613E+02  0.21248417036E+02  0.20917079688E+02  0.31886020799E+02  0.00000000000E+00 0.  1.
         11    1    3    3    0    0  0.71518920168E+01 -0.10931405688E+02 -0.11959548990E+02  0.17710900656E+02  0.51100000000E-03 0. -1.
        -11    1    3    3    0    0 -0.17328200208E+02 -0.16170428953E+02 -0.18686356397E+02  0.30181603845E+02  0.51100000000E-03 0.  1.
        -12    1    3    3    0    0 -0.11240844219E+01  0.58534176049E+01  0.97288256996E+01  0.11409474700E+02  0.00000000000E+00 0.  1.
</event>
<event>
 7    1  0.6065977E-013  0.5930194E+02  0.7816164E-02  0.1266605E+00
        -11   -1    0    0    0    0  0.00000000000E+00  0.00000000000E+00  0.45593999997E+02  0.45594000000E+02  0.51100000000E-03 0.  1.
         11   -1    0    0    0    0 -0.00000000000E+00 -0.00000000000E+00 -0.45593999997E+02  0.45594000000E+02  0.51100000000E-03 0. -1.
    9900012    2    1    2    0    0 -0.29731065177E+02  0.10662272416E+02 -0.43704328153E+01  0.59301937643E+02  0.49999988356E+02 0.  0.
        -12    1    1    2    0    0  0.29731065177E+02 -0.10662272416E+02  0.43704328153E+01  0.31886062357E+02  0.00000000000E+00 0.  1.
         11    1    3    3    0    0  0.74620669777E+00 -0.76744799405E+01 -0.82353477877E+01  0.11281640849E+02  0.51100000000E-03 0. -1.
        -11    1    3    3    0    0 -0.33632849247E+02  0.60282044193E+01  0.71213776672E+01  0.34903034498E+02  0.51100000000E-03 0.  1.
        -12    1    3    3    0    0  0.31555773728E+01  0.12308547938E+02 -0.32564626948E+01  0.13117262297E+02  0.00000000000E+00 0.  1.
</event>
<event>
 7    1  0.6065977E-013  0.5930194E+02  0.7816164E-02  0.1266605E+00
        -11   -1    0    0    0    0  0.00000000000E+00  0.00000000000E+00  0.45593999997E+02  0.45594000000E+02  0.51100000000E-03 0.  1.
         11   -1    0    0    0    0 -0.00000000000E+00 -0.00000000000E+00 -0.45593999997E+02  0.45594000000E+02  0.51100000000E-03 0. -1.
    9900012    2    1    2    0    0 -0.30783929935E+01 -0.21478482369E+02 -0.23364908765E+02  0.59301942390E+02  0.49999997014E+02 0.  0.
        -12    1    1    2    0    0  0.30783929935E+01  0.21478482369E+02  0.23364908765E+02  0.31886057610E+02  0.00000000000E+00 0.  1.
         11    1    3    3    0    0  0.18516717038E+01 -0.83248145631E+01 -0.97080780604E+01  0.12921996962E+02  0.51100000000E-03 0. -1.
        -11    1    3    3    0    0  0.13087193441E+02 -0.80584888347E+01  0.83456136493E+01  0.17488943419E+02  0.51100000000E-03 0.  1.
        -12    1    3    3    0    0 -0.18017258138E+02 -0.50951789716E+01 -0.22002444353E+02  0.28891002009E+02  0.00000000000E+00 0.  1.
</event>
<event>
 7    1  0.6065977E-013  0.5930216E+02  0.7816164E-02  0.1266604E+00
        -11   -1    0    0    0    0  0.00000000000E+00  0.00000000000E+00  0.45593999997E+02  0.45594000000E+02  0.51100000000E-03 0.  1.
         11   -1    0    0    0    0 -0.00000000000E+00 -0.00000000000E+00 -0.45593999997E+02  0.45594000000E+02  0.51100000000E-03 0. -1.
    9900012    2    1    2    0    0  0.10950060404E+02  0.15589461965E+02 -0.25568960817E+02  0.59302158244E+02  0.50000390677E+02 0.  0.
        -12    1    1    2    0    0 -0.10950060404E+02 -0.15589461965E+02  0.25568960817E+02  0.31885841756E+02  0.00000000000E+00 0.  1.
         11    1    3    3    0    0  0.13159069763E+01  0.25390665459E+02 -0.26491670345E+02  0.36718198506E+02  0.51100000000E-03 0. -1.
        -11    1    3    3    0    0  0.13035638199E+02 -0.30706475663E+01  0.46437190004E+01  0.14174655768E+02  0.51100000000E-03 0.  1.
        -12    1    3    3    0    0 -0.34014847712E+01 -0.67305559280E+01 -0.37210094728E+01  0.84093039692E+01  0.00000000000E+00 0.  1.
</event>
<event>
 7    1  0.6065977E-013  0.5930193E+02  0.7816164E-02  0.1266605E+00
        -11   -1    0    0    0    0  0.00000000000E+00  0.00000000000E+00  0.45593999997E+02  0.45594000000E+02  0.51100000000E-03 0.  1.
         11   -1    0    0    0    0 -0.00000000000E+00 -0.00000000000E+00 -0.45593999997E+02  0.45594000000E+02  0.51100000000E-03 0. -1.
    9900012    2    1    2    0    0  0.23312548921E+02 -0.21704709444E+02  0.14670633000E+01  0.59301927430E+02  0.49999969729E+02 0.  0.
        -12    1    1    2    0    0 -0.23312548921E+02  0.21704709444E+02 -0.14670633000E+01  0.31886072570E+02  0.00000000000E+00 0.  1.
         11    1    3    3    0    0  0.21883647462E+00 -0.47117106558E+01 -0.70143914816E+01  0.84527980471E+01  0.51100000000E-03 0. -1.
        -11    1    3    3    0    0  0.20148233694E+02  0.25619313833E+01  0.19546624118E+02  0.28188389952E+02  0.51100000000E-03 0.  1.
        -12    1    3    3    0    0  0.29454787522E+01 -0.19554930172E+02 -0.11065169337E+02  0.22660739431E+02  0.00000000000E+00 0.  1.
</event>
<event>
 7    1  0.6065977E-013  0.5930196E+02  0.7816164E-02  0.1266605E+00
        -11   -1    0    0    0    0  0.00000000000E+00  0.00000000000E+00  0.45593999997E+02  0.45594000000E+02  0.51100000000E-03 0. -1.
         11   -1    0    0    0    0 -0.00000000000E+00 -0.00000000000E+00 -0.45593999997E+02  0.45594000000E+02  0.51100000000E-03 0.  1.
    9900012    2    1    2    0    0  0.17990101176E+02 -0.24253356689E+02  0.10239663444E+02  0.59301956682E+02  0.50000023078E+02 0.  0.
        -12    1    1    2    0    0 -0.17990101176E+02  0.24253356689E+02 -0.10239663444E+02  0.31886043318E+02  0.00000000000E+00 0.  1.
         11    1    3    3    0    0  0.92332853350E+00 -0.29406641118E+02 -0.43315302329E+01  0.29738278898E+02  0.51100000000E-03 0.  1.
        -11    1    3    3    0    0  0.13619827181E+02  0.69573369513E+01  0.86759649080E+00  0.15318516698E+02  0.51100000000E-03 0. -1.
         12    1    3    3    0    0  0.34469454621E+01 -0.18040525229E+01  0.13703597186E+02  0.14245161086E+02  0.00000000000E+00 0. -1.
</event>
<event>
 7    1  0.6065977E-013  0.5930193E+02  0.7816164E-02  0.1266605E+00
        -11   -1    0    0    0    0  0.00000000000E+00  0.00000000000E+00  0.45593999997E+02  0.45594000000E+02  0.51100000000E-03 0.  1.
         11   -1    0    0    0    0 -0.00000000000E+00 -0.00000000000E+00 -0.45593999997E+02  0.45594000000E+02  0.51100000000E-03 0. -1.
    9900012    2    1    2    0    0  0.10610440564E+01  0.16933482331E+02 -0.26997270368E+02  0.59301933361E+02  0.49999980547E+02 0.  0.
        -12    1    1    2    0    0 -0.10610440564E+01 -0.16933482331E+02  0.26997270368E+02  0.31886066639E+02  0.00000000000E+00 0.  1.
         11    1    3    3    0    0  0.50855845874E+01  0.43564009835E+01 -0.68393141614E+01  0.95717092822E+01  0.51100000000E-03 0. -1.
        -11    1    3    3    0    0 -0.82714023586E+01  0.22190967068E+02  0.34084347301E+01  0.23926398475E+02  0.51100000000E-03 0.  1.
        -12    1    3    3    0    0  0.42468618276E+01 -0.96138857208E+01 -0.23566390937E+02  0.25803825604E+02  0.00000000000E+00 0.  1.
</event>
<event>
 7    1  0.6065977E-013  0.5930195E+02  0.7816164E-02  0.1266605E+00
        -11   -1    0    0    0    0  0.00000000000E+00  0.00000000000E+00  0.45593999997E+02  0.45594000000E+02  0.51100000000E-03 0.  1.
         11   -1    0    0    0    0 -0.00000000000E+00 -0.00000000000E+00 -0.45593999997E+02  0.45594000000E+02  0.51100000000E-03 0. -1.
    9900012    2    1    2    0    0 -0.90667427953E+01 -0.21314867301E+02 -0.21913260821E+02  0.59301946736E+02  0.50000004939E+02 0.  0.
        -12    1    1    2    0    0  0.90667427953E+01  0.21314867301E+02  0.21913260821E+02  0.31886053264E+02  0.00000000000E+00 0.  1.
         11    1    3    3    0    0 -0.84497336508E+00  0.83351697240E+01 -0.16709227014E+01  0.85428927917E+01  0.51100000000E-03 0. -1.
        -11    1    3    3    0    0 -0.20072327500E+02 -0.26867701511E+02 -0.10424433097E+02  0.35120371886E+02  0.51100000000E-03 0.  1.
        -12    1    3    3    0    0  0.11850558070E+02 -0.27823355138E+01 -0.98179050224E+01  0.15638682058E+02  0.00000000000E+00 0.  1.
</event>
<event>
 7    1  0.6065977E-013  0.5930195E+02  0.7816164E-02  0.1266605E+00
        -11   -1    0    0    0    0  0.00000000000E+00  0.00000000000E+00  0.45593999997E+02  0.45594000000E+02  0.51100000000E-03 0.  1.
         11   -1    0    0    0    0 -0.00000000000E+00 -0.00000000000E+00 -0.45593999997E+02  0.45594000000E+02  0.51100000000E-03 0. -1.
    9900012    2    1    2    0    0  0.27891336405E+02  0.75970829736E+01 -0.13456528515E+02  0.59301945433E+02  0.50000002563E+02 0.  0.
        -12    1    1    2    0    0 -0.27891336405E+02 -0.75970829736E+01  0.13456528515E+02  0.31886054567E+02  0.00000000000E+00 0.  1.
         11    1    3    3    0    0  0.53185823845E+01  0.58816996666E+01 -0.11001378872E+02  0.13561417584E+02  0.51100000000E-03 0. -1.
        -11    1    3    3    0    0  0.23324602291E+02 -0.16045779166E+00  0.15284010969E+02  0.27886624218E+02  0.51100000000E-03 0.  1.
        -12    1    3    3    0    0 -0.75184827006E+00  0.18758410986E+01 -0.17739160611E+02  0.17853903630E+02  0.00000000000E+00 0.  1.
</event>
<event>
 7    1  0.6065977E-013  0.5930193E+02  0.7816164E-02  0.1266605E+00
        -11   -1    0    0    0    0  0.00000000000E+00  0.00000000000E+00  0.45593999997E+02  0.45594000000E+02  0.51100000000E-03 0.  1.
         11   -1    0    0    0    0 -0.00000000000E+00 -0.00000000000E+00 -0.45593999997E+02  0.45594000000E+02  0.51100000000E-03 0. -1.
    9900012    2    1    2    0    0 -0.22403390598E+01 -0.27476726966E+02 -0.16022850985E+02  0.59301930980E+02  0.49999976205E+02 0.  0.
        -12    1    1    2    0    0  0.22403390598E+01  0.27476726966E+02  0.16022850985E+02  0.31886069020E+02  0.00000000000E+00 0.  1.
         11    1    3    3    0    0 -0.80053312111E+01  0.10555733911E+02 -0.11490907212E+02  0.17537097680E+02  0.51100000000E-03 0. -1.
        -11    1    3    3    0    0  0.10600763536E+02 -0.26739401570E+02 -0.60288913930E+01  0.29389101986E+02  0.51100000000E-03 0.  1.
        -12    1    3    3    0    0 -0.48357713846E+01 -0.11293059307E+02  0.14969476206E+01  0.12375731315E+02  0.00000000000E+00 0.  1.
</event>
<event>
 7    1  0.6065977E-013  0.5930193E+02  0.7816164E-02  0.1266605E+00
        -11   -1    0    0    0    0  0.00000000000E+00  0.00000000000E+00  0.45593999997E+02  0.45594000000E+02  0.51100000000E-03 0. -1.
         11   -1    0    0    0    0 -0.00000000000E+00 -0.00000000000E+00 -0.45593999997E+02  0.45594000000E+02  0.51100000000E-03 0.  1.
    9900012    2    1    2    0    0  0.68566390448E+00  0.12161518571E+01  0.31855491661E+02  0.59301929228E+02  0.49999973009E+02 0.  0.
        -12    1    1    2    0    0 -0.68566390448E+00 -0.12161518571E+01 -0.31855491661E+02  0.31886070772E+02  0.00000000000E+00 0.  1.
         11    1    3    3    0    0 -0.21914656361E+02 -0.53521519944E+01  0.11964677415E+02  0.25535293229E+02  0.51100000000E-03 0. -1.
        -11    1    3    3    0    0  0.75621233499E+01  0.50759763667E+00 -0.63953958480E+00  0.76060749446E+01  0.51100000000E-03 0.  1.
         12    1    3    3    0    0  0.15038196915E+02  0.60607062148E+01  0.20530353830E+02  0.26160561054E+02  0.00000000000E+00 0. -1.
</event>
<event>
 7    1  0.6065977E-013  0.5930190E+02  0.7816164E-02  0.1266605E+00
        -11   -1    0    0    0    0  0.00000000000E+00  0.00000000000E+00  0.45593999997E+02  0.45594000000E+02  0.51100000000E-03 0. -1.
         11   -1    0    0    0    0 -0.00000000000E+00 -0.00000000000E+00 -0.45593999997E+02  0.45594000000E+02  0.51100000000E-03 0.  1.
    9900012    2    1    2    0    0 -0.31244961965E+02  0.63314107775E+01 -0.62380980146E+00  0.59301897239E+02  0.49999914668E+02 0.  0.
        -12    1    1    2    0    0  0.31244961965E+02 -0.63314107775E+01  0.62380980146E+00  0.31886102761E+02  0.00000000000E+00 0.  1.
         11    1    3    3    0    0 -0.88264813814E+01 -0.11526805426E+02 -0.21843340986E+01  0.14681462210E+02  0.51100000000E-03 0. -1.
        -11    1    3    3    0    0 -0.10912308943E+02  0.94879508703E+01  0.17862766195E+02  0.22982125980E+02  0.51100000000E-03 0.  1.
        -12    1    3    3    0    0 -0.11506171641E+02  0.83702653332E+01 -0.16302241898E+02  0.21638309048E+02  0.00000000000E+00 0.  1.
</event>
<event>
 7    1  0.6065977E-013  0.5930194E+02  0.7816164E-02  0.1266605E+00
        -11   -1    0    0    0    0  0.00000000000E+00  0.00000000000E+00  0.45593999997E+02  0.45594000000E+02  0.51100000000E-03 0.  1.
         11   -1    0    0    0    0 -0.00000000000E+00 -0.00000000000E+00 -0.45593999997E+02  0.45594000000E+02  0.51100000000E-03 0. -1.
    9900012    2    1    2    0    0 -0.76543267300E+01  0.63310467968E+01 -0.30299340425E+02  0.59301938759E+02  0.49999990392E+02 0.  0.
        -12    1    1    2    0    0  0.76543267300E+01 -0.63310467968E+01  0.30299340425E+02  0.31886061241E+02  0.00000000000E+00 0.  1.
         11    1    3    3    0    0  0.59832192399E+01 -0.13020852213E+02 -0.12021323093E+02  0.18704376867E+02  0.51100000000E-03 0. -1.
        -11    1    3    3    0    0  0.27947866851E+01  0.10598598153E+02  0.39059371072E+01  0.11636041439E+02  0.51100000000E-03 0.  1.
        -12    1    3    3    0    0 -0.16432332655E+02  0.87533008562E+01 -0.22183954440E+02  0.28961520453E+02  0.00000000000E+00 0.  1.
</event>
<event>
 7    1  0.6065977E-013  0.5930196E+02  0.7816164E-02  0.1266605E+00
        -11   -1    0    0    0    0  0.00000000000E+00  0.00000000000E+00  0.45593999997E+02  0.45594000000E+02  0.51100000000E-03 0.  1.
         11   -1    0    0    0    0 -0.00000000000E+00 -0.00000000000E+00 -0.45593999997E+02  0.45594000000E+02  0.51100000000E-03 0. -1.
    9900012    2    1    2    0    0 -0.72061839122E+00  0.28875331109E+02  0.13506130716E+02  0.59301959097E+02  0.50000027483E+02 0.  0.
        -12    1    1    2    0    0  0.72061839122E+00 -0.28875331109E+02 -0.13506130716E+02  0.31886040903E+02  0.00000000000E+00 0.  1.
         11    1    3    3    0    0 -0.73825303906E+01  0.40882526546E+02  0.85692965208E+01  0.42418340077E+02  0.51100000000E-03 0. -1.
        -11    1    3    3    0    0  0.22052195047E+01 -0.10414772871E+02  0.93648901048E+00  0.10686790863E+02  0.51100000000E-03 0.  1.
         12    1    3    3    0    0  0.44566924947E+01 -0.15924225662E+01  0.40003451848E+01  0.61968281580E+01  0.00000000000E+00 0. -1.
</event>
<event>
 7    1  0.6065977E-013  0.5930194E+02  0.7816164E-02  0.1266605E+00
        -11   -1    0    0    0    0  0.00000000000E+00  0.00000000000E+00  0.45593999997E+02  0.45594000000E+02  0.51100000000E-03 0.  1.
         11   -1    0    0    0    0 -0.00000000000E+00 -0.00000000000E+00 -0.45593999997E+02  0.45594000000E+02  0.51100000000E-03 0. -1.
    9900012    2    1    2    0    0  0.71481284525E+01 -0.30648291513E+02 -0.51290960245E+01  0.59301935033E+02  0.49999983596E+02 0.  0.
        -12    1    1    2    0    0 -0.71481284525E+01  0.30648291513E+02  0.51290960245E+01  0.31886064967E+02  0.00000000000E+00 0.  1.
         11    1    3    3    0    0  0.84655103990E-01  0.64610117263E+01 -0.83954479705E+01  0.10594120346E+02  0.51100000000E-03 0. -1.
        -11    1    3    3    0    0 -0.77060692736E+01 -0.32051914854E+02  0.15398284640E+01  0.33001209393E+02  0.51100000000E-03 0.  1.
        -12    1    3    3    0    0  0.14769542622E+02 -0.50573883857E+01  0.17265234820E+01  0.15706605295E+02  0.00000000000E+00 0.  1.
</event>
<event>
 7    1  0.6065977E-013  0.5930198E+02  0.7816164E-02  0.1266605E+00
        -11   -1    0    0    0    0  0.00000000000E+00  0.00000000000E+00  0.45593999997E+02  0.45594000000E+02  0.51100000000E-03 0. -1.
         11   -1    0    0    0    0 -0.00000000000E+00 -0.00000000000E+00 -0.45593999997E+02  0.45594000000E+02  0.51100000000E-03 0.  1.
    9900012    2    1    2    0    0  0.28846903299E+02  0.42676595611E+01  0.12898133066E+02  0.59301975088E+02  0.50000056647E+02 0.  0.
        -12    1    1    2    0    0 -0.28846903299E+02 -0.42676595611E+01 -0.12898133066E+02  0.31886024912E+02  0.00000000000E+00 0.  1.
         11    1    3    3    0    0 -0.11627353858E+02  0.76916400803E+01  0.57234305375E+01  0.15070313276E+02  0.51100000000E-03 0. -1.
        -11    1    3    3    0    0  0.15043554786E+02  0.64387761893E+01  0.23338584898E+01  0.16529164381E+02  0.51100000000E-03 0.  1.
         12    1    3    3    0    0  0.25430702370E+02 -0.98627567084E+01  0.48408440385E+01  0.27702497432E+02  0.00000000000E+00 0. -1.
</event>
<event>
 7    1  0.6065977E-013  0.5930187E+02  0.7816164E-02  0.1266605E+00
        -11   -1    0    0    0    0  0.00000000000E+00  0.00000000000E+00  0.45593999997E+02  0.45594000000E+02  0.51100000000E-03 0. -1.
         11   -1    0    0    0    0 -0.00000000000E+00 -0.00000000000E+00 -0.45593999997E+02  0.45594000000E+02  0.51100000000E-03 0.  1.
    9900012    2    1    2    0    0 -0.19520470057E+02 -0.21370398170E+02  0.13378435232E+02  0.59301871379E+02  0.49999867505E+02 0.  0.
        -12    1    1    2    0    0  0.19520470057E+02  0.21370398170E+02 -0.13378435232E+02  0.31886128621E+02  0.00000000000E+00 0.  1.
         11    1    3    3    0    0 -0.25453758548E+01 -0.11871053171E+02 -0.38492200608E+01  0.12736457002E+02  0.51100000000E-03 0. -1.
        -11    1    3    3    0    0 -0.12333494010E+02 -0.19536971962E+02  0.24226976844E+02  0.33477675474E+02  0.51100000000E-03 0.  1.
        -12    1    3    3    0    0 -0.46416001929E+01  0.10037626963E+02 -0.69993215505E+01  0.13087738902E+02  0.00000000000E+00 0.  1.
</event>
<event>
 7    1  0.6065977E-013  0.5930195E+02  0.7816164E-02  0.1266605E+00
        -11   -1    0    0    0    0  0.00000000000E+00  0.00000000000E+00  0.45593999997E+02  0.45594000000E+02  0.51100000000E-03 0. -1.
         11   -1    0    0    0    0 -0.00000000000E+00 -0.00000000000E+00 -0.45593999997E+02  0.45594000000E+02  0.51100000000E-03 0.  1.
    9900012    2    1    2    0    0  0.67951893625E+01 -0.50382071602E+01  0.30743489987E+02  0.59301948090E+02  0.50000007408E+02 0.  0.
        -12    1    1    2    0    0 -0.67951893625E+01  0.50382071602E+01 -0.30743489987E+02  0.31886051910E+02  0.00000000000E+00 0.  1.
         11    1    3    3    0    0  0.90472905143E+00 -0.78572230820E+01  0.31907748506E+01  0.85285129785E+01  0.51100000000E-03 0. -1.
        -11    1    3    3    0    0  0.22829873759E+02  0.78270108788E+01  0.20806077663E+02  0.31864684263E+02  0.51100000000E-03 0.  1.
        -12    1    3    3    0    0 -0.16939413448E+02 -0.50079949571E+01  0.67466374730E+01  0.18908750849E+02  0.00000000000E+00 0.  1.
</event>
<event>
 7    1  0.6065977E-013  0.5930192E+02  0.7816164E-02  0.1266605E+00
        -11   -1    0    0    0    0  0.00000000000E+00  0.00000000000E+00  0.45593999997E+02  0.45594000000E+02  0.51100000000E-03 0.  1.
         11   -1    0    0    0    0 -0.00000000000E+00 -0.00000000000E+00 -0.45593999997E+02  0.45594000000E+02  0.51100000000E-03 0. -1.
    9900012    2    1    2    0    0  0.76032682446E+01 -0.16902433137E+02 -0.25946481553E+02  0.59301924059E+02  0.49999963581E+02 0.  0.
        -12    1    1    2    0    0 -0.76032682446E+01  0.16902433137E+02  0.25946481553E+02  0.31886075941E+02  0.00000000000E+00 0.  1.
         11    1    3    3    0    0  0.12330809207E+02 -0.63853214298E+01 -0.10849201050E+02  0.17621757833E+02  0.51100000000E-03 0. -1.
        -11    1    3    3    0    0 -0.17153996137E+02  0.45755248950E+01 -0.13991563415E+01  0.17808780145E+02  0.51100000000E-03 0.  1.
        -12    1    3    3    0    0  0.12426455175E+02 -0.15092636603E+02 -0.13698124161E+02  0.23871386080E+02  0.00000000000E+00 0.  1.
</event>
<event>
 7    1  0.6065977E-013  0.5930194E+02  0.7816164E-02  0.1266605E+00
        -11   -1    0    0    0    0  0.00000000000E+00  0.00000000000E+00  0.45593999997E+02  0.45594000000E+02  0.51100000000E-03 0.  1.
         11   -1    0    0    0    0 -0.00000000000E+00 -0.00000000000E+00 -0.45593999997E+02  0.45594000000E+02  0.51100000000E-03 0. -1.
    9900012    2    1    2    0    0 -0.30764401504E+02 -0.81441705562E+00 -0.83432132634E+01  0.59301939055E+02  0.49999990932E+02 0.  0.
        -12    1    1    2    0    0  0.30764401504E+02  0.81441705562E+00  0.83432132634E+01  0.31886060945E+02  0.00000000000E+00 0.  1.
         11    1    3    3    0    0 -0.28953368875E+02  0.10529911444E+02 -0.10255847574E+02  0.32470894874E+02  0.51100000000E-03 0. -1.
        -11    1    3    3    0    0  0.10622717215E+02 -0.29083242685E+01  0.38804944493E+01  0.11677273162E+02  0.51100000000E-03 0.  1.
         12    1    3    3    0    0 -0.12433749843E+02 -0.84360042314E+01 -0.19678601389E+01  0.15153771019E+02  0.00000000000E+00 0. -1.
</event>
<event>
 7    1  0.6065977E-013  0.5930184E+02  0.7816164E-02  0.1266605E+00
        -11   -1    0    0    0    0  0.00000000000E+00  0.00000000000E+00  0.45593999997E+02  0.45594000000E+02  0.51100000000E-03 0.  1.
         11   -1    0    0    0    0 -0.00000000000E+00 -0.00000000000E+00 -0.45593999997E+02  0.45594000000E+02  0.51100000000E-03 0. -1.
    9900012    2    1    2    0    0 -0.19199005745E+02  0.21734855453E+02 -0.13255990875E+02  0.59301842232E+02  0.49999814349E+02 0.  0.
        -12    1    1    2    0    0  0.19199005745E+02 -0.21734855453E+02  0.13255990875E+02  0.31886157768E+02  0.00000000000E+00 0.  1.
         11    1    3    3    0    0 -0.50537048169E+01  0.25597505090E+02  0.11113857253E+02  0.28360007450E+02  0.51100000000E-03 0. -1.
        -11    1    3    3    0    0 -0.10755617661E+02 -0.65776888792E+01 -0.23263512042E+02  0.26460164305E+02  0.51100000000E-03 0.  1.
         12    1    3    3    0    0 -0.33896832668E+01  0.27150392415E+01 -0.11063360857E+01  0.44816704773E+01  0.00000000000E+00 0. -1.
</event>
<event>
 7    1  0.6065977E-013  0.5930194E+02  0.7816164E-02  0.1266605E+00
        -11   -1    0    0    0    0  0.00000000000E+00  0.00000000000E+00  0.45593999997E+02  0.45594000000E+02  0.51100000000E-03 0.  1.
         11   -1    0    0    0    0 -0.00000000000E+00 -0.00000000000E+00 -0.45593999997E+02  0.45594000000E+02  0.51100000000E-03 0. -1.
    9900012    2    1    2    0    0  0.18205633604E+02 -0.59096711797E+01 -0.25501986243E+02  0.59301943318E+02  0.49999998706E+02 0.  0.
        -12    1    1    2    0    0 -0.18205633604E+02  0.59096711797E+01  0.25501986243E+02  0.31886056682E+02  0.00000000000E+00 0.  1.
         11    1    3    3    0    0  0.18352096387E+01 -0.18548742983E+02 -0.16181953536E+02  0.24683587283E+02  0.51100000000E-03 0. -1.
        -11    1    3    3    0    0  0.47192144564E+00 -0.25180683065E+01  0.68690318022E+01  0.73312329118E+01  0.51100000000E-03 0.  1.
         12    1    3    3    0    0  0.15898502519E+02  0.15157140110E+02 -0.16189064509E+02  0.27287123123E+02  0.00000000000E+00 0. -1.
</event>
<event>
 7    1  0.6065977E-013  0.5930196E+02  0.7816164E-02  0.1266605E+00
        -11   -1    0    0    0    0  0.00000000000E+00  0.00000000000E+00  0.45593999997E+02  0.45594000000E+02  0.51100000000E-03 0.  1.
         11   -1    0    0    0    0 -0.00000000000E+00 -0.00000000000E+00 -0.45593999997E+02  0.45594000000E+02  0.51100000000E-03 0. -1.
    9900012    2    1    2    0    0  0.12654390096E+02 -0.20598541836E+02 -0.20791485555E+02  0.59301962522E+02  0.50000033728E+02 0.  0.
        -12    1    1    2    0    0 -0.12654390096E+02  0.20598541836E+02  0.20791485555E+02  0.31886037478E+02  0.00000000000E+00 0.  1.
         11    1    3    3    0    0 -0.48792723526E+00 -0.31751236053E+01 -0.25567748033E+02  0.25768764476E+02  0.51100000000E-03 0.  1.
        -11    1    3    3    0    0  0.83064844455E+00 -0.86369065372E+01  0.13518152744E+02  0.16063205946E+02  0.51100000000E-03 0. -1.
         12    1    3    3    0    0  0.12311668887E+02 -0.87865116937E+01 -0.87418902670E+01  0.17469992100E+02  0.00000000000E+00 0. -1.
</event>
<event>
 7    1  0.6065977E-013  0.5930193E+02  0.7816164E-02  0.1266605E+00
        -11   -1    0    0    0    0  0.00000000000E+00  0.00000000000E+00  0.45593999997E+02  0.45594000000E+02  0.51100000000E-03 0.  1.
         11   -1    0    0    0    0 -0.00000000000E+00 -0.00000000000E+00 -0.45593999997E+02  0.45594000000E+02  0.51100000000E-03 0. -1.
    9900012    2    1    2    0    0  0.16476367426E+02  0.35235624972E+01 -0.27070929479E+02  0.59301930956E+02  0.49999976161E+02 0.  0.
        -12    1    1    2    0    0 -0.16476367426E+02 -0.35235624972E+01  0.27070929479E+02  0.31886069044E+02  0.00000000000E+00 0.  1.
         11    1    3    3    0    0  0.16582002471E+02  0.18636997882E+01 -0.77346424162E+01  0.18391869846E+02  0.51100000000E-03 0. -1.
        -11    1    3    3    0    0 -0.56322358517E+01 -0.14944240789E+02 -0.16882041431E+02  0.23239099307E+02  0.51100000000E-03 0.  1.
        -12    1    3    3    0    0  0.55266008063E+01  0.16604103498E+02 -0.24542456311E+01  0.17670961804E+02  0.00000000000E+00 0.  1.
</event>
<event>
 7    1  0.6065977E-013  0.5930199E+02  0.7816164E-02  0.1266605E+00
        -11   -1    0    0    0    0  0.00000000000E+00  0.00000000000E+00  0.45593999997E+02  0.45594000000E+02  0.51100000000E-03 0. -1.
         11   -1    0    0    0    0 -0.00000000000E+00 -0.00000000000E+00 -0.45593999997E+02  0.45594000000E+02  0.51100000000E-03 0.  1.
    9900012    2    1    2    0    0 -0.79620139922E+01  0.26932763475E+01  0.30758256276E+02  0.59301988436E+02  0.50000080991E+02 0.  0.
        -12    1    1    2    0    0  0.79620139922E+01 -0.26932763475E+01 -0.30758256276E+02  0.31886011564E+02  0.00000000000E+00 0.  1.
         11    1    3    3    0    0  0.58613332542E+01 -0.94200051641E+01  0.29043390974E+02  0.31090356774E+02  0.51100000000E-03 0. -1.
        -11    1    3    3    0    0 -0.16949941603E+02  0.27170073821E+01  0.48256860523E+01  0.17831710395E+02  0.51100000000E-03 0.  1.
         12    1    3    3    0    0  0.31265943565E+01  0.93962741295E+01 -0.31108207501E+01  0.10379921268E+02  0.00000000000E+00 0. -1.
</event>
<event>
 7    1  0.6065977E-013  0.5930195E+02  0.7816164E-02  0.1266605E+00
        -11   -1    0    0    0    0  0.00000000000E+00  0.00000000000E+00  0.45593999997E+02  0.45594000000E+02  0.51100000000E-03 0. -1.
         11   -1    0    0    0    0 -0.00000000000E+00 -0.00000000000E+00 -0.45593999997E+02  0.45594000000E+02  0.51100000000E-03 0.  1.
    9900012    2    1    2    0    0  0.40308540537E+01  0.12443787091E+01  0.31605758727E+02  0.59301949014E+02  0.50000009094E+02 0.  0.
        -12    1    1    2    0    0 -0.40308540537E+01 -0.12443787091E+01 -0.31605758727E+02  0.31886050986E+02  0.00000000000E+00 0.  1.
         11    1    3    3    0    0  0.62021061277E+01  0.75385035901E+01  0.22022445964E+02  0.24089069789E+02  0.51100000000E-03 0. -1.
        -11    1    3    3    0    0 -0.93831800969E+01 -0.17642179384E+02  0.28799666231E+01  0.20188728790E+02  0.51100000000E-03 0.  1.
        -12    1    3    3    0    0  0.72119280229E+01  0.11348054503E+02  0.67033461398E+01  0.15024150435E+02  0.00000000000E+00 0.  1.
</event>
<event>
 7    1  0.6065977E-013  0.5930192E+02  0.7816164E-02  0.1266605E+00
        -11   -1    0    0    0    0  0.00000000000E+00  0.00000000000E+00  0.45593999997E+02  0.45594000000E+02  0.51100000000E-03 0.  1.
         11   -1    0    0    0    0 -0.00000000000E+00 -0.00000000000E+00 -0.45593999997E+02  0.45594000000E+02  0.51100000000E-03 0. -1.
    9900012    2    1    2    0    0 -0.22604591430E+02 -0.17869441547E+02 -0.13654219752E+02  0.59301918209E+02  0.49999952914E+02 0.  0.
        -12    1    1    2    0    0  0.22604591430E+02  0.17869441547E+02  0.13654219752E+02  0.31886081791E+02  0.00000000000E+00 0.  1.
         11    1    3    3    0    0  0.55204306504E+01  0.11174721446E+02 -0.13993666812E+01  0.12542239885E+02  0.51100000000E-03 0. -1.
        -11    1    3    3    0    0 -0.54390184464E-01 -0.10846040249E+02 -0.69666907560E+01  0.12890862179E+02  0.51100000000E-03 0.  1.
         12    1    3    3    0    0 -0.28070631896E+02 -0.18198122743E+02 -0.52881623149E+01  0.33868816145E+02  0.00000000000E+00 0. -1.
</event>
<event>
 7    1  0.6065977E-013  0.5930194E+02  0.7816164E-02  0.1266605E+00
        -11   -1    0    0    0    0  0.00000000000E+00  0.00000000000E+00  0.45593999997E+02  0.45594000000E+02  0.51100000000E-03 0. -1.
         11   -1    0    0    0    0 -0.00000000000E+00 -0.00000000000E+00 -0.45593999997E+02  0.45594000000E+02  0.51100000000E-03 0.  1.
    9900012    2    1    2    0    0 -0.26757486526E+02 -0.84197850346E+01  0.15161287528E+02  0.59301944980E+02  0.50000001737E+02 0.  0.
        -12    1    1    2    0    0  0.26757486526E+02  0.84197850346E+01 -0.15161287528E+02  0.31886055020E+02  0.00000000000E+00 0.  1.
         11    1    3    3    0    0  0.11898777648E+02 -0.85985855509E+01  0.69229302124E+01  0.16230944088E+02  0.51100000000E-03 0. -1.
        -11    1    3    3    0    0 -0.10568084773E+02  0.28411352986E+00 -0.53724106838E+01  0.11858664895E+02  0.51100000000E-03 0.  1.
         12    1    3    3    0    0 -0.28088179401E+02 -0.10531301350E+00  0.13610767999E+02  0.31212335998E+02  0.00000000000E+00 0. -1.
</event>
<event>
 7    1  0.6065977E-013  0.5930201E+02  0.7816164E-02  0.1266605E+00
        -11   -1    0    0    0    0  0.00000000000E+00  0.00000000000E+00  0.45593999997E+02  0.45594000000E+02  0.51100000000E-03 0.  1.
         11   -1    0    0    0    0 -0.00000000000E+00 -0.00000000000E+00 -0.45593999997E+02  0.45594000000E+02  0.51100000000E-03 0. -1.
    9900012    2    1    2    0    0 -0.55906659348E+01  0.20481290864E+02 -0.23790283714E+02  0.59302009028E+02  0.50000118545E+02 0.  0.
        -12    1    1    2    0    0  0.55906659348E+01 -0.20481290864E+02  0.23790283714E+02  0.31885990972E+02  0.00000000000E+00 0.  1.
         11    1    3    3    0    0  0.54729763254E+01  0.23750276997E+02  0.52088902670E+01  0.24923115082E+02  0.51100000000E-03 0.  1.
        -11    1    3    3    0    0 -0.35952607434E+01  0.17720640942E+01 -0.23464362689E+02  0.23804252301E+02  0.51100000000E-03 0. -1.
         12    1    3    3    0    0 -0.74683815168E+01 -0.50410502277E+01 -0.55348112922E+01  0.10574641645E+02  0.00000000000E+00 0. -1.
</event>
<event>
 7    1  0.6065977E-013  0.5930192E+02  0.7816164E-02  0.1266605E+00
        -11   -1    0    0    0    0  0.00000000000E+00  0.00000000000E+00  0.45593999997E+02  0.45594000000E+02  0.51100000000E-03 0.  1.
         11   -1    0    0    0    0 -0.00000000000E+00 -0.00000000000E+00 -0.45593999997E+02  0.45594000000E+02  0.51100000000E-03 0. -1.
    9900012    2    1    2    0    0 -0.20899124273E+02  0.20954300773E+02 -0.11868704864E+02  0.59301917277E+02  0.49999951214E+02 0.  0.
        -12    1    1    2    0    0  0.20899124273E+02 -0.20954300773E+02  0.11868704864E+02  0.31886082723E+02  0.00000000000E+00 0.  1.
         11    1    3    3    0    0 -0.55038398260E+01 -0.49522167168E+01 -0.13882806550E+02  0.15733690641E+02  0.51100000000E-03 0. -1.
        -11    1    3    3    0    0 -0.17922687434E+02  0.18370189218E+02  0.13962687964E+02  0.29217173583E+02  0.51100000000E-03 0.  1.
        -12    1    3    3    0    0  0.25274029872E+01  0.75363282712E+01 -0.11948586278E+02  0.14351053053E+02  0.00000000000E+00 0.  1.
</event>
<event>
 7    1  0.6065977E-013  0.5930194E+02  0.7816164E-02  0.1266605E+00
        -11   -1    0    0    0    0  0.00000000000E+00  0.00000000000E+00  0.45593999997E+02  0.45594000000E+02  0.51100000000E-03 0.  1.
         11   -1    0    0    0    0 -0.00000000000E+00 -0.00000000000E+00 -0.45593999997E+02  0.45594000000E+02  0.51100000000E-03 0. -1.
    9900012    2    1    2    0    0  0.13673160240E+02  0.27833369614E+02 -0.74208405762E+01  0.59301942704E+02  0.49999997586E+02 0.  0.
        -12    1    1    2    0    0 -0.13673160240E+02 -0.27833369614E+02  0.74208405762E+01  0.31886057296E+02  0.00000000000E+00 0.  1.
         11    1    3    3    0    0 -0.18084167905E+02  0.82556503795E+01 -0.41680586598E+01  0.20311711037E+02  0.51100000000E-03 0. -1.
        -11    1    3    3    0    0  0.13121672434E+02  0.47842591869E+01 -0.56710333716E+01  0.15074085153E+02  0.51100000000E-03 0.  1.
         12    1    3    3    0    0  0.18635655712E+02  0.14793460047E+02  0.24182514552E+01  0.23916146514E+02  0.00000000000E+00 0. -1.
</event>
<event>
 7    1  0.6065977E-013  0.5930194E+02  0.7816164E-02  0.1266605E+00
        -11   -1    0    0    0    0  0.00000000000E+00  0.00000000000E+00  0.45593999997E+02  0.45594000000E+02  0.51100000000E-03 0.  1.
         11   -1    0    0    0    0 -0.00000000000E+00 -0.00000000000E+00 -0.45593999997E+02  0.45594000000E+02  0.51100000000E-03 0. -1.
    9900012    2    1    2    0    0 -0.37800034674E+01  0.20321567227E+02 -0.24278921986E+02  0.59301943900E+02  0.49999999768E+02 0.  0.
        -12    1    1    2    0    0  0.37800034674E+01 -0.20321567227E+02  0.24278921986E+02  0.31886056100E+02  0.00000000000E+00 0.  1.
         11    1    3    3    0    0 -0.74728168341E+01  0.15379303483E+02 -0.23119567865E+01  0.17254307042E+02  0.51100000000E-03 0. -1.
        -11    1    3    3    0    0 -0.93519471925E+01 -0.44445966913E+01  0.43343329679E+01  0.11224963188E+02  0.51100000000E-03 0.  1.
         12    1    3    3    0    0  0.13044760559E+02  0.93868604352E+01 -0.26301298167E+02  0.30822673670E+02  0.00000000000E+00 0. -1.
</event>
<event>
 7    1  0.6065977E-013  0.5930193E+02  0.7816164E-02  0.1266605E+00
        -11   -1    0    0    0    0  0.00000000000E+00  0.00000000000E+00  0.45593999997E+02  0.45594000000E+02  0.51100000000E-03 0.  1.
         11   -1    0    0    0    0 -0.00000000000E+00 -0.00000000000E+00 -0.45593999997E+02  0.45594000000E+02  0.51100000000E-03 0. -1.
    9900012    2    1    2    0    0 -0.98730093717E+01  0.12198294547E+02 -0.27756921504E+02  0.59301931016E+02  0.49999976270E+02 0.  0.
        -12    1    1    2    0    0  0.98730093717E+01 -0.12198294547E+02  0.27756921504E+02  0.31886068984E+02  0.00000000000E+00 0.  1.
         11    1    3    3    0    0  0.11678091063E+00  0.40485941578E+01 -0.29958294482E+02  0.30230847837E+02  0.51100000000E-03 0. -1.
        -11    1    3    3    0    0 -0.36455217012E+01  0.10112305478E+01  0.13648561083E+02  0.14163178866E+02  0.51100000000E-03 0.  1.
         12    1    3    3    0    0 -0.63442685811E+01  0.71384698411E+01 -0.11447188104E+02  0.14907904313E+02  0.00000000000E+00 0. -1.
</event>
<event>
 7    1  0.6065977E-013  0.5930196E+02  0.7816164E-02  0.1266605E+00
        -11   -1    0    0    0    0  0.00000000000E+00  0.00000000000E+00  0.45593999997E+02  0.45594000000E+02  0.51100000000E-03 0. -1.
         11   -1    0    0    0    0 -0.00000000000E+00 -0.00000000000E+00 -0.45593999997E+02  0.45594000000E+02  0.51100000000E-03 0.  1.
    9900012    2    1    2    0    0  0.54336655271E+01 -0.27738158262E+01  0.31296979624E+02  0.59301957459E+02  0.50000024496E+02 0.  0.
        -12    1    1    2    0    0 -0.54336655271E+01  0.27738158262E+01 -0.31296979624E+02  0.31886042541E+02  0.00000000000E+00 0.  1.
         11    1    3    3    0    0 -0.58504178334E-01 -0.57492828839E+01  0.29098581173E+02  0.29661171638E+02  0.51100000000E-03 0. -1.
        -11    1    3    3    0    0  0.12758929152E+02 -0.69695505101E+01 -0.50004392789E+01  0.15374306510E+02  0.51100000000E-03 0.  1.
        -12    1    3    3    0    0 -0.72667594462E+01  0.99450175678E+01  0.71988377304E+01  0.14266479311E+02  0.00000000000E+00 0.  1.
</event>
<event>
 7    1  0.6065977E-013  0.5930195E+02  0.7816164E-02  0.1266605E+00
        -11   -1    0    0    0    0  0.00000000000E+00  0.00000000000E+00  0.45593999997E+02  0.45594000000E+02  0.51100000000E-03 0.  1.
         11   -1    0    0    0    0 -0.00000000000E+00 -0.00000000000E+00 -0.45593999997E+02  0.45594000000E+02  0.51100000000E-03 0. -1.
    9900012    2    1    2    0    0  0.20463024221E+02 -0.18306212372E+02 -0.16213178700E+02  0.59301953910E+02  0.50000018023E+02 0.  0.
        -12    1    1    2    0    0 -0.20463024221E+02  0.18306212372E+02  0.16213178700E+02  0.31886046090E+02  0.00000000000E+00 0.  1.
         11    1    3    3    0    0 -0.44138977556E+01 -0.11273850956E+02 -0.13405376712E+02  0.18063397627E+02  0.51100000000E-03 0. -1.
        -11    1    3    3    0    0  0.62754713131E+01  0.11789347722E+02  0.39486243241E+01  0.13927020293E+02  0.51100000000E-03 0.  1.
        -12    1    3    3    0    0  0.18601450663E+02 -0.18821709138E+02 -0.67564263120E+01  0.27311535991E+02  0.00000000000E+00 0.  1.
</event>
<event>
 7    1  0.6065977E-013  0.5930197E+02  0.7816164E-02  0.1266605E+00
        -11   -1    0    0    0    0  0.00000000000E+00  0.00000000000E+00  0.45593999997E+02  0.45594000000E+02  0.51100000000E-03 0. -1.
         11   -1    0    0    0    0 -0.00000000000E+00 -0.00000000000E+00 -0.45593999997E+02  0.45594000000E+02  0.51100000000E-03 0.  1.
    9900012    2    1    2    0    0 -0.12902410692E+02 -0.15719532456E+02  0.24558973517E+02  0.59301967281E+02  0.50000042409E+02 0.  0.
        -12    1    1    2    0    0  0.12902410692E+02  0.15719532456E+02 -0.24558973517E+02  0.31886032719E+02  0.00000000000E+00 0.  1.
         11    1    3    3    0    0  0.29921679048E+01  0.86821284575E+01  0.25389990677E+02  0.26999704631E+02  0.51100000000E-03 0. -1.
        -11    1    3    3    0    0 -0.15571483982E+02 -0.22593888914E+02 -0.48668297528E+01  0.27868278773E+02  0.51100000000E-03 0.  1.
        -12    1    3    3    0    0 -0.32309461438E+00 -0.18077719994E+01  0.40358125928E+01  0.44339838763E+01  0.00000000000E+00 0.  1.
</event>
<event>
 7    1  0.6065977E-013  0.5930194E+02  0.7816164E-02  0.1266605E+00
        -11   -1    0    0    0    0  0.00000000000E+00  0.00000000000E+00  0.45593999997E+02  0.45594000000E+02  0.51100000000E-03 0.  1.
         11   -1    0    0    0    0 -0.00000000000E+00 -0.00000000000E+00 -0.45593999997E+02  0.45594000000E+02  0.51100000000E-03 0. -1.
    9900012    2    1    2    0    0  0.12619501632E+02  0.19714823039E+02 -0.21651666574E+02  0.59301941380E+02  0.49999995171E+02 0.  0.
        -12    1    1    2    0    0 -0.12619501632E+02 -0.19714823039E+02  0.21651666574E+02  0.31886058620E+02  0.00000000000E+00 0.  1.
         11    1    3    3    0    0  0.13582641640E+02 -0.25257338843E+01  0.41800754266E+01  0.14434005556E+02  0.51100000000E-03 0. -1.
        -11    1    3    3    0    0 -0.41719208174E+01  0.22263658754E+02 -0.42468756381E+01  0.23045853800E+02  0.51100000000E-03 0.  1.
        -12    1    3    3    0    0  0.32087808096E+01 -0.23101830344E-01 -0.21584866362E+02  0.21822082024E+02  0.00000000000E+00 0.  1.
</event>
<event>
 7    1  0.6065977E-013  0.5930195E+02  0.7816164E-02  0.1266605E+00
        -11   -1    0    0    0    0  0.00000000000E+00  0.00000000000E+00  0.45593999997E+02  0.45594000000E+02  0.51100000000E-03 0. -1.
         11   -1    0    0    0    0 -0.00000000000E+00 -0.00000000000E+00 -0.45593999997E+02  0.45594000000E+02  0.51100000000E-03 0.  1.
    9900012    2    1    2    0    0  0.12263693605E+02 -0.23205317092E+02  0.18106220267E+02  0.59301950785E+02  0.50000012324E+02 0.  0.
        -12    1    1    2    0    0 -0.12263693605E+02  0.23205317092E+02 -0.18106220267E+02  0.31886049215E+02  0.00000000000E+00 0.  1.
         11    1    3    3    0    0  0.24050199909E+02 -0.11956793638E+02  0.21359325645E+01  0.26943259601E+02  0.51100000000E-03 0. -1.
        -11    1    3    3    0    0 -0.81916324978E+01  0.48203274940E+01  0.12289912537E+00  0.95054460487E+01  0.51100000000E-03 0.  1.
         12    1    3    3    0    0 -0.35948738061E+01 -0.16068850948E+02  0.15847388577E+02  0.22853245135E+02  0.00000000000E+00 0. -1.
</event>
<event>
 7    1  0.6065977E-013  0.5930210E+02  0.7816164E-02  0.1266604E+00
        -11   -1    0    0    0    0  0.00000000000E+00  0.00000000000E+00  0.45593999997E+02  0.45594000000E+02  0.51100000000E-03 0.  1.
         11   -1    0    0    0    0 -0.00000000000E+00 -0.00000000000E+00 -0.45593999997E+02  0.45594000000E+02  0.51100000000E-03 0. -1.
    9900012    2    1    2    0    0  0.14296918669E+02 -0.15055234872E+02 -0.24200173351E+02  0.59302103890E+02  0.50000291550E+02 0.  0.
        -12    1    1    2    0    0 -0.14296918669E+02  0.15055234872E+02  0.24200173351E+02  0.31885896110E+02  0.00000000000E+00 0.  1.
         11    1    3    3    0    0  0.15004555480E+02 -0.35910417932E+01  0.87262184446E+01  0.17725099575E+02  0.51100000000E-03 0. -1.
        -11    1    3    3    0    0  0.38618924632E+00 -0.18322823564E+02 -0.25575873900E+02  0.31464270713E+02  0.51100000000E-03 0.  1.
         12    1    3    3    0    0 -0.10938260576E+01  0.68586304852E+01 -0.73505178962E+01  0.10112733603E+02  0.00000000000E+00 0. -1.
</event>
<event>
 7    1  0.6065977E-013  0.5930196E+02  0.7816164E-02  0.1266605E+00
        -11   -1    0    0    0    0  0.00000000000E+00  0.00000000000E+00  0.45593999997E+02  0.45594000000E+02  0.51100000000E-03 0.  1.
         11   -1    0    0    0    0 -0.00000000000E+00 -0.00000000000E+00 -0.45593999997E+02  0.45594000000E+02  0.51100000000E-03 0. -1.
    9900012    2    1    2    0    0 -0.64905884491E+01 -0.13036781904E+02 -0.28366077098E+02  0.59301956803E+02  0.50000023299E+02 0.  0.
        -12    1    1    2    0    0  0.64905884491E+01  0.13036781904E+02  0.28366077098E+02  0.31886043197E+02  0.00000000000E+00 0.  1.
         11    1    3    3    0    0 -0.47525254367E+01 -0.19116822710E+02 -0.35682189138E+02  0.40758533223E+02  0.51100000000E-03 0. -1.
        -11    1    3    3    0    0  0.42071668773E+01  0.92155527818E+01  0.57250633450E+01  0.11636280195E+02  0.51100000000E-03 0.  1.
         12    1    3    3    0    0 -0.59452298896E+01 -0.31355119760E+01  0.15910486952E+01  0.69071433851E+01  0.00000000000E+00 0. -1.
</event>
<event>
 7    1  0.6065977E-013  0.5930199E+02  0.7816164E-02  0.1266605E+00
        -11   -1    0    0    0    0  0.00000000000E+00  0.00000000000E+00  0.45593999997E+02  0.45594000000E+02  0.51100000000E-03 0.  1.
         11   -1    0    0    0    0 -0.00000000000E+00 -0.00000000000E+00 -0.45593999997E+02  0.45594000000E+02  0.51100000000E-03 0. -1.
    9900012    2    1    2    0    0  0.81145165563E+01 -0.23422820723E+02 -0.20056022194E+02  0.59301985263E+02  0.50000075203E+02 0.  0.
        -12    1    1    2    0    0 -0.81145165563E+01  0.23422820723E+02  0.20056022194E+02  0.31886014737E+02  0.00000000000E+00 0.  1.
         11    1    3    3    0    0 -0.36573515404E+01 -0.14517530238E+02  0.73888123762E+00  0.14989357899E+02  0.51100000000E-03 0. -1.
        -11    1    3    3    0    0  0.71416058772E+01  0.12144588058E+02  0.38587232068E+00  0.14094057305E+02  0.51100000000E-03 0.  1.
         12    1    3    3    0    0  0.46302622194E+01 -0.21049878544E+02 -0.21180775752E+02  0.30218570058E+02  0.00000000000E+00 0. -1.
</event>
<event>
 7    1  0.6065977E-013  0.5930196E+02  0.7816164E-02  0.1266605E+00
        -11   -1    0    0    0    0  0.00000000000E+00  0.00000000000E+00  0.45593999997E+02  0.45594000000E+02  0.51100000000E-03 0.  1.
         11   -1    0    0    0    0 -0.00000000000E+00 -0.00000000000E+00 -0.45593999997E+02  0.45594000000E+02  0.51100000000E-03 0. -1.
    9900012    2    1    2    0    0 -0.23861539285E+02 -0.20811059597E+02 -0.37744647588E+01  0.59301955359E+02  0.50000020666E+02 0.  0.
        -12    1    1    2    0    0  0.23861539285E+02  0.20811059597E+02  0.37744647588E+01  0.31886044641E+02  0.00000000000E+00 0.  1.
         11    1    3    3    0    0 -0.14346407462E+02 -0.21281585449E+02 -0.18869262410E+02  0.31855523076E+02  0.51100000000E-03 0. -1.
        -11    1    3    3    0    0 -0.13785575569E+02  0.25319020463E+01  0.17259450059E+02  0.22233785965E+02  0.51100000000E-03 0.  1.
        -12    1    3    3    0    0  0.42704437452E+01 -0.20613761946E+01 -0.21646524070E+01  0.52126463183E+01  0.00000000000E+00 0.  1.
</event>
<event>
 7    1  0.6065977E-013  0.5930194E+02  0.7816164E-02  0.1266605E+00
        -11   -1    0    0    0    0  0.00000000000E+00  0.00000000000E+00  0.45593999997E+02  0.45594000000E+02  0.51100000000E-03 0.  1.
         11   -1    0    0    0    0 -0.00000000000E+00 -0.00000000000E+00 -0.45593999997E+02  0.45594000000E+02  0.51100000000E-03 0. -1.
    9900012    2    1    2    0    0  0.31136613126E+02 -0.51170592877E+01  0.45877956455E+01  0.59301939698E+02  0.49999992104E+02 0.  0.
        -12    1    1    2    0    0 -0.31136613126E+02  0.51170592877E+01 -0.45877956455E+01  0.31886060302E+02  0.00000000000E+00 0.  1.
         11    1    3    3    0    0 -0.19036206309E+01 -0.99774461074E+01 -0.33112908283E+01  0.10683531698E+02  0.51100000000E-03 0. -1.
        -11    1    3    3    0    0  0.38271167552E+02 -0.29194816819E+01  0.44953152475E+01  0.38644708544E+02  0.51100000000E-03 0.  1.
        -12    1    3    3    0    0 -0.52309337949E+01  0.77798685016E+01  0.34037712262E+01  0.99736994555E+01  0.00000000000E+00 0.  1.
</event>
<event>
 7    1  0.6065977E-013  0.5930199E+02  0.7816164E-02  0.1266605E+00
        -11   -1    0    0    0    0  0.00000000000E+00  0.00000000000E+00  0.45593999997E+02  0.45594000000E+02  0.51100000000E-03 0. -1.
         11   -1    0    0    0    0 -0.00000000000E+00 -0.00000000000E+00 -0.45593999997E+02  0.45594000000E+02  0.51100000000E-03 0.  1.
    9900012    2    1    2    0    0 -0.13195707313E+02 -0.28778260959E+02 -0.37950876508E+01  0.59301989187E+02  0.50000082360E+02 0.  0.
        -12    1    1    2    0    0  0.13195707313E+02  0.28778260959E+02  0.37950876508E+01  0.31886010813E+02  0.00000000000E+00 0.  1.
         11    1    3    3    0    0 -0.11545357769E+01 -0.26354975313E+02  0.34386757621E+01  0.26603423988E+02  0.51100000000E-03 0. -1.
        -11    1    3    3    0    0  0.25033817642E+01  0.10797837102E+02 -0.68680666018E+01  0.13039576122E+02  0.51100000000E-03 0.  1.
        -12    1    3    3    0    0 -0.14544553300E+02 -0.13221122747E+02 -0.36569681106E+00  0.19658989077E+02  0.00000000000E+00 0.  1.
</event>
<event>
 7    1  0.6065977E-013  0.5930201E+02  0.7816164E-02  0.1266605E+00
        -11   -1    0    0    0    0  0.00000000000E+00  0.00000000000E+00  0.45593999997E+02  0.45594000000E+02  0.51100000000E-03 0.  1.
         11   -1    0    0    0    0 -0.00000000000E+00 -0.00000000000E+00 -0.45593999997E+02  0.45594000000E+02  0.51100000000E-03 0. -1.
    9900012    2    1    2    0    0 -0.62895656492E+01 -0.27467169638E+02 -0.14923544165E+02  0.59302012256E+02  0.50000124432E+02 0.  0.
        -12    1    1    2    0    0  0.62895656492E+01  0.27467169638E+02  0.14923544165E+02  0.31885987744E+02  0.00000000000E+00 0.  1.
         11    1    3    3    0    0  0.12792055213E+02 -0.88469311720E+01 -0.26103913400E+02  0.30386167294E+02  0.51100000000E-03 0. -1.
        -11    1    3    3    0    0 -0.11554540906E+02 -0.11045178911E+02  0.69344909711E+01  0.17423850264E+02  0.51100000000E-03 0.  1.
         12    1    3    3    0    0 -0.75270799559E+01 -0.75750595543E+01  0.42458782642E+01  0.11491994698E+02  0.00000000000E+00 0. -1.
</event>
<event>
 7    1  0.6065977E-013  0.5930189E+02  0.7816164E-02  0.1266605E+00
        -11   -1    0    0    0    0  0.00000000000E+00  0.00000000000E+00  0.45593999997E+02  0.45594000000E+02  0.51100000000E-03 0.  1.
         11   -1    0    0    0    0 -0.00000000000E+00 -0.00000000000E+00 -0.45593999997E+02  0.45594000000E+02  0.51100000000E-03 0. -1.
    9900012    2    1    2    0    0  0.64520677198E+01  0.10419827785E+02 -0.29436751237E+02  0.59301885274E+02  0.49999892848E+02 0.  0.
        -12    1    1    2    0    0 -0.64520677198E+01 -0.10419827785E+02  0.29436751237E+02  0.31886114726E+02  0.00000000000E+00 0.  1.
         11    1    3    3    0    0  0.11287661423E+02 -0.28436450571E+01 -0.30885906626E+02  0.33006618215E+02  0.51100000000E-03 0. -1.
        -11    1    3    3    0    0 -0.12317202779E+02  0.18211804546E+01 -0.62936106187E+00  0.12467007586E+02  0.51100000000E-03 0.  1.
        -12    1    3    3    0    0  0.74816090760E+01  0.11442292387E+02  0.20785164509E+01  0.13828259474E+02  0.00000000000E+00 0.  1.
</event>
<event>
 7    1  0.6065977E-013  0.5930195E+02  0.7816164E-02  0.1266605E+00
        -11   -1    0    0    0    0  0.00000000000E+00  0.00000000000E+00  0.45593999997E+02  0.45594000000E+02  0.51100000000E-03 0. -1.
         11   -1    0    0    0    0 -0.00000000000E+00 -0.00000000000E+00 -0.45593999997E+02  0.45594000000E+02  0.51100000000E-03 0.  1.
    9900012    2    1    2    0    0  0.24855102172E+02 -0.98889506747E+01  0.17353756286E+02  0.59301948086E+02  0.50000007401E+02 0.  0.
        -12    1    1    2    0    0 -0.24855102172E+02  0.98889506747E+01 -0.17353756286E+02  0.31886051914E+02  0.00000000000E+00 0.  1.
         11    1    3    3    0    0  0.10236137913E+02  0.17852988393E+02  0.65167627270E+01  0.21586475178E+02  0.51100000000E-03 0. -1.
        -11    1    3    3    0    0 -0.52820745837E+00 -0.14936746028E+02  0.97622747328E+01  0.17851817646E+02  0.51100000000E-03 0.  1.
         12    1    3    3    0    0  0.15147171717E+02 -0.12805193039E+02  0.10747188266E+01  0.19863655262E+02  0.00000000000E+00 0. -1.
</event>
<event>
 7    1  0.6065977E-013  0.5930194E+02  0.7816164E-02  0.1266605E+00
        -11   -1    0    0    0    0  0.00000000000E+00  0.00000000000E+00  0.45593999997E+02  0.45594000000E+02  0.51100000000E-03 0.  1.
         11   -1    0    0    0    0 -0.00000000000E+00 -0.00000000000E+00 -0.45593999997E+02  0.45594000000E+02  0.51100000000E-03 0. -1.
    9900012    2    1    2    0    0 -0.27797079884E+02 -0.14807626644E+02  0.49776739981E+01  0.59301941991E+02  0.49999996286E+02 0.  0.
        -12    1    1    2    0    0  0.27797079884E+02  0.14807626644E+02 -0.49776739981E+01  0.31886058009E+02  0.00000000000E+00 0.  1.
         11    1    3    3    0    0  0.22245127129E+01  0.47030280708E+01  0.12839762585E+01  0.53586868856E+01  0.51100000000E-03 0. -1.
        -11    1    3    3    0    0 -0.38952495098E+02 -0.21744098384E+02  0.31083493189E+01  0.44718726778E+02  0.51100000000E-03 0.  1.
        -12    1    3    3    0    0  0.89309025010E+01  0.22334436688E+01  0.58534842073E+00  0.92245283282E+01  0.00000000000E+00 0.  1.
</event>
<event>
 7    1  0.6065977E-013  0.5930195E+02  0.7816164E-02  0.1266605E+00
        -11   -1    0    0    0    0  0.00000000000E+00  0.00000000000E+00  0.45593999997E+02  0.45594000000E+02  0.51100000000E-03 0.  1.
         11   -1    0    0    0    0 -0.00000000000E+00 -0.00000000000E+00 -0.45593999997E+02  0.45594000000E+02  0.51100000000E-03 0. -1.
    9900012    2    1    2    0    0 -0.28419695974E+02 -0.13640640555E+02 -0.47931414969E+01  0.59301946632E+02  0.50000004749E+02 0.  0.
        -12    1    1    2    0    0  0.28419695974E+02  0.13640640555E+02  0.47931414969E+01  0.31886053368E+02  0.00000000000E+00 0.  1.
         11    1    3    3    0    0 -0.50652722118E+01 -0.17304377534E+02 -0.89119975675E+01  0.20112736396E+02  0.51100000000E-03 0. -1.
        -11    1    3    3    0    0 -0.21083656754E+02  0.12471281671E+02 -0.63652915718E+01  0.25309492008E+02  0.51100000000E-03 0.  1.
         12    1    3    3    0    0 -0.22707670080E+01 -0.88075446926E+01  0.10484147642E+02  0.13879718229E+02  0.00000000000E+00 0. -1.
</event>
<event>
 7    1  0.6065977E-013  0.5930196E+02  0.7816164E-02  0.1266605E+00
        -11   -1    0    0    0    0  0.00000000000E+00  0.00000000000E+00  0.45593999997E+02  0.45594000000E+02  0.51100000000E-03 0.  1.
         11   -1    0    0    0    0 -0.00000000000E+00 -0.00000000000E+00 -0.45593999997E+02  0.45594000000E+02  0.51100000000E-03 0. -1.
    9900012    2    1    2    0    0 -0.16229459039E+02  0.16130053725E+02 -0.22206876869E+02  0.59301963022E+02  0.50000034642E+02 0.  0.
        -12    1    1    2    0    0  0.16229459039E+02 -0.16130053725E+02  0.22206876869E+02  0.31886036978E+02  0.00000000000E+00 0.  1.
         11    1    3    3    0    0 -0.18097294499E+02 -0.46977128866E+00  0.10865179513E+02  0.21113618339E+02  0.51100000000E-03 0.  1.
        -11    1    3    3    0    0  0.57575893368E+00  0.16583248819E+02 -0.24948753903E+02  0.29962909761E+02  0.51100000000E-03 0. -1.
        -12    1    3    3    0    0  0.12920765267E+01  0.16576195277E-01 -0.81233024779E+01  0.82254349228E+01  0.00000000000E+00 0.  1.
</event>
<event>
 7    1  0.6065977E-013  0.5930195E+02  0.7816164E-02  0.1266605E+00
        -11   -1    0    0    0    0  0.00000000000E+00  0.00000000000E+00  0.45593999997E+02  0.45594000000E+02  0.51100000000E-03 0.  1.
         11   -1    0    0    0    0 -0.00000000000E+00 -0.00000000000E+00 -0.45593999997E+02  0.45594000000E+02  0.51100000000E-03 0. -1.
    9900012    2    1    2    0    0  0.10458989857E+02  0.72517874700E+01 -0.29235957816E+02  0.59301951017E+02  0.50000012746E+02 0.  0.
        -12    1    1    2    0    0 -0.10458989857E+02 -0.72517874700E+01  0.29235957816E+02  0.31886048983E+02  0.00000000000E+00 0.  1.
         11    1    3    3    0    0  0.64673560958E+01 -0.63081147243E+01 -0.36804932187E+02  0.37897520232E+02  0.51100000000E-03 0. -1.
        -11    1    3    3    0    0 -0.25040306920E+01  0.11658965360E+02  0.99029784502E+00  0.11965882042E+02  0.51100000000E-03 0.  1.
         12    1    3    3    0    0  0.64956644530E+01  0.19009368347E+01  0.65786765252E+01  0.94385487422E+01  0.00000000000E+00 0. -1.
</event>
<event>
 7    1  0.6065977E-013  0.5930195E+02  0.7816164E-02  0.1266605E+00
        -11   -1    0    0    0    0  0.00000000000E+00  0.00000000000E+00  0.45593999997E+02  0.45594000000E+02  0.51100000000E-03 0.  1.
         11   -1    0    0    0    0 -0.00000000000E+00 -0.00000000000E+00 -0.45593999997E+02  0.45594000000E+02  0.51100000000E-03 0. -1.
    9900012    2    1    2    0    0  0.38864659044E+01 -0.23825209147E+02 -0.20832067013E+02  0.59301949380E+02  0.50000009762E+02 0.  0.
        -12    1    1    2    0    0 -0.38864659044E+01  0.23825209147E+02  0.20832067013E+02  0.31886050620E+02  0.00000000000E+00 0.  1.
         11    1    3    3    0    0 -0.17911388392E+02 -0.95539064784E+00 -0.99058321115E+01  0.20490390809E+02  0.51100000000E-03 0. -1.
        -11    1    3    3    0    0  0.13720166021E+02 -0.82641213324E+01  0.39022732443E+01  0.16485338752E+02  0.51100000000E-03 0.  1.
        -12    1    3    3    0    0  0.80776882759E+01 -0.14605697166E+02 -0.14828508145E+02  0.22326219819E+02  0.00000000000E+00 0.  1.
</event>
<event>
 7    1  0.6065977E-013  0.5930201E+02  0.7816164E-02  0.1266605E+00
        -11   -1    0    0    0    0  0.00000000000E+00  0.00000000000E+00  0.45593999997E+02  0.45594000000E+02  0.51100000000E-03 0.  1.
         11   -1    0    0    0    0 -0.00000000000E+00 -0.00000000000E+00 -0.45593999997E+02  0.45594000000E+02  0.51100000000E-03 0. -1.
    9900012    2    1    2    0    0  0.88845778744E+01 -0.25639782237E+02 -0.16744625542E+02  0.59302005555E+02  0.50000112211E+02 0.  0.
        -12    1    1    2    0    0 -0.88845778744E+01  0.25639782237E+02  0.16744625542E+02  0.31885994445E+02  0.00000000000E+00 0.  1.
         11    1    3    3    0    0  0.46226349202E+01  0.19399614962E+01 -0.10850083498E+01  0.51292735930E+01  0.51100000000E-03 0. -1.
        -11    1    3    3    0    0 -0.82497276901E+01 -0.14328975264E+02 -0.27750205416E+02  0.32302498974E+02  0.51100000000E-03 0.  1.
        -12    1    3    3    0    0  0.12511670644E+02 -0.13250768469E+02  0.12090588224E+02  0.21870232988E+02  0.00000000000E+00 0.  1.
</event>
<event>
 7    1  0.6065977E-013  0.5930194E+02  0.7816164E-02  0.1266605E+00
        -11   -1    0    0    0    0  0.00000000000E+00  0.00000000000E+00  0.45593999997E+02  0.45594000000E+02  0.51100000000E-03 0.  1.
         11   -1    0    0    0    0 -0.00000000000E+00 -0.00000000000E+00 -0.45593999997E+02  0.45594000000E+02  0.51100000000E-03 0. -1.
    9900012    2    1    2    0    0  0.43411341433E+01 -0.31584348308E+02 -0.55138270464E+00  0.59301944638E+02  0.50000001113E+02 0.  0.
        -12    1    1    2    0    0 -0.43411341433E+01  0.31584348308E+02  0.55138270464E+00  0.31886055362E+02  0.00000000000E+00 0.  1.
         11    1    3    3    0    0 -0.10074933866E+01 -0.12091783181E+02 -0.11293110576E+02  0.16575904505E+02  0.51100000000E-03 0. -1.
        -11    1    3    3    0    0 -0.16023313699E+01 -0.26126188907E+02  0.17043919719E+02  0.31235243112E+02  0.51100000000E-03 0.  1.
        -12    1    3    3    0    0  0.69509588997E+01  0.66336237800E+01 -0.63021918478E+01  0.11490797021E+02  0.00000000000E+00 0.  1.
</event>
<event>
 7    1  0.6065977E-013  0.5930193E+02  0.7816164E-02  0.1266605E+00
        -11   -1    0    0    0    0  0.00000000000E+00  0.00000000000E+00  0.45593999997E+02  0.45594000000E+02  0.51100000000E-03 0. -1.
         11   -1    0    0    0    0 -0.00000000000E+00 -0.00000000000E+00 -0.45593999997E+02  0.45594000000E+02  0.51100000000E-03 0.  1.
    9900012    2    1    2    0    0  0.30210630238E+02  0.31729974119E+01  0.96938671398E+01  0.59301934829E+02  0.49999983224E+02 0.  0.
        -12    1    1    2    0    0 -0.30210630238E+02 -0.31729974119E+01 -0.96938671398E+01  0.31886065171E+02  0.00000000000E+00 0.  1.
         11    1    3    3    0    0  0.16131473703E+02 -0.12936495049E+02  0.60764624874E+01  0.21552279337E+02  0.51100000000E-03 0. -1.
        -11    1    3    3    0    0  0.13912905773E+02  0.14683097968E+02 -0.11024858548E+02  0.23037139997E+02  0.51100000000E-03 0.  1.
        -12    1    3    3    0    0  0.16625076181E+00  0.14263944931E+01  0.14642263201E+02  0.14712515495E+02  0.00000000000E+00 0.  1.
</event>
<event>
 7    1  0.6065977E-013  0.5930197E+02  0.7816164E-02  0.1266605E+00
        -11   -1    0    0    0    0  0.00000000000E+00  0.00000000000E+00  0.45593999997E+02  0.45594000000E+02  0.51100000000E-03 0.  1.
         11   -1    0    0    0    0 -0.00000000000E+00 -0.00000000000E+00 -0.45593999997E+02  0.45594000000E+02  0.51100000000E-03 0. -1.
    9900012    2    1    2    0    0 -0.11997186513E+02 -0.13747950755E+02 -0.26149198456E+02  0.59301965218E+02  0.50000038646E+02 0.  0.
        -12    1    1    2    0    0  0.11997186513E+02  0.13747950755E+02  0.26149198456E+02  0.31886034782E+02  0.00000000000E+00 0.  1.
         11    1    3    3    0    0  0.39973834593E+01  0.12139345879E+02 -0.40653528247E+01  0.13411557954E+02  0.51100000000E-03 0. -1.
        -11    1    3    3    0    0 -0.17255416759E+02 -0.25882085310E+02 -0.84986710630E+01  0.32246847251E+02  0.51100000000E-03 0.  1.
         12    1    3    3    0    0  0.12608467867E+01 -0.52113239338E-02 -0.13585174569E+02  0.13643560013E+02  0.00000000000E+00 0. -1.
</event>
<event>
 7    1  0.6065977E-013  0.5930191E+02  0.7816164E-02  0.1266605E+00
        -11   -1    0    0    0    0  0.00000000000E+00  0.00000000000E+00  0.45593999997E+02  0.45594000000E+02  0.51100000000E-03 0.  1.
         11   -1    0    0    0    0 -0.00000000000E+00 -0.00000000000E+00 -0.45593999997E+02  0.45594000000E+02  0.51100000000E-03 0. -1.
    9900012    2    1    2    0    0 -0.19203649748E+02 -0.10804902484E+02 -0.23047699579E+02  0.59301913109E+02  0.49999943612E+02 0.  0.
        -12    1    1    2    0    0  0.19203649748E+02  0.10804902484E+02  0.23047699579E+02  0.31886086891E+02  0.00000000000E+00 0.  1.
         11    1    3    3    0    0 -0.32839871290E+01 -0.47191690853E+00 -0.27559953015E+02  0.27758931671E+02  0.51100000000E-03 0. -1.
        -11    1    3    3    0    0  0.38467198512E+01  0.46811667740E+01  0.27635124177E+01  0.66593976547E+01  0.51100000000E-03 0.  1.
        -12    1    3    3    0    0 -0.19766382471E+02 -0.15014152350E+02  0.17487410190E+01  0.24883583783E+02  0.00000000000E+00 0.  1.
</event>
<event>
 7    1  0.6065977E-013  0.5930195E+02  0.7816164E-02  0.1266605E+00
        -11   -1    0    0    0    0  0.00000000000E+00  0.00000000000E+00  0.45593999997E+02  0.45594000000E+02  0.51100000000E-03 0.  1.
         11   -1    0    0    0    0 -0.00000000000E+00 -0.00000000000E+00 -0.45593999997E+02  0.45594000000E+02  0.51100000000E-03 0. -1.
    9900012    2    1    2    0    0 -0.30777915934E+02 -0.64891497126E+01  0.52278945827E+01  0.59301952032E+02  0.50000014598E+02 0.  0.
        -12    1    1    2    0    0  0.30777915934E+02  0.64891497126E+01 -0.52278945827E+01  0.31886047968E+02  0.00000000000E+00 0.  1.
         11    1    3    3    0    0 -0.23047125127E+02 -0.16390664503E+01 -0.10306639298E+02  0.25299868168E+02  0.51100000000E-03 0. -1.
        -11    1    3    3    0    0 -0.17904230929E+02 -0.54065497715E+01  0.14683253509E+02  0.23777935139E+02  0.51100000000E-03 0.  1.
         12    1    3    3    0    0  0.10173440122E+02  0.55646650913E+00  0.85128037159E+00  0.10224148725E+02  0.00000000000E+00 0. -1.
</event>
<event>
 7    1  0.6065977E-013  0.5930194E+02  0.7816164E-02  0.1266605E+00
        -11   -1    0    0    0    0  0.00000000000E+00  0.00000000000E+00  0.45593999997E+02  0.45594000000E+02  0.51100000000E-03 0. -1.
         11   -1    0    0    0    0 -0.00000000000E+00 -0.00000000000E+00 -0.45593999997E+02  0.45594000000E+02  0.51100000000E-03 0.  1.
    9900012    2    1    2    0    0 -0.26169575511E+02 -0.40619387656E+01  0.17758792041E+02  0.59301941546E+02  0.49999995474E+02 0.  0.
        -12    1    1    2    0    0  0.26169575511E+02  0.40619387656E+01 -0.17758792041E+02  0.31886058454E+02  0.00000000000E+00 0.  1.
         11    1    3    3    0    0 -0.31935605401E+02  0.21895716251E+01  0.49695307778E+01  0.32394032670E+02  0.51100000000E-03 0. -1.
        -11    1    3    3    0    0  0.10050385805E+02  0.46590156596E+01  0.98495999176E+01  0.14823336350E+02  0.51100000000E-03 0.  1.
        -12    1    3    3    0    0 -0.42843559154E+01 -0.10910526050E+02  0.29396613461E+01  0.12084572526E+02  0.00000000000E+00 0.  1.
</event>
<event>
 7    1  0.6065977E-013  0.5930220E+02  0.7816164E-02  0.1266604E+00
        -11   -1    0    0    0    0  0.00000000000E+00  0.00000000000E+00  0.45593999997E+02  0.45594000000E+02  0.51100000000E-03 0.  1.
         11   -1    0    0    0    0 -0.00000000000E+00 -0.00000000000E+00 -0.45593999997E+02  0.45594000000E+02  0.51100000000E-03 0. -1.
    9900012    2    1    2    0    0  0.10514076081E+02 -0.64688059396E+01 -0.29399198334E+02  0.59302202083E+02  0.50000470629E+02 0.  0.
        -12    1    1    2    0    0 -0.10514076081E+02  0.64688059396E+01  0.29399198334E+02  0.31885797917E+02  0.00000000000E+00 0.  1.
         11    1    3    3    0    0  0.12682491189E+02 -0.45805048997E+01 -0.39530677456E+01  0.14051809590E+02  0.51100000000E-03 0. -1.
        -11    1    3    3    0    0 -0.10256396771E+02 -0.36304052827E+01 -0.32565849036E+02  0.34335230317E+02  0.51100000000E-03 0.  1.
        -12    1    3    3    0    0  0.80879816630E+01  0.17421042427E+01  0.71197184476E+01  0.10915162177E+02  0.00000000000E+00 0.  1.
</event>
<event>
 7    1  0.6065977E-013  0.5930196E+02  0.7816164E-02  0.1266605E+00
        -11   -1    0    0    0    0  0.00000000000E+00  0.00000000000E+00  0.45593999997E+02  0.45594000000E+02  0.51100000000E-03 0. -1.
         11   -1    0    0    0    0 -0.00000000000E+00 -0.00000000000E+00 -0.45593999997E+02  0.45594000000E+02  0.51100000000E-03 0.  1.
    9900012    2    1    2    0    0  0.43218111468E+01 -0.57631889055E+01  0.31061666389E+02  0.59301960471E+02  0.50000029989E+02 0.  0.
        -12    1    1    2    0    0 -0.43218111468E+01  0.57631889055E+01 -0.31061666389E+02  0.31886039529E+02  0.00000000000E+00 0.  1.
         11    1    3    3    0    0 -0.50262061657E+01  0.10214843923E+02 -0.28239974736E+01  0.11729481949E+02  0.51100000000E-03 0. -1.
        -11    1    3    3    0    0  0.23090237871E+01 -0.18391718964E+02  0.72276743692E+01  0.19895381231E+02  0.51100000000E-03 0.  1.
         12    1    3    3    0    0  0.70389935254E+01  0.24136861351E+01  0.26657989494E+02  0.27677097291E+02  0.00000000000E+00 0. -1.
</event>
<event>
 7    1  0.6065977E-013  0.5930193E+02  0.7816164E-02  0.1266605E+00
        -11   -1    0    0    0    0  0.00000000000E+00  0.00000000000E+00  0.45593999997E+02  0.45594000000E+02  0.51100000000E-03 0. -1.
         11   -1    0    0    0    0 -0.00000000000E+00 -0.00000000000E+00 -0.45593999997E+02  0.45594000000E+02  0.51100000000E-03 0.  1.
    9900012    2    1    2    0    0 -0.16614187541E+01 -0.75270103072E+01  0.30940345337E+02  0.59301934610E+02  0.49999982825E+02 0.  0.
        -12    1    1    2    0    0  0.16614187541E+01  0.75270103072E+01 -0.30940345337E+02  0.31886065390E+02  0.00000000000E+00 0.  1.
         11    1    3    3    0    0 -0.14664566500E+02 -0.49722590012E+00  0.32946676135E+02  0.36066330737E+02  0.51100000000E-03 0. -1.
        -11    1    3    3    0    0  0.80280881765E+01 -0.61219058603E+01 -0.97183174275E+01  0.14013337397E+02  0.51100000000E-03 0.  1.
         12    1    3    3    0    0  0.49750595691E+01 -0.90787854676E+00  0.77119866298E+01  0.92222664758E+01  0.00000000000E+00 0. -1.
</event>
<event>
 7    1  0.6065977E-013  0.5930196E+02  0.7816164E-02  0.1266605E+00
        -11   -1    0    0    0    0  0.00000000000E+00  0.00000000000E+00  0.45593999997E+02  0.45594000000E+02  0.51100000000E-03 0.  1.
         11   -1    0    0    0    0 -0.00000000000E+00 -0.00000000000E+00 -0.45593999997E+02  0.45594000000E+02  0.51100000000E-03 0. -1.
    9900012    2    1    2    0    0  0.15759256038E+02  0.78643660083E+01 -0.26580393496E+02  0.59301957254E+02  0.50000024122E+02 0.  0.
        -12    1    1    2    0    0 -0.15759256038E+02 -0.78643660083E+01  0.26580393496E+02  0.31886042746E+02  0.00000000000E+00 0.  1.
         11    1    3    3    0    0  0.13940225729E+02  0.21503792269E+01 -0.24183416037E+01  0.14310918928E+02  0.51100000000E-03 0. -1.
        -11    1    3    3    0    0 -0.17534130648E+02  0.31672422825E+01 -0.15575795604E+02  0.23666063682E+02  0.51100000000E-03 0.  1.
        -12    1    3    3    0    0  0.19353160956E+02  0.25467444990E+01 -0.85862562884E+01  0.21324974644E+02  0.00000000000E+00 0.  1.
</event>
<event>
 7    1  0.6065977E-013  0.5930193E+02  0.7816164E-02  0.1266605E+00
        -11   -1    0    0    0    0  0.00000000000E+00  0.00000000000E+00  0.45593999997E+02  0.45594000000E+02  0.51100000000E-03 0.  1.
         11   -1    0    0    0    0 -0.00000000000E+00 -0.00000000000E+00 -0.45593999997E+02  0.45594000000E+02  0.51100000000E-03 0. -1.
    9900012    2    1    2    0    0  0.11684521254E+02  0.67517192878E+01 -0.28889581847E+02  0.59301926401E+02  0.49999967853E+02 0.  0.
        -12    1    1    2    0    0 -0.11684521254E+02 -0.67517192878E+01  0.28889581847E+02  0.31886073599E+02  0.00000000000E+00 0.  1.
         11    1    3    3    0    0  0.76936519235E+01  0.24192395409E+02 -0.12109808703E+02  0.28126708706E+02  0.51100000000E-03 0. -1.
        -11    1    3    3    0    0  0.20037038086E+01 -0.21258935777E+02 -0.11151644777E+02  0.24089756346E+02  0.51100000000E-03 0.  1.
        -12    1    3    3    0    0  0.19871655218E+01  0.38182596556E+01 -0.56281283669E+01  0.70854613486E+01  0.00000000000E+00 0.  1.
</event>
<event>
 7    1  0.6065977E-013  0.5930197E+02  0.7816164E-02  0.1266605E+00
        -11   -1    0    0    0    0  0.00000000000E+00  0.00000000000E+00  0.45593999997E+02  0.45594000000E+02  0.51100000000E-03 0. -1.
         11   -1    0    0    0    0 -0.00000000000E+00 -0.00000000000E+00 -0.45593999997E+02  0.45594000000E+02  0.51100000000E-03 0.  1.
    9900012    2    1    2    0    0 -0.24802735408E+02 -0.15976209514E+02  0.12095610352E+02  0.59301972591E+02  0.50000052092E+02 0.  0.
        -12    1    1    2    0    0  0.24802735408E+02  0.15976209514E+02 -0.12095610352E+02  0.31886027409E+02  0.00000000000E+00 0.  1.
         11    1    3    3    0    0 -0.10615861260E+02 -0.61310784530E+01  0.30731474069E+02  0.33086404036E+02  0.51100000000E-03 0. -1.
        -11    1    3    3    0    0 -0.40752867820E+01  0.46231371972E-01 -0.59703276801E+01  0.72287559486E+01  0.51100000000E-03 0.  1.
         12    1    3    3    0    0 -0.10111587365E+02 -0.98913624333E+01 -0.12665536037E+02  0.18986812606E+02  0.00000000000E+00 0. -1.
</event>
<event>
 7    1  0.6065977E-013  0.5930195E+02  0.7816164E-02  0.1266605E+00
        -11   -1    0    0    0    0  0.00000000000E+00  0.00000000000E+00  0.45593999997E+02  0.45594000000E+02  0.51100000000E-03 0.  1.
         11   -1    0    0    0    0 -0.00000000000E+00 -0.00000000000E+00 -0.45593999997E+02  0.45594000000E+02  0.51100000000E-03 0. -1.
    9900012    2    1    2    0    0 -0.22860151358E+02 -0.16090837239E+02 -0.15336847386E+02  0.59301945824E+02  0.50000003277E+02 0.  0.
        -12    1    1    2    0    0  0.22860151358E+02  0.16090837239E+02  0.15336847386E+02  0.31886054176E+02  0.00000000000E+00 0.  1.
         11    1    3    3    0    0 -0.14793944854E+02 -0.41277408029E+00  0.23844792406E+01  0.14990561307E+02  0.51100000000E-03 0. -1.
        -11    1    3    3    0    0  0.13993021398E+02 -0.49030602254E+01 -0.15370713880E+01  0.14906617192E+02  0.51100000000E-03 0.  1.
        -12    1    3    3    0    0 -0.22059227902E+02 -0.10775002933E+02 -0.16184255238E+02  0.29404767325E+02  0.00000000000E+00 0.  1.
</event>
<event>
 7    1  0.6065977E-013  0.5930194E+02  0.7816164E-02  0.1266605E+00
        -11   -1    0    0    0    0  0.00000000000E+00  0.00000000000E+00  0.45593999997E+02  0.45594000000E+02  0.51100000000E-03 0. -1.
         11   -1    0    0    0    0 -0.00000000000E+00 -0.00000000000E+00 -0.45593999997E+02  0.45594000000E+02  0.51100000000E-03 0.  1.
    9900012    2    1    2    0    0 -0.30610725834E+02  0.44381831866E+01  0.77464198772E+01  0.59301936790E+02  0.49999986801E+02 0.  0.
        -12    1    1    2    0    0  0.30610725834E+02 -0.44381831866E+01 -0.77464198772E+01  0.31886063210E+02  0.00000000000E+00 0.  1.
         11    1    3    3    0    0 -0.48951707249E+01  0.10991124139E+02  0.15944821155E+02  0.19975105211E+02  0.51100000000E-03 0. -1.
        -11    1    3    3    0    0 -0.14376499970E+02 -0.10114148939E+02  0.79370089148E+01  0.19286675994E+02  0.51100000000E-03 0.  1.
         12    1    3    3    0    0 -0.11339055140E+02  0.35612079861E+01 -0.16135410193E+02  0.20040155585E+02  0.00000000000E+00 0. -1.
</event>
<event>
 7    1  0.6065977E-013  0.5930189E+02  0.7816164E-02  0.1266605E+00
        -11   -1    0    0    0    0  0.00000000000E+00  0.00000000000E+00  0.45593999997E+02  0.45594000000E+02  0.51100000000E-03 0. -1.
         11   -1    0    0    0    0 -0.00000000000E+00 -0.00000000000E+00 -0.45593999997E+02  0.45594000000E+02  0.51100000000E-03 0.  1.
    9900012    2    1    2    0    0  0.19845420712E+02  0.74621143469E+01  0.23815963394E+02  0.59301890389E+02  0.49999902176E+02 0.  0.
        -12    1    1    2    0    0 -0.19845420712E+02 -0.74621143469E+01 -0.23815963394E+02  0.31886109611E+02  0.00000000000E+00 0.  1.
         11    1    3    3    0    0 -0.55607011606E+01  0.16584705310E+02  0.19806007280E+02  0.26424454058E+02  0.51100000000E-03 0. -1.
        -11    1    3    3    0    0  0.13762799867E+02 -0.10279687531E+02 -0.52428233055E+01  0.17960340542E+02  0.51100000000E-03 0.  1.
         12    1    3    3    0    0  0.11643322005E+02  0.11570965680E+01  0.92527794191E+01  0.14917095789E+02  0.00000000000E+00 0. -1.
</event>
<event>
 7    1  0.6065977E-013  0.5930195E+02  0.7816164E-02  0.1266605E+00
        -11   -1    0    0    0    0  0.00000000000E+00  0.00000000000E+00  0.45593999997E+02  0.45594000000E+02  0.51100000000E-03 0.  1.
         11   -1    0    0    0    0 -0.00000000000E+00 -0.00000000000E+00 -0.45593999997E+02  0.45594000000E+02  0.51100000000E-03 0. -1.
    9900012    2    1    2    0    0  0.13740993932E+02 -0.27249977879E+02 -0.92381832446E+01  0.59301949158E+02  0.50000009356E+02 0.  0.
        -12    1    1    2    0    0 -0.13740993932E+02  0.27249977879E+02  0.92381832446E+01  0.31886050842E+02  0.00000000000E+00 0.  1.
         11    1    3    3    0    0  0.13571602896E+02 -0.27573387766E+02 -0.23947397338E+02  0.38960979936E+02  0.51100000000E-03 0. -1.
        -11    1    3    3    0    0  0.30982646523E+01 -0.31944579539E+00  0.16537969817E+02  0.16828717581E+02  0.51100000000E-03 0.  1.
         12    1    3    3    0    0 -0.29288736168E+01  0.64285568199E+00 -0.18287557241E+01  0.35122516410E+01  0.00000000000E+00 0. -1.
</event>
<event>
 7    1  0.6065977E-013  0.5930194E+02  0.7816164E-02  0.1266605E+00
        -11   -1    0    0    0    0  0.00000000000E+00  0.00000000000E+00  0.45593999997E+02  0.45594000000E+02  0.51100000000E-03 0.  1.
         11   -1    0    0    0    0 -0.00000000000E+00 -0.00000000000E+00 -0.45593999997E+02  0.45594000000E+02  0.51100000000E-03 0. -1.
    9900012    2    1    2    0    0  0.31438900033E+01 -0.26629753057E+02 -0.17253777219E+02  0.59301943163E+02  0.49999998423E+02 0.  0.
        -12    1    1    2    0    0 -0.31438900033E+01  0.26629753057E+02  0.17253777219E+02  0.31886056837E+02  0.00000000000E+00 0.  1.
         11    1    3    3    0    0 -0.13215095392E+02 -0.25018918808E+02 -0.15161558316E+02  0.32100746025E+02  0.51100000000E-03 0. -1.
        -11    1    3    3    0    0  0.15980526784E+02 -0.97499408152E+01  0.25569899011E+00  0.18721751105E+02  0.51100000000E-03 0.  1.
         12    1    3    3    0    0  0.37845861147E+00  0.81391065652E+01 -0.23479178937E+01  0.84794460336E+01  0.00000000000E+00 0. -1.
</event>
<event>
 7    1  0.6065977E-013  0.5930192E+02  0.7816164E-02  0.1266605E+00
        -11   -1    0    0    0    0  0.00000000000E+00  0.00000000000E+00  0.45593999997E+02  0.45594000000E+02  0.51100000000E-03 0.  1.
         11   -1    0    0    0    0 -0.00000000000E+00 -0.00000000000E+00 -0.45593999997E+02  0.45594000000E+02  0.51100000000E-03 0. -1.
    9900012    2    1    2    0    0 -0.28331030986E+02 -0.12070103213E+02 -0.82696697180E+01  0.59301919250E+02  0.49999954812E+02 0.  0.
        -12    1    1    2    0    0  0.28331030986E+02  0.12070103213E+02  0.82696697180E+01  0.31886080750E+02  0.00000000000E+00 0.  1.
         11    1    3    3    0    0 -0.32138935959E+02 -0.11801461899E+01  0.41192310742E+01  0.32423325161E+02  0.51100000000E-03 0. -1.
        -11    1    3    3    0    0  0.11333074850E+01 -0.14690232323E+02 -0.12233493325E+01  0.14784583032E+02  0.51100000000E-03 0.  1.
         12    1    3    3    0    0  0.26745974873E+01  0.38002752997E+01 -0.11165551460E+02  0.12094011058E+02  0.00000000000E+00 0. -1.
</event>
<event>
 7    1  0.6065977E-013  0.5930194E+02  0.7816164E-02  0.1266605E+00
        -11   -1    0    0    0    0  0.00000000000E+00  0.00000000000E+00  0.45593999997E+02  0.45594000000E+02  0.51100000000E-03 0. -1.
         11   -1    0    0    0    0 -0.00000000000E+00 -0.00000000000E+00 -0.45593999997E+02  0.45594000000E+02  0.51100000000E-03 0.  1.
    9900012    2    1    2    0    0 -0.12436239662E+02 -0.29286538632E+02  0.20879806309E+01  0.59301936193E+02  0.49999985711E+02 0.  0.
        -12    1    1    2    0    0  0.12436239662E+02  0.29286538632E+02 -0.20879806309E+01  0.31886063807E+02  0.00000000000E+00 0.  1.
         11    1    3    3    0    0 -0.90432397981E+01  0.80217609083E+01  0.10664337986E+02  0.16120078755E+02  0.51100000000E-03 0. -1.
        -11    1    3    3    0    0  0.58664334497E+01 -0.27846909910E+02 -0.23577259764E+01  0.28555635258E+02  0.51100000000E-03 0.  1.
         12    1    3    3    0    0 -0.92594333135E+01 -0.94613896306E+01 -0.62186313788E+01  0.14626222180E+02  0.00000000000E+00 0. -1.
</event>
<event>
 7    1  0.6065977E-013  0.5930196E+02  0.7816164E-02  0.1266605E+00
        -11   -1    0    0    0    0  0.00000000000E+00  0.00000000000E+00  0.45593999997E+02  0.45594000000E+02  0.51100000000E-03 0. -1.
         11   -1    0    0    0    0 -0.00000000000E+00 -0.00000000000E+00 -0.45593999997E+02  0.45594000000E+02  0.51100000000E-03 0.  1.
    9900012    2    1    2    0    0 -0.58705693593E+01 -0.24416255833E+02  0.19649489550E+02  0.59301959589E+02  0.50000028380E+02 0.  0.
        -12    1    1    2    0    0  0.58705693593E+01  0.24416255833E+02 -0.19649489550E+02  0.31886040411E+02  0.00000000000E+00 0.  1.
         11    1    3    3    0    0  0.16653735386E+02 -0.14529788594E+02  0.23971248668E+02  0.32604944746E+02  0.51100000000E-03 0. -1.
        -11    1    3    3    0    0 -0.22937719463E+02 -0.10645658828E+02 -0.35452859827E+01  0.25535036303E+02  0.51100000000E-03 0.  1.
        -12    1    3    3    0    0  0.41341471725E+00  0.75919158943E+00 -0.77647313550E+00  0.11619785403E+01  0.00000000000E+00 0.  1.
</event>
<event>
 7    1  0.6065977E-013  0.5930198E+02  0.7816164E-02  0.1266605E+00
        -11   -1    0    0    0    0  0.00000000000E+00  0.00000000000E+00  0.45593999997E+02  0.45594000000E+02  0.51100000000E-03 0. -1.
         11   -1    0    0    0    0 -0.00000000000E+00 -0.00000000000E+00 -0.45593999997E+02  0.45594000000E+02  0.51100000000E-03 0.  1.
    9900012    2    1    2    0    0 -0.28557420349E+02  0.12249555689E+02  0.71512544795E+01  0.59301979361E+02  0.50000064440E+02 0.  0.
        -12    1    1    2    0    0  0.28557420349E+02 -0.12249555689E+02 -0.71512544795E+01  0.31886020639E+02  0.00000000000E+00 0.  1.
         11    1    3    3    0    0 -0.24205897282E+02  0.26083227900E+02  0.15127139737E+02  0.38666401407E+02  0.51100000000E-03 0. -1.
        -11    1    3    3    0    0 -0.81904775983E+01 -0.60952534308E+01 -0.28878506214E+01  0.10610170552E+02  0.51100000000E-03 0.  1.
         12    1    3    3    0    0  0.38389545321E+01 -0.77384187803E+01 -0.50880346359E+01  0.10025407402E+02  0.00000000000E+00 0. -1.
</event>
<event>
 7    1  0.6065977E-013  0.5930195E+02  0.7816164E-02  0.1266605E+00
        -11   -1    0    0    0    0  0.00000000000E+00  0.00000000000E+00  0.45593999997E+02  0.45594000000E+02  0.51100000000E-03 0.  1.
         11   -1    0    0    0    0 -0.00000000000E+00 -0.00000000000E+00 -0.45593999997E+02  0.45594000000E+02  0.51100000000E-03 0. -1.
    9900012    2    1    2    0    0 -0.87936319327E+01 -0.21471195348E+02 -0.21871894708E+02  0.59301953359E+02  0.50000017018E+02 0.  0.
        -12    1    1    2    0    0  0.87936319327E+01  0.21471195348E+02  0.21871894708E+02  0.31886046641E+02  0.00000000000E+00 0.  1.
         11    1    3    3    0    0 -0.11835679132E+02 -0.18315602114E+02 -0.12951286001E+02  0.25362972828E+02  0.51100000000E-03 0. -1.
        -11    1    3    3    0    0  0.17580718823E+02 -0.39765640833E+01 -0.32689787850E+01  0.18318868928E+02  0.51100000000E-03 0.  1.
         12    1    3    3    0    0 -0.14538671623E+02  0.82097084964E+00 -0.56516299224E+01  0.15620111603E+02  0.00000000000E+00 0. -1.
</event>
<event>
 7    1  0.6065977E-013  0.5930196E+02  0.7816164E-02  0.1266605E+00
        -11   -1    0    0    0    0  0.00000000000E+00  0.00000000000E+00  0.45593999997E+02  0.45594000000E+02  0.51100000000E-03 0.  1.
         11   -1    0    0    0    0 -0.00000000000E+00 -0.00000000000E+00 -0.45593999997E+02  0.45594000000E+02  0.51100000000E-03 0. -1.
    9900012    2    1    2    0    0  0.13483157545E+00  0.31865017492E+02  0.11497201172E+01  0.59301962684E+02  0.50000034025E+02 0.  0.
        -12    1    1    2    0    0 -0.13483157545E+00 -0.31865017492E+02 -0.11497201172E+01  0.31886037316E+02  0.00000000000E+00 0.  1.
         11    1    3    3    0    0 -0.14876556317E+00  0.45480321081E+01  0.89197237178E+01  0.10013400956E+02  0.51100000000E-03 0. -1.
        -11    1    3    3    0    0  0.14045761156E+02  0.30013396409E+02 -0.10966796255E+02  0.34904985186E+02  0.51100000000E-03 0.  1.
        -12    1    3    3    0    0 -0.13762164017E+02 -0.26964110252E+01  0.31967926546E+01  0.14383576542E+02  0.00000000000E+00 0.  1.
</event>
<event>
 7    1  0.6065977E-013  0.5930194E+02  0.7816164E-02  0.1266605E+00
        -11   -1    0    0    0    0  0.00000000000E+00  0.00000000000E+00  0.45593999997E+02  0.45594000000E+02  0.51100000000E-03 0.  1.
         11   -1    0    0    0    0 -0.00000000000E+00 -0.00000000000E+00 -0.45593999997E+02  0.45594000000E+02  0.51100000000E-03 0. -1.
    9900012    2    1    2    0    0  0.30723205633E+02 -0.85107875947E+01 -0.60977295370E+00  0.59301942030E+02  0.49999996356E+02 0.  0.
        -12    1    1    2    0    0 -0.30723205633E+02  0.85107875947E+01  0.60977295370E+00  0.31886057970E+02  0.00000000000E+00 0.  1.
         11    1    3    3    0    0  0.50193048812E+01 -0.27022934311E+01 -0.15664106552E+02  0.16669134519E+02  0.51100000000E-03 0. -1.
        -11    1    3    3    0    0  0.40697309631E+01  0.42916892935E+01  0.17651678946E+02  0.18616204688E+02  0.51100000000E-03 0.  1.
        -12    1    3    3    0    0  0.21634169788E+02 -0.10100183457E+02 -0.25973453477E+01  0.24016602823E+02  0.00000000000E+00 0.  1.
</event>
<event>
 7    1  0.6065977E-013  0.5930194E+02  0.7816164E-02  0.1266605E+00
        -11   -1    0    0    0    0  0.00000000000E+00  0.00000000000E+00  0.45593999997E+02  0.45594000000E+02  0.51100000000E-03 0.  1.
         11   -1    0    0    0    0 -0.00000000000E+00 -0.00000000000E+00 -0.45593999997E+02  0.45594000000E+02  0.51100000000E-03 0. -1.
    9900012    2    1    2    0    0 -0.28023046535E+02  0.12520573906E+02 -0.86408748460E+01  0.59301943077E+02  0.49999998265E+02 0.  0.
        -12    1    1    2    0    0  0.28023046535E+02 -0.12520573906E+02  0.86408748460E+01  0.31886056923E+02  0.00000000000E+00 0.  1.
         11    1    3    3    0    0 -0.32735847176E+02  0.13630253341E+02  0.17197427333E+01  0.35501788854E+02  0.51100000000E-03 0. -1.
        -11    1    3    3    0    0  0.96569386858E+01 -0.42330441939E+01  0.14284580548E+01  0.10640282919E+02  0.51100000000E-03 0.  1.
         12    1    3    3    0    0 -0.49441380446E+01  0.31233647583E+01 -0.11789075634E+02  0.13159871304E+02  0.00000000000E+00 0. -1.
</event>
<event>
 7    1  0.6065977E-013  0.5930193E+02  0.7816164E-02  0.1266605E+00
        -11   -1    0    0    0    0  0.00000000000E+00  0.00000000000E+00  0.45593999997E+02  0.45594000000E+02  0.51100000000E-03 0. -1.
         11   -1    0    0    0    0 -0.00000000000E+00 -0.00000000000E+00 -0.45593999997E+02  0.45594000000E+02  0.51100000000E-03 0.  1.
    9900012    2    1    2    0    0  0.26872267975E+02 -0.80319167820E+01  0.15168759342E+02  0.59301925715E+02  0.49999966602E+02 0.  0.
        -12    1    1    2    0    0 -0.26872267975E+02  0.80319167820E+01 -0.15168759342E+02  0.31886074285E+02  0.00000000000E+00 0.  1.
         11    1    3    3    0    0  0.20414190312E+02 -0.75338853728E+00  0.14633995257E+02  0.25128879358E+02  0.51100000000E-03 0. -1.
        -11    1    3    3    0    0 -0.37391273731E+01 -0.25331418291E+01 -0.14619379806E+02  0.15301115881E+02  0.51100000000E-03 0.  1.
        -12    1    3    3    0    0  0.10197205036E+02 -0.47453864156E+01  0.15154143892E+02  0.18871930476E+02  0.00000000000E+00 0.  1.
</event>
<event>
 7    1  0.6065977E-013  0.5930198E+02  0.7816164E-02  0.1266605E+00
        -11   -1    0    0    0    0  0.00000000000E+00  0.00000000000E+00  0.45593999997E+02  0.45594000000E+02  0.51100000000E-03 0.  1.
         11   -1    0    0    0    0 -0.00000000000E+00 -0.00000000000E+00 -0.45593999997E+02  0.45594000000E+02  0.51100000000E-03 0. -1.
    9900012    2    1    2    0    0  0.34981022086E+01 -0.94624863369E+01 -0.30248025793E+02  0.59301977496E+02  0.50000061038E+02 0.  0.
        -12    1    1    2    0    0 -0.34981022086E+01  0.94624863369E+01  0.30248025793E+02  0.31886022504E+02  0.00000000000E+00 0.  1.
         11    1    3    3    0    0  0.63359916742E+00 -0.10269341413E+02 -0.14874843598E+01  0.10395837193E+02  0.51100000000E-03 0. -1.
        -11    1    3    3    0    0  0.15722756642E+02  0.10067367241E+02 -0.33620937576E+01  0.18969992996E+02  0.51100000000E-03 0.  1.
        -12    1    3    3    0    0 -0.12858253601E+02 -0.92605121653E+01 -0.25398447676E+02  0.29936147307E+02  0.00000000000E+00 0.  1.
</event>
<event>
 7    1  0.6065977E-013  0.5930196E+02  0.7816164E-02  0.1266605E+00
        -11   -1    0    0    0    0  0.00000000000E+00  0.00000000000E+00  0.45593999997E+02  0.45594000000E+02  0.51100000000E-03 0.  1.
         11   -1    0    0    0    0 -0.00000000000E+00 -0.00000000000E+00 -0.45593999997E+02  0.45594000000E+02  0.51100000000E-03 0. -1.
    9900012    2    1    2    0    0 -0.44109639338E+01  0.31280196647E+02 -0.43373246044E+01  0.59301957758E+02  0.50000025041E+02 0.  0.
        -12    1    1    2    0    0  0.44109639338E+01 -0.31280196647E+02  0.43373246044E+01  0.31886042242E+02  0.00000000000E+00 0.  1.
         11    1    3    3    0    0 -0.21900917811E+01  0.36219452055E+02  0.20804051287E+00  0.36286202479E+02  0.51100000000E-03 0. -1.
        -11    1    3    3    0    0  0.38291421675E+01 -0.12222924046E+02 -0.44086634407E+01  0.13546162392E+02  0.51100000000E-03 0.  1.
         12    1    3    3    0    0 -0.60500143203E+01  0.72836686378E+01 -0.13670167653E+00  0.94695928872E+01  0.00000000000E+00 0. -1.
</event>
<event>
 7    1  0.6065977E-013  0.5930194E+02  0.7816164E-02  0.1266605E+00
        -11   -1    0    0    0    0  0.00000000000E+00  0.00000000000E+00  0.45593999997E+02  0.45594000000E+02  0.51100000000E-03 0. -1.
         11   -1    0    0    0    0 -0.00000000000E+00 -0.00000000000E+00 -0.45593999997E+02  0.45594000000E+02  0.51100000000E-03 0.  1.
    9900012    2    1    2    0    0  0.17320239548E+01  0.30514909310E+02 -0.90863187529E+01  0.59301940575E+02  0.49999993703E+02 0.  0.
        -12    1    1    2    0    0 -0.17320239548E+01 -0.30514909310E+02  0.90863187529E+01  0.31886059425E+02  0.00000000000E+00 0.  1.
         11    1    3    3    0    0  0.11237876292E+02 -0.86327048745E+01  0.63081465358E+01  0.15511485099E+02  0.51100000000E-03 0. -1.
        -11    1    3    3    0    0 -0.83071731474E+00  0.10322227909E+02 -0.71342124827E+01  0.12575192574E+02  0.51100000000E-03 0.  1.
         12    1    3    3    0    0 -0.86751350228E+01  0.28825386276E+02 -0.82602528059E+01  0.31215262902E+02  0.00000000000E+00 0. -1.
</event>
<event>
 7    1  0.6065977E-013  0.5930199E+02  0.7816164E-02  0.1266605E+00
        -11   -1    0    0    0    0  0.00000000000E+00  0.00000000000E+00  0.45593999997E+02  0.45594000000E+02  0.51100000000E-03 0.  1.
         11   -1    0    0    0    0 -0.00000000000E+00 -0.00000000000E+00 -0.45593999997E+02  0.45594000000E+02  0.51100000000E-03 0. -1.
    9900012    2    1    2    0    0  0.77095852099E+01 -0.25611637802E+02 -0.17358691854E+02  0.59301986171E+02  0.50000076859E+02 0.  0.
        -12    1    1    2    0    0 -0.77095852099E+01  0.25611637802E+02  0.17358691854E+02  0.31886013829E+02  0.00000000000E+00 0.  1.
         11    1    3    3    0    0  0.13787689790E+02 -0.67868312051E+01 -0.21101152897E+02  0.26104025004E+02  0.51100000000E-03 0. -1.
        -11    1    3    3    0    0 -0.16560385021E+02 -0.11372237002E+02  0.30335931400E+01  0.20316909560E+02  0.51100000000E-03 0.  1.
         12    1    3    3    0    0  0.10482280441E+02 -0.74525695952E+01  0.70886790305E+00  0.12881051608E+02  0.00000000000E+00 0. -1.
</event>
<event>
 7    1  0.6065977E-013  0.5930191E+02  0.7816164E-02  0.1266605E+00
        -11   -1    0    0    0    0  0.00000000000E+00  0.00000000000E+00  0.45593999997E+02  0.45594000000E+02  0.51100000000E-03 0.  1.
         11   -1    0    0    0    0 -0.00000000000E+00 -0.00000000000E+00 -0.45593999997E+02  0.45594000000E+02  0.51100000000E-03 0. -1.
    9900012    2    1    2    0    0  0.19002062886E+02  0.12126366565E+02 -0.22552060147E+02  0.59301912488E+02  0.49999942478E+02 0.  0.
        -12    1    1    2    0    0 -0.19002062886E+02 -0.12126366565E+02  0.22552060147E+02  0.31886087512E+02  0.00000000000E+00 0.  1.
         11    1    3    3    0    0 -0.52375131544E+01  0.17785150742E+02 -0.15748523125E+02  0.24326099396E+02  0.51100000000E-03 0. -1.
        -11    1    3    3    0    0  0.20873357423E+02 -0.11520173538E+02 -0.11769724051E+02  0.26588302935E+02  0.51100000000E-03 0.  1.
         12    1    3    3    0    0  0.33662186171E+01  0.58613893614E+01  0.49661870288E+01  0.83875101568E+01  0.00000000000E+00 0. -1.
</event>
<event>
 7    1  0.7649415E-013  0.5930195E+02  0.7816164E-02  0.1266605E+00
        -11   -1    0    0    0    0  0.00000000000E+00  0.00000000000E+00  0.45593999997E+02  0.45594000000E+02  0.51100000000E-03 0. -1.
         11   -1    0    0    0    0 -0.00000000000E+00 -0.00000000000E+00 -0.45593999997E+02  0.45594000000E+02  0.51100000000E-03 0.  1.
    9900012    2    1    2    0    0  0.13129298023E+02  0.17073460775E+02  0.23512524475E+02  0.59301947616E+02  0.50000006545E+02 0.  0.
        -12    1    1    2    0    0 -0.13129298023E+02 -0.17073460775E+02 -0.23512524475E+02  0.31886052384E+02  0.00000000000E+00 0.  1.
         11    1    3    3    0    0  0.19665112870E+02  0.70733653306E+01  0.38678296890E+01  0.21253453085E+02  0.51100000000E-03 0. -1.
        -11    1    3    3    0    0 -0.14374693422E+02 -0.41042270316E+01  0.37801364643E+01  0.15419660257E+02  0.51100000000E-03 0.  1.
         12    1    3    3    0    0  0.78388785753E+01  0.14104322476E+02  0.15864558322E+02  0.22628834274E+02  0.00000000000E+00 0. -1.
</event>
<event>
 7    1  0.6065977E-013  0.5930193E+02  0.7816164E-02  0.1266605E+00
        -11   -1    0    0    0    0  0.00000000000E+00  0.00000000000E+00  0.45593999997E+02  0.45594000000E+02  0.51100000000E-03 0.  1.
         11   -1    0    0    0    0 -0.00000000000E+00 -0.00000000000E+00 -0.45593999997E+02  0.45594000000E+02  0.51100000000E-03 0. -1.
    9900012    2    1    2    0    0  0.36904411019E+01  0.30908399908E+02 -0.69117849175E+01  0.59301932335E+02  0.49999978675E+02 0.  0.
        -12    1    1    2    0    0 -0.36904411019E+01 -0.30908399908E+02  0.69117849175E+01  0.31886067665E+02  0.00000000000E+00 0.  1.
         11    1    3    3    0    0  0.62055767543E+01  0.63728082139E+00 -0.47453565445E+01  0.78379664898E+01  0.51100000000E-03 0. -1.
        -11    1    3    3    0    0  0.12798344852E+01  0.40213461869E+02  0.13488209466E+01  0.40256425699E+02  0.51100000000E-03 0.  1.
        -12    1    3    3    0    0 -0.37949701376E+01 -0.99423427825E+01 -0.35152493196E+01  0.11207540146E+02  0.00000000000E+00 0.  1.
</event>
<event>
 7    1  0.6065977E-013  0.5930195E+02  0.7816164E-02  0.1266605E+00
        -11   -1    0    0    0    0  0.00000000000E+00  0.00000000000E+00  0.45593999997E+02  0.45594000000E+02  0.51100000000E-03 0. -1.
         11   -1    0    0    0    0 -0.00000000000E+00 -0.00000000000E+00 -0.45593999997E+02  0.45594000000E+02  0.51100000000E-03 0.  1.
    9900012    2    1    2    0    0  0.63197654573E+01 -0.87931110521E+01  0.29991035700E+02  0.59301945686E+02  0.50000003023E+02 0.  0.
        -12    1    1    2    0    0 -0.63197654573E+01  0.87931110521E+01 -0.29991035700E+02  0.31886054314E+02  0.00000000000E+00 0.  1.
         11    1    3    3    0    0 -0.49219289651E+01  0.12902260596E+02  0.13863485186E+02  0.19567573559E+02  0.51100000000E-03 0. -1.
        -11    1    3    3    0    0  0.17257992593E+02 -0.78288209032E+01  0.20195645962E+01  0.19058000590E+02  0.51100000000E-03 0.  1.
        -12    1    3    3    0    0 -0.60162981707E+01 -0.13866550745E+02  0.14107985917E+02  0.20676371536E+02  0.00000000000E+00 0.  1.
</event>
<event>
 7    1  0.6065977E-013  0.5930196E+02  0.7816164E-02  0.1266605E+00
        -11   -1    0    0    0    0  0.00000000000E+00  0.00000000000E+00  0.45593999997E+02  0.45594000000E+02  0.51100000000E-03 0.  1.
         11   -1    0    0    0    0 -0.00000000000E+00 -0.00000000000E+00 -0.45593999997E+02  0.45594000000E+02  0.51100000000E-03 0. -1.
    9900012    2    1    2    0    0  0.62378855110E-01 -0.30440702357E+02 -0.94910219188E+01  0.59301956844E+02  0.50000023373E+02 0.  0.
        -12    1    1    2    0    0 -0.62378855110E-01  0.30440702357E+02  0.94910219188E+01  0.31886043156E+02  0.00000000000E+00 0.  1.
         11    1    3    3    0    0 -0.42156601700E+01 -0.56238078929E+00 -0.14760749526E+02  0.15361243102E+02  0.51100000000E-03 0. -1.
        -11    1    3    3    0    0  0.69970472319E+01 -0.32475284815E+02 -0.44517335934E+01  0.33517468968E+02  0.51100000000E-03 0.  1.
        -12    1    3    3    0    0 -0.27190082069E+01  0.25969632469E+01  0.97214612005E+01  0.10423244773E+02  0.00000000000E+00 0.  1.
</event>
<event>
 7    1  0.6065977E-013  0.5930201E+02  0.7816164E-02  0.1266605E+00
        -11   -1    0    0    0    0  0.00000000000E+00  0.00000000000E+00  0.45593999997E+02  0.45594000000E+02  0.51100000000E-03 0.  1.
         11   -1    0    0    0    0 -0.00000000000E+00 -0.00000000000E+00 -0.45593999997E+02  0.45594000000E+02  0.51100000000E-03 0. -1.
    9900012    2    1    2    0    0  0.98829395452E+01 -0.29403153130E+02 -0.73822946031E+01  0.59302012770E+02  0.50000125369E+02 0.  0.
        -12    1    1    2    0    0 -0.98829395452E+01  0.29403153130E+02  0.73822946031E+01  0.31885987230E+02  0.00000000000E+00 0.  1.
         11    1    3    3    0    0  0.12792057775E+01 -0.13598580158E+02 -0.28758960619E+01  0.13958099016E+02  0.51100000000E-03 0. -1.
        -11    1    3    3    0    0  0.12374193115E+02 -0.13981812283E+01  0.15828150796E+02  0.20139660471E+02  0.51100000000E-03 0.  1.
        -12    1    3    3    0    0 -0.37704593473E+01 -0.14406391744E+02 -0.20334549338E+02  0.25204253282E+02  0.00000000000E+00 0.  1.
</event>
<event>
 7    1  0.6065977E-013  0.5930196E+02  0.7816164E-02  0.1266605E+00
        -11   -1    0    0    0    0  0.00000000000E+00  0.00000000000E+00  0.45593999997E+02  0.45594000000E+02  0.51100000000E-03 0. -1.
         11   -1    0    0    0    0 -0.00000000000E+00 -0.00000000000E+00 -0.45593999997E+02  0.45594000000E+02  0.51100000000E-03 0.  1.
    9900012    2    1    2    0    0 -0.24537843927E+02  0.89799813468E+01  0.18274945933E+02  0.59301960760E+02  0.50000030516E+02 0.  0.
        -12    1    1    2    0    0  0.24537843927E+02 -0.89799813468E+01 -0.18274945933E+02  0.31886039240E+02  0.00000000000E+00 0.  1.
         11    1    3    3    0    0 -0.14559106171E+02 -0.10593869540E+02  0.15093222318E+02  0.23494744189E+02  0.51100000000E-03 0. -1.
        -11    1    3    3    0    0 -0.10430697598E+02  0.96771191615E+01 -0.11363046436E+02  0.18208923972E+02  0.51100000000E-03 0.  1.
        -12    1    3    3    0    0  0.45195984248E+00  0.98967317251E+01  0.14544770051E+02  0.17598292599E+02  0.00000000000E+00 0.  1.
</event>
<event>
 7    1  0.6065977E-013  0.5930194E+02  0.7816164E-02  0.1266605E+00
        -11   -1    0    0    0    0  0.00000000000E+00  0.00000000000E+00  0.45593999997E+02  0.45594000000E+02  0.51100000000E-03 0.  1.
         11   -1    0    0    0    0 -0.00000000000E+00 -0.00000000000E+00 -0.45593999997E+02  0.45594000000E+02  0.51100000000E-03 0. -1.
    9900012    2    1    2    0    0 -0.38350008213E+01 -0.14201929576E+02 -0.28289904148E+02  0.59301941735E+02  0.49999995819E+02 0.  0.
        -12    1    1    2    0    0  0.38350008213E+01  0.14201929576E+02  0.28289904148E+02  0.31886058265E+02  0.00000000000E+00 0.  1.
         11    1    3    3    0    0  0.72044331041E+01  0.40690593772E+01  0.33461757744E+01  0.89251326680E+01  0.51100000000E-03 0. -1.
        -11    1    3    3    0    0 -0.18529376070E+02 -0.14282755309E+02 -0.71520101722E+01  0.24463976098E+02  0.51100000000E-03 0.  1.
         12    1    3    3    0    0  0.74899421448E+01 -0.39882336440E+01 -0.24484069750E+02  0.25912832969E+02  0.00000000000E+00 0. -1.
</event>
<event>
 7    1  0.6065977E-013  0.5930195E+02  0.7816164E-02  0.1266605E+00
        -11   -1    0    0    0    0  0.00000000000E+00  0.00000000000E+00  0.45593999997E+02  0.45594000000E+02  0.51100000000E-03 0.  1.
         11   -1    0    0    0    0 -0.00000000000E+00 -0.00000000000E+00 -0.45593999997E+02  0.45594000000E+02  0.51100000000E-03 0. -1.
    9900012    2    1    2    0    0 -0.57255782430E+01  0.27575895090E+02 -0.14950177917E+02  0.59301952017E+02  0.50000014570E+02 0.  0.
        -12    1    1    2    0    0  0.57255782430E+01 -0.27575895090E+02  0.14950177917E+02  0.31886047983E+02  0.00000000000E+00 0.  1.
         11    1    3    3    0    0  0.39576113282E+01  0.22811363759E+02 -0.11405448092E+02  0.25809014905E+02  0.51100000000E-03 0. -1.
        -11    1    3    3    0    0 -0.20707812037E+02  0.52865215975E+00 -0.57068123551E+01  0.21486290047E+02  0.51100000000E-03 0.  1.
        -12    1    3    3    0    0  0.11024622466E+02  0.42358791718E+01  0.21620825297E+01  0.12006647065E+02  0.00000000000E+00 0.  1.
</event>
<event>
 7    1  0.6065977E-013  0.5930196E+02  0.7816164E-02  0.1266605E+00
        -11   -1    0    0    0    0  0.00000000000E+00  0.00000000000E+00  0.45593999997E+02  0.45594000000E+02  0.51100000000E-03 0.  1.
         11   -1    0    0    0    0 -0.00000000000E+00 -0.00000000000E+00 -0.45593999997E+02  0.45594000000E+02  0.51100000000E-03 0. -1.
    9900012    2    1    2    0    0  0.23742909297E+02 -0.56469540166E+01 -0.20520856550E+02  0.59301962537E+02  0.50000033756E+02 0.  0.
        -12    1    1    2    0    0 -0.23742909297E+02  0.56469540166E+01  0.20520856550E+02  0.31886037463E+02  0.00000000000E+00 0.  1.
         11    1    3    3    0    0  0.20924642923E+02 -0.74695646890E+01 -0.35765472265E+02  0.42104680080E+02  0.51100000000E-03 0. -1.
        -11    1    3    3    0    0  0.43118233300E+01 -0.63718226577E+00  0.53939345481E+01  0.69348649474E+01  0.51100000000E-03 0.  1.
         12    1    3    3    0    0 -0.14935569556E+01  0.24597929382E+01  0.98506811669E+01  0.10262417509E+02  0.00000000000E+00 0. -1.
</event>
<event>
 7    1  0.6065977E-013  0.5930193E+02  0.7816164E-02  0.1266605E+00
        -11   -1    0    0    0    0  0.00000000000E+00  0.00000000000E+00  0.45593999997E+02  0.45594000000E+02  0.51100000000E-03 0. -1.
         11   -1    0    0    0    0 -0.00000000000E+00 -0.00000000000E+00 -0.45593999997E+02  0.45594000000E+02  0.51100000000E-03 0.  1.
    9900012    2    1    2    0    0  0.14113759219E+01 -0.19230576473E+02  0.25395165895E+02  0.59301929306E+02  0.49999973151E+02 0.  0.
        -12    1    1    2    0    0 -0.14113759219E+01  0.19230576473E+02 -0.25395165895E+02  0.31886070694E+02  0.00000000000E+00 0.  1.
         11    1    3    3    0    0 -0.15999745893E+02 -0.86278636160E+01  0.28816122238E+01  0.18404770808E+02  0.51100000000E-03 0. -1.
        -11    1    3    3    0    0  0.43497903871E+01  0.66432015981E+01 -0.20140923557E+01  0.81920310157E+01  0.51100000000E-03 0.  1.
         12    1    3    3    0    0  0.13061331428E+02 -0.17245914455E+02  0.24527646027E+02  0.32705127483E+02  0.00000000000E+00 0. -1.
</event>
<event>
 7    1  0.6065977E-013  0.5930208E+02  0.7816164E-02  0.1266604E+00
        -11   -1    0    0    0    0  0.00000000000E+00  0.00000000000E+00  0.45593999997E+02  0.45594000000E+02  0.51100000000E-03 0. -1.
         11   -1    0    0    0    0 -0.00000000000E+00 -0.00000000000E+00 -0.45593999997E+02  0.45594000000E+02  0.51100000000E-03 0.  1.
    9900012    2    1    2    0    0 -0.28348084149E+02  0.67990052458E+01  0.12917872933E+02  0.59302081661E+02  0.50000251009E+02 0.  0.
        -12    1    1    2    0    0  0.28348084149E+02 -0.67990052458E+01 -0.12917872933E+02  0.31885918339E+02  0.00000000000E+00 0.  1.
         11    1    3    3    0    0 -0.25084252249E+02  0.12574001026E+02  0.50044243739E+01  0.28502095997E+02  0.51100000000E-03 0. -1.
        -11    1    3    3    0    0 -0.84471965578E+01 -0.12469404980E+02  0.13848606555E+02  0.20460329763E+02  0.51100000000E-03 0.  1.
        -12    1    3    3    0    0  0.51833646578E+01  0.66944091994E+01 -0.59351579959E+01  0.10339655900E+02  0.00000000000E+00 0.  1.
</event>
<event>
 7    1  0.6065977E-013  0.5930194E+02  0.7816164E-02  0.1266605E+00
        -11   -1    0    0    0    0  0.00000000000E+00  0.00000000000E+00  0.45593999997E+02  0.45594000000E+02  0.51100000000E-03 0.  1.
         11   -1    0    0    0    0 -0.00000000000E+00 -0.00000000000E+00 -0.45593999997E+02  0.45594000000E+02  0.51100000000E-03 0. -1.
    9900012    2    1    2    0    0  0.15654024929E+02  0.10725398553E+02 -0.25624954575E+02  0.59301937723E+02  0.49999988501E+02 0.  0.
        -12    1    1    2    0    0 -0.15654024929E+02 -0.10725398553E+02  0.25624954575E+02  0.31886062277E+02  0.00000000000E+00 0.  1.
         11    1    3    3    0    0  0.28762980181E+02  0.10609801795E+02 -0.16517229799E+02  0.34823782154E+02  0.51100000000E-03 0. -1.
        -11    1    3    3    0    0 -0.13101234714E+01  0.29493897221E+00  0.55217931072E+01  0.56827468611E+01  0.51100000000E-03 0.  1.
         12    1    3    3    0    0 -0.11798831780E+02 -0.17934221429E+00 -0.14629517883E+02  0.18795408708E+02  0.00000000000E+00 0. -1.
</event>
<event>
 7    1  0.6065977E-013  0.5930195E+02  0.7816164E-02  0.1266605E+00
        -11   -1    0    0    0    0  0.00000000000E+00  0.00000000000E+00  0.45593999997E+02  0.45594000000E+02  0.51100000000E-03 0. -1.
         11   -1    0    0    0    0 -0.00000000000E+00 -0.00000000000E+00 -0.45593999997E+02  0.45594000000E+02  0.51100000000E-03 0.  1.
    9900012    2    1    2    0    0 -0.38570572554E+01  0.31622420129E+02 -0.13659951729E+01  0.59301948374E+02  0.50000007927E+02 0.  0.
        -12    1    1    2    0    0  0.38570572554E+01 -0.31622420129E+02  0.13659951729E+01  0.31886051626E+02  0.00000000000E+00 0.  1.
         11    1    3    3    0    0  0.99044446267E+00 -0.71154592424E+01  0.12118313878E+02  0.14087734806E+02  0.51100000000E-03 0. -1.
        -11    1    3    3    0    0  0.63573082209E+01  0.22707816254E+02 -0.67228458964E+01  0.24520541268E+02  0.51100000000E-03 0.  1.
         12    1    3    3    0    0 -0.11204809939E+02  0.16030063117E+02 -0.67614631540E+01  0.20693672301E+02  0.00000000000E+00 0. -1.
</event>
<event>
 7    1  0.6065977E-013  0.5930196E+02  0.7816164E-02  0.1266605E+00
        -11   -1    0    0    0    0  0.00000000000E+00  0.00000000000E+00  0.45593999997E+02  0.45594000000E+02  0.51100000000E-03 0. -1.
         11   -1    0    0    0    0 -0.00000000000E+00 -0.00000000000E+00 -0.45593999997E+02  0.45594000000E+02  0.51100000000E-03 0.  1.
    9900012    2    1    2    0    0  0.10752799195E+02  0.27649904493E+02  0.11686728765E+02  0.59301960136E+02  0.50000029377E+02 0.  0.
        -12    1    1    2    0    0 -0.10752799195E+02 -0.27649904493E+02 -0.11686728765E+02  0.31886039864E+02  0.00000000000E+00 0.  1.
         11    1    3    3    0    0  0.40527240471E+01  0.19177290859E+02 -0.10198711961E+02  0.22095401848E+02  0.51100000000E-03 0. -1.
        -11    1    3    3    0    0  0.17591229268E+02  0.55867248104E+01  0.16331228637E+02  0.24644915709E+02  0.51100000000E-03 0.  1.
        -12    1    3    3    0    0 -0.10891154120E+02  0.28858888234E+01  0.55542120894E+01  0.12561642579E+02  0.00000000000E+00 0.  1.
</event>
<event>
 7    1  0.6065977E-013  0.5930196E+02  0.7816164E-02  0.1266605E+00
        -11   -1    0    0    0    0  0.00000000000E+00  0.00000000000E+00  0.45593999997E+02  0.45594000000E+02  0.51100000000E-03 0.  1.
         11   -1    0    0    0    0 -0.00000000000E+00 -0.00000000000E+00 -0.45593999997E+02  0.45594000000E+02  0.51100000000E-03 0. -1.
    9900012    2    1    2    0    0  0.28885259809E+02  0.59259218135E+01 -0.12134439670E+02  0.59301962152E+02  0.50000033054E+02 0.  0.
        -12    1    1    2    0    0 -0.28885259809E+02 -0.59259218135E+01  0.12134439670E+02  0.31886037848E+02  0.00000000000E+00 0.  1.
         11    1    3    3    0    0  0.89124235052E+01  0.21388847574E+02 -0.21887061074E+02  0.31874088787E+02  0.51100000000E-03 0. -1.
        -11    1    3    3    0    0  0.77892220240E+01 -0.87782384401E+01  0.46612974008E+01  0.12627634124E+02  0.51100000000E-03 0.  1.
         12    1    3    3    0    0  0.12183614280E+02 -0.66846873201E+01  0.50913240036E+01  0.14800239241E+02  0.00000000000E+00 0. -1.
</event>
<event>
 7    1  0.6065977E-013  0.5930194E+02  0.7816164E-02  0.1266605E+00
        -11   -1    0    0    0    0  0.00000000000E+00  0.00000000000E+00  0.45593999997E+02  0.45594000000E+02  0.51100000000E-03 0.  1.
         11   -1    0    0    0    0 -0.00000000000E+00 -0.00000000000E+00 -0.45593999997E+02  0.45594000000E+02  0.51100000000E-03 0. -1.
    9900012    2    1    2    0    0 -0.17530905477E+02  0.93084668029E+01 -0.24954775182E+02  0.59301937129E+02  0.49999987418E+02 0.  0.
        -12    1    1    2    0    0  0.17530905477E+02 -0.93084668029E+01  0.24954775182E+02  0.31886062871E+02  0.00000000000E+00 0.  1.
         11    1    3    3    0    0 -0.14594056344E+02 -0.77909820953E+01 -0.52170840376E+01  0.17346580317E+02  0.51100000000E-03 0.  1.
        -11    1    3    3    0    0 -0.56173858220E+01  0.26511713375E+02 -0.12880289993E+02  0.30005463504E+02  0.51100000000E-03 0. -1.
         12    1    3    3    0    0  0.26805366888E+01 -0.94122644768E+01 -0.68574011512E+01  0.11949893308E+02  0.00000000000E+00 0. -1.
</event>
<event>
 7    1  0.6065977E-013  0.5930191E+02  0.7816164E-02  0.1266605E+00
        -11   -1    0    0    0    0  0.00000000000E+00  0.00000000000E+00  0.45593999997E+02  0.45594000000E+02  0.51100000000E-03 0. -1.
         11   -1    0    0    0    0 -0.00000000000E+00 -0.00000000000E+00 -0.45593999997E+02  0.45594000000E+02  0.51100000000E-03 0.  1.
    9900012    2    1    2    0    0 -0.24072029601E+02 -0.17518391230E+02 -0.11417805928E+02  0.59301906909E+02  0.49999932305E+02 0.  0.
        -12    1    1    2    0    0  0.24072029601E+02  0.17518391230E+02  0.11417805928E+02  0.31886093091E+02  0.00000000000E+00 0.  1.
         11    1    3    3    0    0 -0.95334856141E+00 -0.98666778779E+01  0.84427691145E+01  0.13020774033E+02  0.51100000000E-03 0. -1.
        -11    1    3    3    0    0 -0.15031711828E+02  0.65251354863E+01 -0.24352941432E+02  0.29352947215E+02  0.51100000000E-03 0.  1.
        -12    1    3    3    0    0 -0.80869692113E+01 -0.14176848838E+02  0.44923663893E+01  0.16928185661E+02  0.00000000000E+00 0.  1.
</event>
<event>
 7    1  0.6065977E-013  0.5930195E+02  0.7816164E-02  0.1266605E+00
        -11   -1    0    0    0    0  0.00000000000E+00  0.00000000000E+00  0.45593999997E+02  0.45594000000E+02  0.51100000000E-03 0.  1.
         11   -1    0    0    0    0 -0.00000000000E+00 -0.00000000000E+00 -0.45593999997E+02  0.45594000000E+02  0.51100000000E-03 0. -1.
    9900012    2    1    2    0    0  0.81666624831E+01  0.12517687701E+02 -0.28166176665E+02  0.59301946788E+02  0.50000005035E+02 0.  0.
        -12    1    1    2    0    0 -0.81666624831E+01 -0.12517687701E+02  0.28166176665E+02  0.31886053212E+02  0.00000000000E+00 0.  1.
         11    1    3    3    0    0 -0.82209288848E+01  0.15746455030E+02 -0.22912422416E+02  0.28991612908E+02  0.51100000000E-03 0. -1.
        -11    1    3    3    0    0  0.10127968189E+02  0.17437611907E+01  0.91998212767E+01  0.13793228575E+02  0.51100000000E-03 0.  1.
         12    1    3    3    0    0  0.62596231786E+01 -0.49725285197E+01 -0.14453575525E+02  0.16517105306E+02  0.00000000000E+00 0. -1.
</event>
<event>
 7    1  0.6065977E-013  0.5930191E+02  0.7816164E-02  0.1266605E+00
        -11   -1    0    0    0    0  0.00000000000E+00  0.00000000000E+00  0.45593999997E+02  0.45594000000E+02  0.51100000000E-03 0. -1.
         11   -1    0    0    0    0 -0.00000000000E+00 -0.00000000000E+00 -0.45593999997E+02  0.45594000000E+02  0.51100000000E-03 0.  1.
    9900012    2    1    2    0    0  0.25871251082E+02  0.10545451296E+02  0.15368614500E+02  0.59301913893E+02  0.49999945041E+02 0.  0.
        -12    1    1    2    0    0 -0.25871251082E+02 -0.10545451296E+02 -0.15368614500E+02  0.31886086107E+02  0.00000000000E+00 0.  1.
         11    1    3    3    0    0 -0.20277409197E+01 -0.12973652428E+02  0.12761665887E+02  0.18310857627E+02  0.51100000000E-03 0. -1.
        -11    1    3    3    0    0  0.12950871812E+02  0.34503323226E+01  0.76956560593E+01  0.15454869662E+02  0.51100000000E-03 0.  1.
         12    1    3    3    0    0  0.14948120189E+02  0.20068771402E+02 -0.50887074462E+01  0.25536186603E+02  0.00000000000E+00 0. -1.
</event>
<event>
 7    1  0.6065977E-013  0.5930196E+02  0.7816164E-02  0.1266605E+00
        -11   -1    0    0    0    0  0.00000000000E+00  0.00000000000E+00  0.45593999997E+02  0.45594000000E+02  0.51100000000E-03 0. -1.
         11   -1    0    0    0    0 -0.00000000000E+00 -0.00000000000E+00 -0.45593999997E+02  0.45594000000E+02  0.51100000000E-03 0.  1.
    9900012    2    1    2    0    0 -0.16221685217E+00  0.21094418895E+02  0.23910642082E+02  0.59301958734E+02  0.50000026821E+02 0.  0.
        -12    1    1    2    0    0  0.16221685217E+00 -0.21094418895E+02 -0.23910642082E+02  0.31886041266E+02  0.00000000000E+00 0.  1.
         11    1    3    3    0    0 -0.15302891662E+02 -0.39643403921E+01 -0.41287645211E+01  0.16338334820E+02  0.51100000000E-03 0. -1.
        -11    1    3    3    0    0  0.25708285592E+01  0.12780221503E+02  0.49409252113E+01  0.13941160760E+02  0.51100000000E-03 0.  1.
         12    1    3    3    0    0  0.12569846251E+02  0.12278537784E+02  0.23098481392E+02  0.29022463154E+02  0.00000000000E+00 0. -1.
</event>
<event>
 7    1  0.6065977E-013  0.5930195E+02  0.7816164E-02  0.1266605E+00
        -11   -1    0    0    0    0  0.00000000000E+00  0.00000000000E+00  0.45593999997E+02  0.45594000000E+02  0.51100000000E-03 0.  1.
         11   -1    0    0    0    0 -0.00000000000E+00 -0.00000000000E+00 -0.45593999997E+02  0.45594000000E+02  0.51100000000E-03 0. -1.
    9900012    2    1    2    0    0 -0.19838817038E+02  0.10988780103E+02 -0.22414018988E+02  0.59301949809E+02  0.50000010543E+02 0.  0.
        -12    1    1    2    0    0  0.19838817038E+02 -0.10988780103E+02  0.22414018988E+02  0.31886050191E+02  0.00000000000E+00 0.  1.
         11    1    3    3    0    0 -0.29787211398E+02 -0.53872895782E+01 -0.59643934671E+01  0.30852468971E+02  0.51100000000E-03 0. -1.
        -11    1    3    3    0    0  0.48214214111E+01  0.80707968699E+01 -0.92560014678E-01  0.94017250628E+01  0.51100000000E-03 0.  1.
         12    1    3    3    0    0  0.51269729496E+01  0.83052728113E+01 -0.16357065506E+02  0.19047755775E+02  0.00000000000E+00 0. -1.
</event>
<event>
 7    1  0.6065977E-013  0.5930194E+02  0.7816164E-02  0.1266605E+00
        -11   -1    0    0    0    0  0.00000000000E+00  0.00000000000E+00  0.45593999997E+02  0.45594000000E+02  0.51100000000E-03 0.  1.
         11   -1    0    0    0    0 -0.00000000000E+00 -0.00000000000E+00 -0.45593999997E+02  0.45594000000E+02  0.51100000000E-03 0. -1.
    9900012    2    1    2    0    0  0.20494600679E+02 -0.10461999704E+02 -0.22073483499E+02  0.59301940843E+02  0.49999994192E+02 0.  0.
        -12    1    1    2    0    0 -0.20494600679E+02  0.10461999704E+02  0.22073483499E+02  0.31886059157E+02  0.00000000000E+00 0.  1.
         11    1    3    3    0    0  0.21271450084E+02  0.11046564249E+02 -0.14490159798E+02  0.28008318436E+02  0.51100000000E-03 0. -1.
        -11    1    3    3    0    0 -0.20626972852E+01 -0.25738377657E+02 -0.54717825787E+01  0.26394302593E+02  0.51100000000E-03 0.  1.
        -12    1    3    3    0    0  0.12858478802E+01  0.42298137039E+01 -0.21115411223E+01  0.48993198152E+01  0.00000000000E+00 0.  1.
</event>
<event>
 7    1  0.6065977E-013  0.5930194E+02  0.7816164E-02  0.1266605E+00
        -11   -1    0    0    0    0  0.00000000000E+00  0.00000000000E+00  0.45593999997E+02  0.45594000000E+02  0.51100000000E-03 0. -1.
         11   -1    0    0    0    0 -0.00000000000E+00 -0.00000000000E+00 -0.45593999997E+02  0.45594000000E+02  0.51100000000E-03 0.  1.
    9900012    2    1    2    0    0 -0.13936376850E+02  0.28678389281E+02 -0.21957504784E+00  0.59301939964E+02  0.49999992588E+02 0.  0.
        -12    1    1    2    0    0  0.13936376850E+02 -0.28678389281E+02  0.21957504784E+00  0.31886060036E+02  0.00000000000E+00 0.  1.
         11    1    3    3    0    0 -0.26674307935E+02  0.73021722588E+01 -0.43049631239E+00  0.27659098880E+02  0.51100000000E-03 0. -1.
        -11    1    3    3    0    0  0.14922643460E+02  0.73420706143E+01 -0.34285960448E+01  0.16980770296E+02  0.51100000000E-03 0.  1.
        -12    1    3    3    0    0 -0.21847123749E+01  0.14034146408E+02  0.36395173093E+01  0.14662070788E+02  0.00000000000E+00 0.  1.
</event>
<event>
 7    1  0.6065977E-013  0.5930193E+02  0.7816164E-02  0.1266605E+00
        -11   -1    0    0    0    0  0.00000000000E+00  0.00000000000E+00  0.45593999997E+02  0.45594000000E+02  0.51100000000E-03 0.  1.
         11   -1    0    0    0    0 -0.00000000000E+00 -0.00000000000E+00 -0.45593999997E+02  0.45594000000E+02  0.51100000000E-03 0. -1.
    9900012    2    1    2    0    0 -0.12174964739E+01  0.16569952476E+02 -0.27215360626E+02  0.59301929738E+02  0.49999973940E+02 0.  0.
        -12    1    1    2    0    0  0.12174964739E+01 -0.16569952476E+02  0.27215360626E+02  0.31886070262E+02  0.00000000000E+00 0.  1.
         11    1    3    3    0    0  0.18858237765E+02  0.85168775898E+01 -0.25443326377E+02  0.32795322728E+02  0.51100000000E-03 0. -1.
        -11    1    3    3    0    0 -0.19454386488E+02  0.52911866049E+01  0.35568506021E+01  0.20472444793E+02  0.51100000000E-03 0.  1.
         12    1    3    3    0    0 -0.62134775033E+00  0.27618882815E+01 -0.53288848513E+01  0.60341622174E+01  0.00000000000E+00 0. -1.
</event>
<event>
 7    1  0.6065977E-013  0.5930206E+02  0.7816164E-02  0.1266604E+00
        -11   -1    0    0    0    0  0.00000000000E+00  0.00000000000E+00  0.45593999997E+02  0.45594000000E+02  0.51100000000E-03 0.  1.
         11   -1    0    0    0    0 -0.00000000000E+00 -0.00000000000E+00 -0.45593999997E+02  0.45594000000E+02  0.51100000000E-03 0. -1.
    9900012    2    1    2    0    0  0.25246089822E+02 -0.26755275127E+01 -0.19292220065E+02  0.59302058681E+02  0.50000209099E+02 0.  0.
        -12    1    1    2    0    0 -0.25246089822E+02  0.26755275127E+01  0.19292220065E+02  0.31885941319E+02  0.00000000000E+00 0.  1.
         11    1    3    3    0    0  0.23488534217E+02 -0.22407265947E+02 -0.12592448461E+02  0.34819054631E+02  0.51100000000E-03 0. -1.
        -11    1    3    3    0    0  0.22706351498E+01  0.16027108213E+02 -0.10385302792E+02  0.19232225456E+02  0.51100000000E-03 0.  1.
         12    1    3    3    0    0 -0.51307954450E+00  0.37046302214E+01  0.36855311885E+01  0.52507785934E+01  0.00000000000E+00 0. -1.
</event>
<event>
 7    1  0.6065977E-013  0.5930194E+02  0.7816164E-02  0.1266605E+00
        -11   -1    0    0    0    0  0.00000000000E+00  0.00000000000E+00  0.45593999997E+02  0.45594000000E+02  0.51100000000E-03 0.  1.
         11   -1    0    0    0    0 -0.00000000000E+00 -0.00000000000E+00 -0.45593999997E+02  0.45594000000E+02  0.51100000000E-03 0. -1.
    9900012    2    1    2    0    0  0.29432530328E+02  0.99619954778E+00  0.12225156339E+02  0.59301941878E+02  0.49999996080E+02 0.  0.
        -12    1    1    2    0    0 -0.29432530328E+02 -0.99619954778E+00 -0.12225156339E+02  0.31886058122E+02  0.00000000000E+00 0.  1.
         11    1    3    3    0    0  0.13481745449E+02  0.15317885537E+02  0.20336312119E+02  0.28809037966E+02  0.51100000000E-03 0. -1.
        -11    1    3    3    0    0  0.76440848279E+00 -0.13563155142E+02 -0.76552282356E+00  0.13606231043E+02  0.51100000000E-03 0.  1.
         12    1    3    3    0    0  0.15186376396E+02 -0.75853084692E+00 -0.73456329561E+01  0.16886672869E+02  0.00000000000E+00 0. -1.
</event>
<event>
 7    1  0.6065977E-013  0.5930195E+02  0.7816164E-02  0.1266605E+00
        -11   -1    0    0    0    0  0.00000000000E+00  0.00000000000E+00  0.45593999997E+02  0.45594000000E+02  0.51100000000E-03 0. -1.
         11   -1    0    0    0    0 -0.00000000000E+00 -0.00000000000E+00 -0.45593999997E+02  0.45594000000E+02  0.51100000000E-03 0.  1.
    9900012    2    1    2    0    0 -0.17767937262E+02 -0.16965806098E+02  0.20326874731E+02  0.59301952778E+02  0.50000015959E+02 0.  0.
        -12    1    1    2    0    0  0.17767937262E+02  0.16965806098E+02 -0.20326874731E+02  0.31886047222E+02  0.00000000000E+00 0.  1.
         11    1    3    3    0    0  0.66156197447E-01 -0.31047665026E+02  0.17679341321E+02  0.35728433915E+02  0.51100000000E-03 0. -1.
        -11    1    3    3    0    0 -0.59482340804E+01  0.17041893510E+01 -0.13467294951E+00  0.61890134177E+01  0.51100000000E-03 0.  1.
         12    1    3    3    0    0 -0.11885859379E+02  0.12377669578E+02  0.27822063593E+01  0.17384505445E+02  0.00000000000E+00 0. -1.
</event>
<event>
 7    1  0.6065977E-013  0.5930193E+02  0.7816164E-02  0.1266605E+00
        -11   -1    0    0    0    0  0.00000000000E+00  0.00000000000E+00  0.45593999997E+02  0.45594000000E+02  0.51100000000E-03 0.  1.
         11   -1    0    0    0    0 -0.00000000000E+00 -0.00000000000E+00 -0.45593999997E+02  0.45594000000E+02  0.51100000000E-03 0. -1.
    9900012    2    1    2    0    0  0.28320993100E+02 -0.13676986254E+02  0.52519281955E+01  0.59301931679E+02  0.49999977480E+02 0.  0.
        -12    1    1    2    0    0 -0.28320993100E+02  0.13676986254E+02 -0.52519281955E+01  0.31886068321E+02  0.00000000000E+00 0.  1.
         11    1    3    3    0    0  0.16244421983E+02  0.14468463738E+02 -0.39898861319E+01  0.22116439137E+02  0.51100000000E-03 0. -1.
        -11    1    3    3    0    0  0.88302198210E+01 -0.11868321464E+02  0.13525218108E+02  0.20043985671E+02  0.51100000000E-03 0.  1.
        -12    1    3    3    0    0  0.32463512961E+01 -0.16277128528E+02 -0.42834037806E+01  0.17141506871E+02  0.00000000000E+00 0.  1.
</event>
<event>
 7    1  0.6065977E-013  0.5930194E+02  0.7816164E-02  0.1266605E+00
        -11   -1    0    0    0    0  0.00000000000E+00  0.00000000000E+00  0.45593999997E+02  0.45594000000E+02  0.51100000000E-03 0.  1.
         11   -1    0    0    0    0 -0.00000000000E+00 -0.00000000000E+00 -0.45593999997E+02  0.45594000000E+02  0.51100000000E-03 0. -1.
    9900012    2    1    2    0    0  0.14234556455E+02  0.26335139669E+02 -0.10979915795E+02  0.59301941452E+02  0.49999995303E+02 0.  0.
        -12    1    1    2    0    0 -0.14234556455E+02 -0.26335139669E+02  0.10979915795E+02  0.31886058548E+02  0.00000000000E+00 0.  1.
         11    1    3    3    0    0 -0.11571318802E+01  0.33324121577E+02  0.11334312527E+01  0.33363463546E+02  0.51100000000E-03 0. -1.
        -11    1    3    3    0    0  0.14229556282E+02  0.12879066992E+01 -0.95901456893E+01  0.17207843277E+02  0.51100000000E-03 0.  1.
         12    1    3    3    0    0  0.11621320533E+01 -0.82768886079E+01 -0.25232013588E+01  0.87306346295E+01  0.00000000000E+00 0. -1.
</event>
<event>
 7    1  0.6065977E-013  0.5930201E+02  0.7816164E-02  0.1266605E+00
        -11   -1    0    0    0    0  0.00000000000E+00  0.00000000000E+00  0.45593999997E+02  0.45594000000E+02  0.51100000000E-03 0.  1.
         11   -1    0    0    0    0 -0.00000000000E+00 -0.00000000000E+00 -0.45593999997E+02  0.45594000000E+02  0.51100000000E-03 0. -1.
    9900012    2    1    2    0    0  0.10165614281E+02 -0.28628064048E+02  0.96855727379E+01  0.59302014299E+02  0.50000128159E+02 0.  0.
        -12    1    1    2    0    0 -0.10165614281E+02  0.28628064048E+02 -0.96855727379E+01  0.31885985701E+02  0.00000000000E+00 0.  1.
         11    1    3    3    0    0  0.54039411364E+01 -0.38082452226E+02  0.15130450916E+02  0.41332871816E+02  0.51100000000E-03 0. -1.
        -11    1    3    3    0    0  0.69780910612E+01  0.10016788424E+02 -0.15783928446E+00  0.12208796775E+02  0.51100000000E-03 0.  1.
         12    1    3    3    0    0 -0.22164179169E+01 -0.56240024558E+00 -0.52870388937E+01  0.57603457085E+01  0.00000000000E+00 0. -1.
</event>
<event>
 7    1  0.6065977E-013  0.5930195E+02  0.7816164E-02  0.1266605E+00
        -11   -1    0    0    0    0  0.00000000000E+00  0.00000000000E+00  0.45593999997E+02  0.45594000000E+02  0.51100000000E-03 0.  1.
         11   -1    0    0    0    0 -0.00000000000E+00 -0.00000000000E+00 -0.45593999997E+02  0.45594000000E+02  0.51100000000E-03 0. -1.
    9900012    2    1    2    0    0  0.77082410035E+01  0.29406550297E+02 -0.96207189661E+01  0.59301946416E+02  0.50000004356E+02 0.  0.
        -12    1    1    2    0    0 -0.77082410035E+01 -0.29406550297E+02  0.96207189661E+01  0.31886053584E+02  0.00000000000E+00 0.  1.
         11    1    3    3    0    0  0.46370160732E+01  0.20700096090E+02 -0.64538995104E+01  0.22173153031E+02  0.51100000000E-03 0.  1.
        -11    1    3    3    0    0 -0.13661249462E+02 -0.16583027717E+01  0.64781829809E+01  0.15210080865E+02  0.51100000000E-03 0. -1.
        -12    1    3    3    0    0  0.16732474392E+02  0.10364756979E+02 -0.96450024367E+01  0.21918712519E+02  0.00000000000E+00 0.  1.
</event>
<event>
 7    1  0.6065977E-013  0.5930195E+02  0.7816164E-02  0.1266605E+00
        -11   -1    0    0    0    0  0.00000000000E+00  0.00000000000E+00  0.45593999997E+02  0.45594000000E+02  0.51100000000E-03 0.  1.
         11   -1    0    0    0    0 -0.00000000000E+00 -0.00000000000E+00 -0.45593999997E+02  0.45594000000E+02  0.51100000000E-03 0. -1.
    9900012    2    1    2    0    0 -0.21660402137E+02 -0.15108482600E+02 -0.17868436827E+02  0.59301948161E+02  0.50000007538E+02 0.  0.
        -12    1    1    2    0    0  0.21660402137E+02  0.15108482600E+02  0.17868436827E+02  0.31886051839E+02  0.00000000000E+00 0.  1.
         11    1    3    3    0    0 -0.63250102810E+01  0.68535692827E+01 -0.23119989203E+02  0.24930123705E+02  0.51100000000E-03 0. -1.
        -11    1    3    3    0    0 -0.74083250684E+01 -0.19208559545E+02  0.11798121053E+02  0.23728626188E+02  0.51100000000E-03 0.  1.
        -12    1    3    3    0    0 -0.79270667879E+01 -0.27534923383E+01 -0.65465686776E+01  0.10643198268E+02  0.00000000000E+00 0.  1.
</event>
<event>
 7    1  0.6065977E-013  0.5930195E+02  0.7816164E-02  0.1266605E+00
        -11   -1    0    0    0    0  0.00000000000E+00  0.00000000000E+00  0.45593999997E+02  0.45594000000E+02  0.51100000000E-03 0.  1.
         11   -1    0    0    0    0 -0.00000000000E+00 -0.00000000000E+00 -0.45593999997E+02  0.45594000000E+02  0.51100000000E-03 0. -1.
    9900012    2    1    2    0    0  0.16426091685E+01  0.31142186720E+02 -0.66472864056E+01  0.59301947012E+02  0.50000005443E+02 0.  0.
        -12    1    1    2    0    0 -0.16426091685E+01 -0.31142186720E+02  0.66472864056E+01  0.31886052988E+02  0.00000000000E+00 0.  1.
         11    1    3    3    0    0  0.23948280034E+02  0.23391281385E+02 -0.95919560325E-01  0.33476579309E+02  0.51100000000E-03 0.  1.
        -11    1    3    3    0    0 -0.99845182664E+01 -0.23705105276E+00 -0.46570041098E+01  0.11019731655E+02  0.51100000000E-03 0. -1.
         12    1    3    3    0    0 -0.12321152599E+02  0.79879563881E+01 -0.18943627355E+01  0.14805636048E+02  0.00000000000E+00 0. -1.
</event>
<event>
 7    1  0.6065977E-013  0.5930194E+02  0.7816164E-02  0.1266605E+00
        -11   -1    0    0    0    0  0.00000000000E+00  0.00000000000E+00  0.45593999997E+02  0.45594000000E+02  0.51100000000E-03 0. -1.
         11   -1    0    0    0    0 -0.00000000000E+00 -0.00000000000E+00 -0.45593999997E+02  0.45594000000E+02  0.51100000000E-03 0.  1.
    9900012    2    1    2    0    0  0.10084483212E+02 -0.26677154006E+02  0.14260200014E+02  0.59301942672E+02  0.49999997527E+02 0.  0.
        -12    1    1    2    0    0 -0.10084483212E+02  0.26677154006E+02 -0.14260200014E+02  0.31886057328E+02  0.00000000000E+00 0.  1.
         11    1    3    3    0    0  0.11930725228E+02  0.55003512519E+01  0.17256012168E+02  0.21687923473E+02  0.51100000000E-03 0. -1.
        -11    1    3    3    0    0 -0.28836907066E+01 -0.24635111079E+02  0.63073064418E+01  0.25592703741E+02  0.51100000000E-03 0.  1.
         12    1    3    3    0    0  0.10374486908E+01 -0.75423941791E+01 -0.93031185958E+01  0.12021315458E+02  0.00000000000E+00 0. -1.
</event>
<event>
 7    1  0.6065977E-013  0.5930194E+02  0.7816164E-02  0.1266605E+00
        -11   -1    0    0    0    0  0.00000000000E+00  0.00000000000E+00  0.45593999997E+02  0.45594000000E+02  0.51100000000E-03 0.  1.
         11   -1    0    0    0    0 -0.00000000000E+00 -0.00000000000E+00 -0.45593999997E+02  0.45594000000E+02  0.51100000000E-03 0. -1.
    9900012    2    1    2    0    0 -0.16123654601E+02 -0.26019434388E+02  0.89295826865E+01  0.59301942694E+02  0.49999997568E+02 0.  0.
        -12    1    1    2    0    0  0.16123654601E+02  0.26019434388E+02 -0.89295826865E+01  0.31886057306E+02  0.00000000000E+00 0.  1.
         11    1    3    3    0    0 -0.26140476093E+02 -0.20778099314E+02  0.15542311100E+02  0.36832286598E+02  0.51100000000E-03 0. -1.
        -11    1    3    3    0    0  0.41586695025E+01 -0.31963903080E+01 -0.12722724838E+02  0.13761510476E+02  0.51100000000E-03 0.  1.
        -12    1    3    3    0    0  0.58581519894E+01 -0.20449447652E+01  0.61099964246E+01  0.87081456196E+01  0.00000000000E+00 0.  1.
</event>
<event>
 7    1  0.6065977E-013  0.5930190E+02  0.7816164E-02  0.1266605E+00
        -11   -1    0    0    0    0  0.00000000000E+00  0.00000000000E+00  0.45593999997E+02  0.45594000000E+02  0.51100000000E-03 0.  1.
         11   -1    0    0    0    0 -0.00000000000E+00 -0.00000000000E+00 -0.45593999997E+02  0.45594000000E+02  0.51100000000E-03 0. -1.
    9900012    2    1    2    0    0  0.29841539084E+02  0.86820641376E+01 -0.71293546994E+01  0.59301899721E+02  0.49999919195E+02 0.  0.
        -12    1    1    2    0    0 -0.29841539084E+02 -0.86820641376E+01  0.71293546994E+01  0.31886100279E+02  0.00000000000E+00 0.  1.
         11    1    3    3    0    0  0.73136821672E+00 -0.10879755902E+02 -0.28111077625E+01  0.11260831012E+02  0.51100000000E-03 0.  1.
        -11    1    3    3    0    0  0.91915064618E+01  0.21920064509E+02 -0.11920636678E+02  0.26590874341E+02  0.51100000000E-03 0. -1.
        -12    1    3    3    0    0  0.19918664405E+02 -0.23582444697E+01  0.76023897414E+01  0.21450194369E+02  0.00000000000E+00 0.  1.
</event>
<event>
 7    1  0.6065977E-013  0.5930193E+02  0.7816164E-02  0.1266605E+00
        -11   -1    0    0    0    0  0.00000000000E+00  0.00000000000E+00  0.45593999997E+02  0.45594000000E+02  0.51100000000E-03 0.  1.
         11   -1    0    0    0    0 -0.00000000000E+00 -0.00000000000E+00 -0.45593999997E+02  0.45594000000E+02  0.51100000000E-03 0. -1.
    9900012    2    1    2    0    0  0.18818502617E+02  0.20329420191E+02 -0.15789230362E+02  0.59301934682E+02  0.49999982956E+02 0.  0.
        -12    1    1    2    0    0 -0.18818502617E+02 -0.20329420191E+02  0.15789230362E+02  0.31886065318E+02  0.00000000000E+00 0.  1.
         11    1    3    3    0    0  0.47290792675E+01  0.31774566190E+02 -0.10876105338E+02  0.33915732557E+02  0.51100000000E-03 0. -1.
        -11    1    3    3    0    0  0.40595471539E+01 -0.11121054403E+02  0.34410837522E+01  0.12328780628E+02  0.51100000000E-03 0.  1.
         12    1    3    3    0    0  0.10029876196E+02 -0.32409159657E+00 -0.83542087758E+01  0.13057421496E+02  0.00000000000E+00 0. -1.
</event>
<event>
 7    1  0.6065977E-013  0.5930196E+02  0.7816164E-02  0.1266605E+00
        -11   -1    0    0    0    0  0.00000000000E+00  0.00000000000E+00  0.45593999997E+02  0.45594000000E+02  0.51100000000E-03 0.  1.
         11   -1    0    0    0    0 -0.00000000000E+00 -0.00000000000E+00 -0.45593999997E+02  0.45594000000E+02  0.51100000000E-03 0. -1.
    9900012    2    1    2    0    0  0.21319193994E+02 -0.64102331128E+01 -0.22828068358E+02  0.59301955622E+02  0.50000021146E+02 0.  0.
        -12    1    1    2    0    0 -0.21319193994E+02  0.64102331128E+01  0.22828068358E+02  0.31886044378E+02  0.00000000000E+00 0.  1.
         11    1    3    3    0    0  0.92702923744E+01 -0.58956860459E+01 -0.22351967808E+02  0.24905981205E+02  0.51100000000E-03 0. -1.
        -11    1    3    3    0    0  0.19827710253E+02 -0.19709525044E+01  0.91570737967E+01  0.21928856524E+02  0.51100000000E-03 0.  1.
         12    1    3    3    0    0 -0.77788086342E+01  0.14564054374E+01 -0.96331743471E+01  0.12467117893E+02  0.00000000000E+00 0. -1.
</event>
<event>
 7    1  0.6065977E-013  0.5930198E+02  0.7816164E-02  0.1266605E+00
        -11   -1    0    0    0    0  0.00000000000E+00  0.00000000000E+00  0.45593999997E+02  0.45594000000E+02  0.51100000000E-03 0. -1.
         11   -1    0    0    0    0 -0.00000000000E+00 -0.00000000000E+00 -0.45593999997E+02  0.45594000000E+02  0.51100000000E-03 0.  1.
    9900012    2    1    2    0    0 -0.41576694141E+01 -0.26655462861E+02  0.16997600814E+02  0.59301978788E+02  0.50000063395E+02 0.  0.
        -12    1    1    2    0    0  0.41576694141E+01  0.26655462861E+02 -0.16997600814E+02  0.31886021212E+02  0.00000000000E+00 0.  1.
         11    1    3    3    0    0  0.92435141399E+01  0.98199851812E+00 -0.78649815042E+01  0.12176403782E+02  0.51100000000E-03 0. -1.
        -11    1    3    3    0    0 -0.46706485969E+01 -0.18415729577E+02 -0.23270104096E+00  0.19000215899E+02  0.51100000000E-03 0.  1.
         12    1    3    3    0    0 -0.87305349570E+01 -0.92217318021E+01  0.25095283359E+02  0.28125359108E+02  0.00000000000E+00 0. -1.
</event>
<event>
 7    1  0.6065977E-013  0.5930199E+02  0.7816164E-02  0.1266605E+00
        -11   -1    0    0    0    0  0.00000000000E+00  0.00000000000E+00  0.45593999997E+02  0.45594000000E+02  0.51100000000E-03 0.  1.
         11   -1    0    0    0    0 -0.00000000000E+00 -0.00000000000E+00 -0.45593999997E+02  0.45594000000E+02  0.51100000000E-03 0. -1.
    9900012    2    1    2    0    0 -0.25583838950E+02 -0.18924344833E+02  0.20135125461E+01  0.59301986208E+02  0.50000076926E+02 0.  0.
        -12    1    1    2    0    0  0.25583838950E+02  0.18924344833E+02 -0.20135125461E+01  0.31886013792E+02  0.00000000000E+00 0.  1.
         11    1    3    3    0    0  0.11222636834E+01 -0.26510331230E+02  0.10245615701E+02  0.28443448789E+02  0.51100000000E-03 0. -1.
        -11    1    3    3    0    0 -0.13645951408E+02  0.53660508529E+01  0.10223441054E+01  0.14698696518E+02  0.51100000000E-03 0.  1.
        -12    1    3    3    0    0 -0.13060151225E+02  0.22199355434E+01 -0.92544472607E+01  0.16159840900E+02  0.00000000000E+00 0.  1.
</event>
<event>
 7    1  0.6065977E-013  0.5930194E+02  0.7816164E-02  0.1266605E+00
        -11   -1    0    0    0    0  0.00000000000E+00  0.00000000000E+00  0.45593999997E+02  0.45594000000E+02  0.51100000000E-03 0. -1.
         11   -1    0    0    0    0 -0.00000000000E+00 -0.00000000000E+00 -0.45593999997E+02  0.45594000000E+02  0.51100000000E-03 0.  1.
    9900012    2    1    2    0    0 -0.13377468578E+02 -0.75973664871E+01  0.27929266230E+02  0.59301944188E+02  0.50000000292E+02 0.  0.
        -12    1    1    2    0    0  0.13377468578E+02  0.75973664871E+01 -0.27929266230E+02  0.31886055812E+02  0.00000000000E+00 0.  1.
         11    1    3    3    0    0 -0.11400963853E+02 -0.98153505144E+01  0.10200346818E+02  0.18176087532E+02  0.51100000000E-03 0. -1.
        -11    1    3    3    0    0  0.11946497527E+01  0.16216606154E+02  0.20846101370E+02  0.26437954644E+02  0.51100000000E-03 0.  1.
        -12    1    3    3    0    0 -0.31711544774E+01 -0.13998622126E+02 -0.31171819578E+01  0.14687902012E+02  0.00000000000E+00 0.  1.
</event>
<event>
 7    1  0.6065977E-013  0.5930196E+02  0.7816164E-02  0.1266605E+00
        -11   -1    0    0    0    0  0.00000000000E+00  0.00000000000E+00  0.45593999997E+02  0.45594000000E+02  0.51100000000E-03 0.  1.
         11   -1    0    0    0    0 -0.00000000000E+00 -0.00000000000E+00 -0.45593999997E+02  0.45594000000E+02  0.51100000000E-03 0. -1.
    9900012    2    1    2    0    0  0.19893396992E+02  0.44339818109E+01 -0.24521664806E+02  0.59301960995E+02  0.50000030945E+02 0.  0.
        -12    1    1    2    0    0 -0.19893396992E+02 -0.44339818109E+01  0.24521664806E+02  0.31886039005E+02  0.00000000000E+00 0.  1.
         11    1    3    3    0    0 -0.10651752760E+02  0.32517751698E+01 -0.13049352624E-01  0.11137057473E+02  0.51100000000E-03 0. -1.
        -11    1    3    3    0    0  0.13442093459E+02 -0.11351529531E+02 -0.27934606251E+01  0.17814334728E+02  0.51100000000E-03 0.  1.
        -12    1    3    3    0    0  0.17103056292E+02  0.12533736172E+02 -0.21715154828E+02  0.30350568795E+02  0.00000000000E+00 0.  1.
</event>
<event>
 7    1  0.6065977E-013  0.5930196E+02  0.7816164E-02  0.1266605E+00
        -11   -1    0    0    0    0  0.00000000000E+00  0.00000000000E+00  0.45593999997E+02  0.45594000000E+02  0.51100000000E-03 0.  1.
         11   -1    0    0    0    0 -0.00000000000E+00 -0.00000000000E+00 -0.45593999997E+02  0.45594000000E+02  0.51100000000E-03 0. -1.
    9900012    2    1    2    0    0  0.21901819495E+01 -0.84064801764E+00 -0.31799620379E+02  0.59301961640E+02  0.50000032120E+02 0.  0.
        -12    1    1    2    0    0 -0.21901819495E+01  0.84064801764E+00  0.31799620379E+02  0.31886038360E+02  0.00000000000E+00 0.  1.
         11    1    3    3    0    0  0.16110414681E+02 -0.16406840239E+02 -0.11116264777E+02  0.25540188149E+02  0.51100000000E-03 0. -1.
        -11    1    3    3    0    0 -0.14120706891E+02  0.14693196879E+02 -0.93984467300E+01  0.22441372481E+02  0.51100000000E-03 0.  1.
         12    1    3    3    0    0  0.20047415964E+00  0.87299534221E+00 -0.11284908872E+02  0.11320401010E+02  0.00000000000E+00 0. -1.
</event>
<event>
 7    1  0.6065977E-013  0.5930193E+02  0.7816164E-02  0.1266605E+00
        -11   -1    0    0    0    0  0.00000000000E+00  0.00000000000E+00  0.45593999997E+02  0.45594000000E+02  0.51100000000E-03 0.  1.
         11   -1    0    0    0    0 -0.00000000000E+00 -0.00000000000E+00 -0.45593999997E+02  0.45594000000E+02  0.51100000000E-03 0. -1.
    9900012    2    1    2    0    0  0.19363987173E+02  0.23304762357E+02 -0.99320292345E+01  0.59301934823E+02  0.49999983212E+02 0.  0.
        -12    1    1    2    0    0 -0.19363987173E+02 -0.23304762357E+02  0.99320292345E+01  0.31886065177E+02  0.00000000000E+00 0.  1.
         11    1    3    3    0    0  0.93718014404E+01 -0.91526404149E+01 -0.46956350011E+00  0.13108088302E+02  0.51100000000E-03 0. -1.
        -11    1    3    3    0    0 -0.10639912910E+02  0.10249854413E+02 -0.14805019239E+01  0.14847866797E+02  0.51100000000E-03 0.  1.
        -12    1    3    3    0    0  0.20632098643E+02  0.22207548360E+02 -0.79819638104E+01  0.31345979723E+02  0.00000000000E+00 0.  1.
</event>
<event>
 7    1  0.6065977E-013  0.5930192E+02  0.7816164E-02  0.1266605E+00
        -11   -1    0    0    0    0  0.00000000000E+00  0.00000000000E+00  0.45593999997E+02  0.45594000000E+02  0.51100000000E-03 0.  1.
         11   -1    0    0    0    0 -0.00000000000E+00 -0.00000000000E+00 -0.45593999997E+02  0.45594000000E+02  0.51100000000E-03 0. -1.
    9900012    2    1    2    0    0 -0.15071969047E+02 -0.21896826526E+01 -0.28013623170E+02  0.59301920840E+02  0.49999957712E+02 0.  0.
        -12    1    1    2    0    0  0.15071969047E+02  0.21896826526E+01  0.28013623170E+02  0.31886079160E+02  0.00000000000E+00 0.  1.
         11    1    3    3    0    0 -0.11196442912E+02  0.65862009365E+01 -0.31337886878E+02  0.33923465785E+02  0.51100000000E-03 0. -1.
        -11    1    3    3    0    0  0.96969438356E+01 -0.38960057148E+01  0.32878137656E+01  0.10955332031E+02  0.51100000000E-03 0.  1.
        -12    1    3    3    0    0 -0.13572469971E+02 -0.48798778743E+01  0.36449942563E-01  0.14423123025E+02  0.00000000000E+00 0.  1.
</event>
<event>
 7    1  0.6065977E-013  0.5930194E+02  0.7816164E-02  0.1266605E+00
        -11   -1    0    0    0    0  0.00000000000E+00  0.00000000000E+00  0.45593999997E+02  0.45594000000E+02  0.51100000000E-03 0.  1.
         11   -1    0    0    0    0 -0.00000000000E+00 -0.00000000000E+00 -0.45593999997E+02  0.45594000000E+02  0.51100000000E-03 0. -1.
    9900012    2    1    2    0    0 -0.31642564205E+02  0.38560980422E+01 -0.77420070481E+00  0.59301941160E+02  0.49999994771E+02 0.  0.
        -12    1    1    2    0    0  0.31642564205E+02 -0.38560980422E+01  0.77420070481E+00  0.31886058840E+02  0.00000000000E+00 0.  1.
         11    1    3    3    0    0  0.31144815751E+01  0.40743838507E+01 -0.82399970457E+01  0.97055731835E+01  0.51100000000E-03 0. -1.
        -11    1    3    3    0    0 -0.32192804248E+02  0.93508143045E+01  0.15412154570E+02  0.36896461650E+02  0.51100000000E-03 0.  1.
        -12    1    3    3    0    0 -0.25642415325E+01 -0.95691001130E+01 -0.79463582295E+01  0.12699906327E+02  0.00000000000E+00 0.  1.
</event>
<event>
 7    1  0.6065977E-013  0.5930195E+02  0.7816164E-02  0.1266605E+00
        -11   -1    0    0    0    0  0.00000000000E+00  0.00000000000E+00  0.45593999997E+02  0.45594000000E+02  0.51100000000E-03 0. -1.
         11   -1    0    0    0    0 -0.00000000000E+00 -0.00000000000E+00 -0.45593999997E+02  0.45594000000E+02  0.51100000000E-03 0.  1.
    9900012    2    1    2    0    0 -0.11925089160E+02 -0.27628399657E+02 -0.10544393847E+02  0.59301945671E+02  0.50000002997E+02 0.  0.
        -12    1    1    2    0    0  0.11925089160E+02  0.27628399657E+02  0.10544393847E+02  0.31886054329E+02  0.00000000000E+00 0.  1.
         11    1    3    3    0    0 -0.32365113429E+01  0.84820758940E+01  0.70923804100E+01  0.11520524176E+02  0.51100000000E-03 0. -1.
        -11    1    3    3    0    0 -0.13440470586E+02 -0.25068308413E+02 -0.20932936366E+02  0.35316485689E+02  0.51100000000E-03 0.  1.
         12    1    3    3    0    0  0.47518927694E+01 -0.11042167138E+02  0.32961621089E+01  0.12464935806E+02  0.00000000000E+00 0. -1.
</event>
<event>
 7    1  0.6065977E-013  0.5930194E+02  0.7816164E-02  0.1266605E+00
        -11   -1    0    0    0    0  0.00000000000E+00  0.00000000000E+00  0.45593999997E+02  0.45594000000E+02  0.51100000000E-03 0.  1.
         11   -1    0    0    0    0 -0.00000000000E+00 -0.00000000000E+00 -0.45593999997E+02  0.45594000000E+02  0.51100000000E-03 0. -1.
    9900012    2    1    2    0    0 -0.16713894545E+02  0.17435179797E+02  0.20817808246E+02  0.59301938695E+02  0.49999990274E+02 0.  0.
        -12    1    1    2    0    0  0.16713894545E+02 -0.17435179797E+02 -0.20817808246E+02  0.31886061305E+02  0.00000000000E+00 0.  1.
         11    1    3    3    0    0  0.11079919391E+02  0.17895399844E+02  0.17700696961E+02  0.27501356739E+02  0.51100000000E-03 0.  1.
        -11    1    3    3    0    0 -0.29713539175E+02 -0.45630801567E+00  0.27296767159E+01  0.29842147418E+02  0.51100000000E-03 0. -1.
         12    1    3    3    0    0  0.19197252385E+01 -0.39120322275E-02  0.38743456861E+00  0.19584345381E+01  0.00000000000E+00 0. -1.
</event>
<event>
 7    1  0.6065977E-013  0.5930193E+02  0.7816164E-02  0.1266605E+00
        -11   -1    0    0    0    0  0.00000000000E+00  0.00000000000E+00  0.45593999997E+02  0.45594000000E+02  0.51100000000E-03 0.  1.
         11   -1    0    0    0    0 -0.00000000000E+00 -0.00000000000E+00 -0.45593999997E+02  0.45594000000E+02  0.51100000000E-03 0. -1.
    9900012    2    1    2    0    0  0.18500300230E+02 -0.21443291460E+02 -0.14650795688E+02  0.59301926684E+02  0.49999968369E+02 0.  0.
        -12    1    1    2    0    0 -0.18500300230E+02  0.21443291460E+02  0.14650795688E+02  0.31886073316E+02  0.00000000000E+00 0.  1.
         11    1    3    3    0    0  0.64199587320E+01 -0.10342241306E+02  0.14906863529E+02  0.19245581464E+02  0.51100000000E-03 0.  1.
        -11    1    3    3    0    0  0.42349922505E+01 -0.91076985658E+01 -0.30306109181E+02  0.31927191960E+02  0.51100000000E-03 0. -1.
         12    1    3    3    0    0  0.78453492471E+01 -0.19933515886E+01  0.74844996412E+00  0.81291532594E+01  0.00000000000E+00 0. -1.
</event>
<event>
 7    1  0.6065977E-013  0.5930193E+02  0.7816164E-02  0.1266605E+00
        -11   -1    0    0    0    0  0.00000000000E+00  0.00000000000E+00  0.45593999997E+02  0.45594000000E+02  0.51100000000E-03 0. -1.
         11   -1    0    0    0    0 -0.00000000000E+00 -0.00000000000E+00 -0.45593999997E+02  0.45594000000E+02  0.51100000000E-03 0.  1.
    9900012    2    1    2    0    0 -0.29683588928E+02  0.12239349347E+01  0.11580490389E+02  0.59301933670E+02  0.49999981110E+02 0.  0.
        -12    1    1    2    0    0  0.29683588928E+02 -0.12239349347E+01 -0.11580490389E+02  0.31886066330E+02  0.00000000000E+00 0.  1.
         11    1    3    3    0    0 -0.32837506441E+02  0.78686267143E+01 -0.30764178573E+01  0.33906953014E+02  0.51100000000E-03 0. -1.
        -11    1    3    3    0    0  0.75803886392E+00  0.64756463878E+01  0.84802064824E+01  0.10696846325E+02  0.51100000000E-03 0.  1.
         12    1    3    3    0    0  0.23958786487E+01 -0.13120338167E+02  0.61767017638E+01  0.14698134331E+02  0.00000000000E+00 0. -1.
</event>
<event>
 7    1  0.6065977E-013  0.5930200E+02  0.7816164E-02  0.1266605E+00
        -11   -1    0    0    0    0  0.00000000000E+00  0.00000000000E+00  0.45593999997E+02  0.45594000000E+02  0.51100000000E-03 0.  1.
         11   -1    0    0    0    0 -0.00000000000E+00 -0.00000000000E+00 -0.45593999997E+02  0.45594000000E+02  0.51100000000E-03 0. -1.
    9900012    2    1    2    0    0 -0.24681373234E+02 -0.20171771488E+02 -0.80384389691E+00  0.59302004411E+02  0.50000110124E+02 0.  0.
        -12    1    1    2    0    0  0.24681373234E+02  0.20171771488E+02  0.80384389691E+00  0.31885995589E+02  0.00000000000E+00 0.  1.
         11    1    3    3    0    0 -0.24278895328E+01  0.36757201449E+00 -0.47688838850E+01  0.53639547480E+01  0.51100000000E-03 0.  1.
        -11    1    3    3    0    0 -0.34849911322E+02 -0.13055320974E+02  0.92752766808E+01  0.38353467674E+02  0.51100000000E-03 0. -1.
        -12    1    3    3    0    0  0.12596427621E+02 -0.74840225291E+01 -0.53102366928E+01  0.15584581988E+02  0.00000000000E+00 0.  1.
</event>
<event>
 7    1  0.6065977E-013  0.5930194E+02  0.7816164E-02  0.1266605E+00
        -11   -1    0    0    0    0  0.00000000000E+00  0.00000000000E+00  0.45593999997E+02  0.45594000000E+02  0.51100000000E-03 0.  1.
         11   -1    0    0    0    0 -0.00000000000E+00 -0.00000000000E+00 -0.45593999997E+02  0.45594000000E+02  0.51100000000E-03 0. -1.
    9900012    2    1    2    0    0 -0.13153708920E+02 -0.70315521059E+01 -0.28182581066E+02  0.59301942562E+02  0.49999997327E+02 0.  0.
        -12    1    1    2    0    0  0.13153708920E+02  0.70315521059E+01  0.28182581066E+02  0.31886057438E+02  0.00000000000E+00 0.  1.
         11    1    3    3    0    0 -0.20425551938E+02 -0.89739761218E+00 -0.56702214352E+01  0.21216972117E+02  0.51100000000E-03 0. -1.
        -11    1    3    3    0    0  0.10909877889E+02 -0.86981736991E+01  0.11569872075E+01  0.14000795724E+02  0.51100000000E-03 0.  1.
         12    1    3    3    0    0 -0.36380348711E+01  0.25640192053E+01 -0.23669346839E+02  0.24084174721E+02  0.00000000000E+00 0. -1.
</event>
<event>
 7    1  0.6065977E-013  0.5930206E+02  0.7816164E-02  0.1266604E+00
        -11   -1    0    0    0    0  0.00000000000E+00  0.00000000000E+00  0.45593999997E+02  0.45594000000E+02  0.51100000000E-03 0.  1.
         11   -1    0    0    0    0 -0.00000000000E+00 -0.00000000000E+00 -0.45593999997E+02  0.45594000000E+02  0.51100000000E-03 0. -1.
    9900012    2    1    2    0    0 -0.15306926212E+01 -0.29576927612E+02 -0.11814217350E+02  0.59302056413E+02  0.50000204963E+02 0.  0.
        -12    1    1    2    0    0  0.15306926212E+01  0.29576927612E+02  0.11814217350E+02  0.31885943587E+02  0.00000000000E+00 0.  1.
         11    1    3    3    0    0  0.86890383072E+01 -0.14741313300E+02  0.34474626636E+01  0.17455391820E+02  0.51100000000E-03 0. -1.
        -11    1    3    3    0    0 -0.22153879148E+02 -0.10088635028E+02 -0.38101382857E+01  0.24639238464E+02  0.51100000000E-03 0.  1.
        -12    1    3    3    0    0  0.11934148220E+02 -0.47469792836E+01 -0.11451541728E+02  0.17207426129E+02  0.00000000000E+00 0.  1.
</event>
<event>
 7    1  0.6065977E-013  0.5930186E+02  0.7816164E-02  0.1266605E+00
        -11   -1    0    0    0    0  0.00000000000E+00  0.00000000000E+00  0.45593999997E+02  0.45594000000E+02  0.51100000000E-03 0. -1.
         11   -1    0    0    0    0 -0.00000000000E+00 -0.00000000000E+00 -0.45593999997E+02  0.45594000000E+02  0.51100000000E-03 0.  1.
    9900012    2    1    2    0    0  0.14313951648E+02  0.20935076198E+02  0.19327681089E+02  0.59301860637E+02  0.49999847915E+02 0.  0.
        -12    1    1    2    0    0 -0.14313951648E+02 -0.20935076198E+02 -0.19327681089E+02  0.31886139363E+02  0.00000000000E+00 0.  1.
         11    1    3    3    0    0  0.17930340412E+02 -0.31740155023E+01 -0.56066601124E+01  0.19052719480E+02  0.51100000000E-03 0.  1.
        -11    1    3    3    0    0  0.32238530983E+00  0.23427306858E+02  0.11245382564E+02  0.25988483376E+02  0.51100000000E-03 0. -1.
         12    1    3    3    0    0 -0.39387740739E+01  0.68178484249E+00  0.13688958637E+02  0.14260657781E+02  0.00000000000E+00 0. -1.
</event>
<event>
 7    1  0.6065977E-013  0.5930192E+02  0.7816164E-02  0.1266605E+00
        -11   -1    0    0    0    0  0.00000000000E+00  0.00000000000E+00  0.45593999997E+02  0.45594000000E+02  0.51100000000E-03 0. -1.
         11   -1    0    0    0    0 -0.00000000000E+00 -0.00000000000E+00 -0.45593999997E+02  0.45594000000E+02  0.51100000000E-03 0.  1.
    9900012    2    1    2    0    0  0.49263558634E+01 -0.29340174332E+02  0.11472030357E+02  0.59301916948E+02  0.49999950612E+02 0.  0.
        -12    1    1    2    0    0 -0.49263558634E+01  0.29340174332E+02 -0.11472030357E+02  0.31886083052E+02  0.00000000000E+00 0.  1.
         11    1    3    3    0    0  0.22314261466E+00 -0.17891423519E+02 -0.10261751692E+02  0.20626593907E+02  0.51100000000E-03 0.  1.
        -11    1    3    3    0    0 -0.50838621863E+01  0.33812414792E+00  0.22757294732E+02  0.23320687092E+02  0.51100000000E-03 0. -1.
         12    1    3    3    0    0  0.97870754350E+01 -0.11786874961E+02 -0.10235126819E+01  0.15354635949E+02  0.00000000000E+00 0. -1.
</event>
<event>
 7    1  0.6065977E-013  0.5930194E+02  0.7816164E-02  0.1266605E+00
        -11   -1    0    0    0    0  0.00000000000E+00  0.00000000000E+00  0.45593999997E+02  0.45594000000E+02  0.51100000000E-03 0.  1.
         11   -1    0    0    0    0 -0.00000000000E+00 -0.00000000000E+00 -0.45593999997E+02  0.45594000000E+02  0.51100000000E-03 0. -1.
    9900012    2    1    2    0    0  0.19888075832E+01 -0.57972558568E+01 -0.31291484282E+02  0.59301944746E+02  0.50000001310E+02 0.  0.
        -12    1    1    2    0    0 -0.19888075832E+01  0.57972558568E+01  0.31291484282E+02  0.31886055254E+02  0.00000000000E+00 0.  1.
         11    1    3    3    0    0 -0.12042782879E+02 -0.12409762024E+02 -0.31768849787E+02  0.36170300386E+02  0.51100000000E-03 0. -1.
        -11    1    3    3    0    0  0.52356432252E+01 -0.57028783133E+01  0.17733850408E+01  0.79422714511E+01  0.51100000000E-03 0.  1.
         12    1    3    3    0    0  0.87959472373E+01  0.12315384481E+02 -0.12960195363E+01  0.15189372909E+02  0.00000000000E+00 0. -1.
</event>
<event>
 7    1  0.6065977E-013  0.5930196E+02  0.7816164E-02  0.1266605E+00
        -11   -1    0    0    0    0  0.00000000000E+00  0.00000000000E+00  0.45593999997E+02  0.45594000000E+02  0.51100000000E-03 0. -1.
         11   -1    0    0    0    0 -0.00000000000E+00 -0.00000000000E+00 -0.45593999997E+02  0.45594000000E+02  0.51100000000E-03 0.  1.
    9900012    2    1    2    0    0  0.41986880602E+01  0.19051946276E+02  0.25221304069E+02  0.59301955760E+02  0.50000021397E+02 0.  0.
        -12    1    1    2    0    0 -0.41986880602E+01 -0.19051946276E+02 -0.25221304069E+02  0.31886044240E+02  0.00000000000E+00 0.  1.
         11    1    3    3    0    0 -0.11483839613E+00  0.19573786556E+02 -0.10335501742E+02  0.22135241234E+02  0.51100000000E-03 0.  1.
        -11    1    3    3    0    0  0.55811545818E+01 -0.38598799436E+01  0.27974023193E+02  0.28785307598E+02  0.51100000000E-03 0. -1.
        -12    1    3    3    0    0 -0.12676281254E+01  0.33380396643E+01  0.75827826177E+01  0.83814069279E+01  0.00000000000E+00 0.  1.
</event>
<event>
 7    1  0.6065977E-013  0.5930197E+02  0.7816164E-02  0.1266605E+00
        -11   -1    0    0    0    0  0.00000000000E+00  0.00000000000E+00  0.45593999997E+02  0.45594000000E+02  0.51100000000E-03 0.  1.
         11   -1    0    0    0    0 -0.00000000000E+00 -0.00000000000E+00 -0.45593999997E+02  0.45594000000E+02  0.51100000000E-03 0. -1.
    9900012    2    1    2    0    0  0.24287807817E+02 -0.62355335565E+01 -0.19696171880E+02  0.59301973687E+02  0.50000054092E+02 0.  0.
        -12    1    1    2    0    0 -0.24287807817E+02  0.62355335565E+01  0.19696171880E+02  0.31886026313E+02  0.00000000000E+00 0.  1.
         11    1    3    3    0    0  0.23878721997E+02 -0.26563343661E+01  0.39559183514E+01  0.24349512659E+02  0.51100000000E-03 0. -1.
        -11    1    3    3    0    0 -0.94323467181E+01 -0.99310892685E+01 -0.15484173395E+02  0.20672574214E+02  0.51100000000E-03 0.  1.
         12    1    3    3    0    0  0.98414325384E+01  0.63518900780E+01 -0.81679168367E+01  0.14279886814E+02  0.00000000000E+00 0. -1.
</event>
<event>
 7    1  0.6065977E-013  0.5930192E+02  0.7816164E-02  0.1266605E+00
        -11   -1    0    0    0    0  0.00000000000E+00  0.00000000000E+00  0.45593999997E+02  0.45594000000E+02  0.51100000000E-03 0.  1.
         11   -1    0    0    0    0 -0.00000000000E+00 -0.00000000000E+00 -0.45593999997E+02  0.45594000000E+02  0.51100000000E-03 0. -1.
    9900012    2    1    2    0    0  0.28187934790E+02 -0.35976855958E+01 -0.14464405775E+02  0.59301920846E+02  0.49999957722E+02 0.  0.
        -12    1    1    2    0    0 -0.28187934790E+02  0.35976855958E+01  0.14464405775E+02  0.31886079154E+02  0.00000000000E+00 0.  1.
         11    1    3    3    0    0  0.68510204066E+01 -0.14879665896E+02 -0.26601506136E+02  0.31240695683E+02  0.51100000000E-03 0. -1.
        -11    1    3    3    0    0  0.10385330055E+02  0.13626774886E+01  0.41672293592E+01  0.11272877675E+02  0.51100000000E-03 0.  1.
         12    1    3    3    0    0  0.10951584329E+02  0.99193028117E+01  0.79698710024E+01  0.16788347488E+02  0.00000000000E+00 0. -1.
</event>
<event>
 7    1  0.6065977E-013  0.5930205E+02  0.7816164E-02  0.1266604E+00
        -11   -1    0    0    0    0  0.00000000000E+00  0.00000000000E+00  0.45593999997E+02  0.45594000000E+02  0.51100000000E-03 0.  1.
         11   -1    0    0    0    0 -0.00000000000E+00 -0.00000000000E+00 -0.45593999997E+02  0.45594000000E+02  0.51100000000E-03 0. -1.
    9900012    2    1    2    0    0  0.48695809639E+01 -0.93028659293E+01 -0.30107438456E+02  0.59302047237E+02  0.50000188228E+02 0.  0.
        -12    1    1    2    0    0 -0.48695809639E+01  0.93028659293E+01  0.30107438456E+02  0.31885952763E+02  0.00000000000E+00 0.  1.
         11    1    3    3    0    0  0.24922644460E+01 -0.19506368901E+02 -0.37914884008E+01  0.20027111482E+02  0.51100000000E-03 0. -1.
        -11    1    3    3    0    0  0.65862586130E+00  0.38450930144E+01 -0.30966974387E+02  0.31211729066E+02  0.51100000000E-03 0.  1.
        -12    1    3    3    0    0  0.17186906565E+01  0.63584099573E+01  0.46510243327E+01  0.80632066885E+01  0.00000000000E+00 0.  1.
</event>
<event>
 7    1  0.6065977E-013  0.5930194E+02  0.7816164E-02  0.1266605E+00
        -11   -1    0    0    0    0  0.00000000000E+00  0.00000000000E+00  0.45593999997E+02  0.45594000000E+02  0.51100000000E-03 0. -1.
         11   -1    0    0    0    0 -0.00000000000E+00 -0.00000000000E+00 -0.45593999997E+02  0.45594000000E+02  0.51100000000E-03 0.  1.
    9900012    2    1    2    0    0 -0.24604345401E+02  0.12669414347E+02  0.15837712805E+02  0.59301936910E+02  0.49999987018E+02 0.  0.
        -12    1    1    2    0    0  0.24604345401E+02 -0.12669414347E+02 -0.15837712805E+02  0.31886063090E+02  0.00000000000E+00 0.  1.
         11    1    3    3    0    0 -0.14716523785E+02 -0.22473105074E+01 -0.83928740295E+01  0.17089962305E+02  0.51100000000E-03 0. -1.
        -11    1    3    3    0    0  0.32022676706E+01  0.62129669164E+00  0.22518212560E+02  0.22753250866E+02  0.51100000000E-03 0.  1.
        -12    1    3    3    0    0 -0.13090089287E+02  0.14295428163E+02  0.17123742739E+01  0.19458723739E+02  0.00000000000E+00 0.  1.
</event>
<event>
 7    1  0.6065977E-013  0.5930195E+02  0.7816164E-02  0.1266605E+00
        -11   -1    0    0    0    0  0.00000000000E+00  0.00000000000E+00  0.45593999997E+02  0.45594000000E+02  0.51100000000E-03 0.  1.
         11   -1    0    0    0    0 -0.00000000000E+00 -0.00000000000E+00 -0.45593999997E+02  0.45594000000E+02  0.51100000000E-03 0. -1.
    9900012    2    1    2    0    0  0.64020281973E+01  0.17020198847E+02 -0.26192504537E+02  0.59301946187E+02  0.50000003938E+02 0.  0.
        -12    1    1    2    0    0 -0.64020281973E+01 -0.17020198847E+02  0.26192504537E+02  0.31886053813E+02  0.00000000000E+00 0.  1.
         11    1    3    3    0    0 -0.80617655230E+01 -0.59250542856E+01 -0.12233901162E+02  0.15804008021E+02  0.51100000000E-03 0. -1.
        -11    1    3    3    0    0  0.28197746532E+01  0.25423039510E+02 -0.17599673702E+02  0.31048841874E+02  0.51100000000E-03 0.  1.
        -12    1    3    3    0    0  0.11644019067E+02 -0.24777863777E+01  0.36410703258E+01  0.12449096292E+02  0.00000000000E+00 0.  1.
</event>
<event>
 7    1  0.6065977E-013  0.5930191E+02  0.7816164E-02  0.1266605E+00
        -11   -1    0    0    0    0  0.00000000000E+00  0.00000000000E+00  0.45593999997E+02  0.45594000000E+02  0.51100000000E-03 0.  1.
         11   -1    0    0    0    0 -0.00000000000E+00 -0.00000000000E+00 -0.45593999997E+02  0.45594000000E+02  0.51100000000E-03 0. -1.
    9900012    2    1    2    0    0 -0.86416091700E+01 -0.28982296851E+02  0.10103062448E+02  0.59301908822E+02  0.49999935793E+02 0.  0.
        -12    1    1    2    0    0  0.86416091700E+01  0.28982296851E+02 -0.10103062448E+02  0.31886091178E+02  0.00000000000E+00 0.  1.
         11    1    3    3    0    0 -0.51347539209E+01 -0.19718191492E+02 -0.19084486483E+02  0.27917564330E+02  0.51100000000E-03 0. -1.
        -11    1    3    3    0    0 -0.42743592745E+01 -0.57420522450E+01  0.13417764079E+02  0.15207817212E+02  0.51100000000E-03 0.  1.
         12    1    3    3    0    0  0.76750402538E+00 -0.35220531133E+01  0.15769784852E+02  0.16176527280E+02  0.00000000000E+00 0. -1.
</event>
<event>
 7    1  0.6065977E-013  0.5930196E+02  0.7816164E-02  0.1266605E+00
        -11   -1    0    0    0    0  0.00000000000E+00  0.00000000000E+00  0.45593999997E+02  0.45594000000E+02  0.51100000000E-03 0.  1.
         11   -1    0    0    0    0 -0.00000000000E+00 -0.00000000000E+00 -0.45593999997E+02  0.45594000000E+02  0.51100000000E-03 0. -1.
    9900012    2    1    2    0    0 -0.30057349515E+02  0.38824917292E+01 -0.99096755257E+01  0.59301958055E+02  0.50000025583E+02 0.  0.
        -12    1    1    2    0    0  0.30057349515E+02 -0.38824917292E+01  0.99096755257E+01  0.31886041945E+02  0.00000000000E+00 0.  1.
         11    1    3    3    0    0  0.60619333366E+01 -0.17680661407E+01 -0.17326548139E+01  0.65479146773E+01  0.51100000000E-03 0. -1.
        -11    1    3    3    0    0 -0.33131184287E+02 -0.11041569479E+02 -0.78468336492E+01  0.35793357309E+02  0.51100000000E-03 0.  1.
        -12    1    3    3    0    0 -0.29880985641E+01  0.16692127349E+02 -0.33018706247E+00  0.16960686069E+02  0.00000000000E+00 0.  1.
</event>
<event>
 7    1  0.6065977E-013  0.5930189E+02  0.7816164E-02  0.1266605E+00
        -11   -1    0    0    0    0  0.00000000000E+00  0.00000000000E+00  0.45593999997E+02  0.45594000000E+02  0.51100000000E-03 0. -1.
         11   -1    0    0    0    0 -0.00000000000E+00 -0.00000000000E+00 -0.45593999997E+02  0.45594000000E+02  0.51100000000E-03 0.  1.
    9900012    2    1    2    0    0 -0.69870727407E+01  0.27510635764E+02  0.14528240889E+02  0.59301889404E+02  0.49999900380E+02 0.  0.
        -12    1    1    2    0    0  0.69870727407E+01 -0.27510635764E+02 -0.14528240889E+02  0.31886110596E+02  0.00000000000E+00 0.  1.
         11    1    3    3    0    0  0.14284367494E+02  0.37464174729E+00  0.13282221661E+02  0.19508995967E+02  0.51100000000E-03 0. -1.
        -11    1    3    3    0    0 -0.12097006945E+02  0.27809657666E+02 -0.92556743708E+00  0.30340918112E+02  0.51100000000E-03 0.  1.
         12    1    3    3    0    0 -0.91744332901E+01 -0.67366364965E+00  0.21715866650E+01  0.94519753254E+01  0.00000000000E+00 0. -1.
</event>
<event>
 7    1  0.6065977E-013  0.5930196E+02  0.7816164E-02  0.1266605E+00
        -11   -1    0    0    0    0  0.00000000000E+00  0.00000000000E+00  0.45593999997E+02  0.45594000000E+02  0.51100000000E-03 0. -1.
         11   -1    0    0    0    0 -0.00000000000E+00 -0.00000000000E+00 -0.45593999997E+02  0.45594000000E+02  0.51100000000E-03 0.  1.
    9900012    2    1    2    0    0  0.14290309956E+02  0.21136141722E+02 -0.19125122213E+02  0.59301956890E+02  0.50000023458E+02 0.  0.
        -12    1    1    2    0    0 -0.14290309956E+02 -0.21136141722E+02  0.19125122213E+02  0.31886043110E+02  0.00000000000E+00 0.  1.
         11    1    3    3    0    0  0.10417541234E+02  0.20560523127E+02 -0.18893838916E+02  0.29803312330E+02  0.51100000000E-03 0. -1.
        -11    1    3    3    0    0 -0.24502622428E+01 -0.61509153802E+01  0.12279310642E+02  0.13950591929E+02  0.51100000000E-03 0.  1.
        -12    1    3    3    0    0  0.63230309654E+01  0.67265339747E+01 -0.12510593939E+02  0.15548052631E+02  0.00000000000E+00 0.  1.
</event>
<event>
 7    1  0.6065977E-013  0.5930195E+02  0.7816164E-02  0.1266605E+00
        -11   -1    0    0    0    0  0.00000000000E+00  0.00000000000E+00  0.45593999997E+02  0.45594000000E+02  0.51100000000E-03 0.  1.
         11   -1    0    0    0    0 -0.00000000000E+00 -0.00000000000E+00 -0.45593999997E+02  0.45594000000E+02  0.51100000000E-03 0. -1.
    9900012    2    1    2    0    0  0.17041504657E+02  0.19615927827E+02 -0.18480339873E+02  0.59301945567E+02  0.50000002808E+02 0.  0.
        -12    1    1    2    0    0 -0.17041504657E+02 -0.19615927827E+02  0.18480339873E+02  0.31886054433E+02  0.00000000000E+00 0.  1.
         11    1    3    3    0    0  0.21641991201E+02 -0.15294490761E+01  0.21699147235E+01  0.21804208946E+02  0.51100000000E-03 0. -1.
        -11    1    3    3    0    0 -0.13714011257E+02  0.11053663303E+02 -0.10257554936E+02  0.20383204132E+02  0.51100000000E-03 0.  1.
         12    1    3    3    0    0  0.91135247126E+01  0.10091713600E+02 -0.10392699661E+02  0.17114532489E+02  0.00000000000E+00 0. -1.
</event>
<event>
 7    1  0.6065977E-013  0.5930192E+02  0.7816164E-02  0.1266605E+00
        -11   -1    0    0    0    0  0.00000000000E+00  0.00000000000E+00  0.45593999997E+02  0.45594000000E+02  0.51100000000E-03 0.  1.
         11   -1    0    0    0    0 -0.00000000000E+00 -0.00000000000E+00 -0.45593999997E+02  0.45594000000E+02  0.51100000000E-03 0. -1.
    9900012    2    1    2    0    0 -0.10552181211E+02 -0.38288141145E+00 -0.30086992920E+02  0.59301917308E+02  0.49999951269E+02 0.  0.
        -12    1    1    2    0    0  0.10552181211E+02  0.38288141145E+00  0.30086992920E+02  0.31886082692E+02  0.00000000000E+00 0.  1.
         11    1    3    3    0    0 -0.11203672343E+02 -0.67597905196E+01  0.51330066741E+01  0.14055774601E+02  0.51100000000E-03 0. -1.
        -11    1    3    3    0    0  0.53504922343E+01  0.14363360385E+02 -0.98069631525E+01  0.18196439631E+02  0.51100000000E-03 0.  1.
        -12    1    3    3    0    0 -0.46990011022E+01 -0.79864512770E+01 -0.25413036441E+02  0.27049703077E+02  0.00000000000E+00 0.  1.
</event>
<event>
 7    1  0.6065977E-013  0.5930198E+02  0.7816164E-02  0.1266605E+00
        -11   -1    0    0    0    0  0.00000000000E+00  0.00000000000E+00  0.45593999997E+02  0.45594000000E+02  0.51100000000E-03 0.  1.
         11   -1    0    0    0    0 -0.00000000000E+00 -0.00000000000E+00 -0.45593999997E+02  0.45594000000E+02  0.51100000000E-03 0. -1.
    9900012    2    1    2    0    0  0.41410788728E+01  0.14600305675E+02 -0.28042842149E+02  0.59301977109E+02  0.50000060332E+02 0.  0.
        -12    1    1    2    0    0 -0.41410788728E+01 -0.14600305675E+02  0.28042842149E+02  0.31886022891E+02  0.00000000000E+00 0.  1.
         11    1    3    3    0    0  0.25726416396E+02  0.11000023234E+02 -0.22251203356E+02  0.35748637216E+02  0.51100000000E-03 0. -1.
        -11    1    3    3    0    0 -0.18183057573E+02  0.30764874546E+01 -0.72491789026E+01  0.19815119297E+02  0.51100000000E-03 0.  1.
         12    1    3    3    0    0 -0.34022799505E+01  0.52379498656E+00  0.14575401102E+01  0.37382205958E+01  0.00000000000E+00 0. -1.
</event>
<event>
 7    1  0.6065977E-013  0.5930193E+02  0.7816164E-02  0.1266605E+00
        -11   -1    0    0    0    0  0.00000000000E+00  0.00000000000E+00  0.45593999997E+02  0.45594000000E+02  0.51100000000E-03 0.  1.
         11   -1    0    0    0    0 -0.00000000000E+00 -0.00000000000E+00 -0.45593999997E+02  0.45594000000E+02  0.51100000000E-03 0. -1.
    9900012    2    1    2    0    0 -0.13274556565E+01  0.11977330199E+02 -0.29521226862E+02  0.59301930743E+02  0.49999975772E+02 0.  0.
        -12    1    1    2    0    0  0.13274556565E+01 -0.11977330199E+02  0.29521226862E+02  0.31886069257E+02  0.00000000000E+00 0.  1.
         11    1    3    3    0    0  0.11644101863E+02  0.17649017790E+02 -0.19737741187E+02  0.28924926354E+02  0.51100000000E-03 0. -1.
        -11    1    3    3    0    0 -0.18710343391E+02 -0.94886637739E+01 -0.10477835894E+02  0.23449877085E+02  0.51100000000E-03 0.  1.
        -12    1    3    3    0    0  0.57387858719E+01  0.38169761825E+01  0.69435021822E+00  0.69271273041E+01  0.00000000000E+00 0.  1.
</event>
<event>
 7    1  0.6065977E-013  0.5930194E+02  0.7816164E-02  0.1266605E+00
        -11   -1    0    0    0    0  0.00000000000E+00  0.00000000000E+00  0.45593999997E+02  0.45594000000E+02  0.51100000000E-03 0.  1.
         11   -1    0    0    0    0 -0.00000000000E+00 -0.00000000000E+00 -0.45593999997E+02  0.45594000000E+02  0.51100000000E-03 0. -1.
    9900012    2    1    2    0    0  0.23887482217E+01  0.18265846458E+02 -0.26026399324E+02  0.59301941500E+02  0.49999995390E+02 0.  0.
        -12    1    1    2    0    0 -0.23887482217E+01 -0.18265846458E+02  0.26026399324E+02  0.31886058500E+02  0.00000000000E+00 0.  1.
         11    1    3    3    0    0  0.26690536172E+01  0.25846891604E+02 -0.29767088052E+02  0.39512848343E+02  0.51100000000E-03 0. -1.
        -11    1    3    3    0    0  0.37541978525E+01  0.49380460712E+01  0.20210352984E+01  0.65240236401E+01  0.51100000000E-03 0.  1.
         12    1    3    3    0    0 -0.40345032481E+01 -0.12519091217E+02  0.17196534297E+01  0.13265069517E+02  0.00000000000E+00 0. -1.
</event>
<event>
 7    1  0.6065977E-013  0.5930195E+02  0.7816164E-02  0.1266605E+00
        -11   -1    0    0    0    0  0.00000000000E+00  0.00000000000E+00  0.45593999997E+02  0.45594000000E+02  0.51100000000E-03 0.  1.
         11   -1    0    0    0    0 -0.00000000000E+00 -0.00000000000E+00 -0.45593999997E+02  0.45594000000E+02  0.51100000000E-03 0. -1.
    9900012    2    1    2    0    0  0.10683053198E+02  0.47865237177E+01 -0.29659430915E+02  0.59301948549E+02  0.50000008246E+02 0.  0.
        -12    1    1    2    0    0 -0.10683053198E+02 -0.47865237177E+01  0.29659430915E+02  0.31886051451E+02  0.00000000000E+00 0.  1.
         11    1    3    3    0    0  0.11752049395E+02  0.19200624867E+02 -0.26126163857E+02  0.34486969980E+02  0.51100000000E-03 0. -1.
        -11    1    3    3    0    0 -0.85529792958E+01 -0.11709751736E+02 -0.70395432352E+01  0.16119147303E+02  0.51100000000E-03 0.  1.
         12    1    3    3    0    0  0.74839830990E+01 -0.27043494128E+01  0.35062761778E+01  0.86958312660E+01  0.00000000000E+00 0. -1.
</event>
<event>
 7    1  0.6392478E-013  0.5930222E+02  0.7816164E-02  0.1266604E+00
        -11   -1    0    0    0    0  0.00000000000E+00  0.00000000000E+00  0.45593999997E+02  0.45594000000E+02  0.51100000000E-03 0. -1.
         11   -1    0    0    0    0 -0.00000000000E+00 -0.00000000000E+00 -0.45593999997E+02  0.45594000000E+02  0.51100000000E-03 0.  1.
    9900012    2    1    2    0    0 -0.30249685248E+02 -0.10014476080E+02  0.11702944956E+01  0.59302222952E+02  0.50000508689E+02 0.  0.
        -12    1    1    2    0    0  0.30249685248E+02  0.10014476080E+02 -0.11702944956E+01  0.31885777048E+02  0.00000000000E+00 0.  1.
         11    1    3    3    0    0 -0.21080873792E+02  0.54869122986E+01 -0.11093589524E+02  0.24445391696E+02  0.51100000000E-03 0. -1.
        -11    1    3    3    0    0  0.51478975921E+01  0.11360090810E+01  0.11775967533E+02  0.12902122998E+02  0.51100000000E-03 0.  1.
         12    1    3    3    0    0 -0.14316709048E+02 -0.16637397460E+02  0.48791648642E+00  0.21954708258E+02  0.00000000000E+00 0. -1.
</event>
<event>
 7    1  0.6065977E-013  0.5930193E+02  0.7816164E-02  0.1266605E+00
        -11   -1    0    0    0    0  0.00000000000E+00  0.00000000000E+00  0.45593999997E+02  0.45594000000E+02  0.51100000000E-03 0. -1.
         11   -1    0    0    0    0 -0.00000000000E+00 -0.00000000000E+00 -0.45593999997E+02  0.45594000000E+02  0.51100000000E-03 0.  1.
    9900012    2    1    2    0    0 -0.25537415351E+02  0.16670767098E+02  0.93084653126E+01  0.59301928042E+02  0.49999970846E+02 0.  0.
        -12    1    1    2    0    0  0.25537415351E+02 -0.16670767098E+02 -0.93084653126E+01  0.31886071958E+02  0.00000000000E+00 0.  1.
         11    1    3    3    0    0  0.86601682137E+01 -0.70565609510E+01  0.10725105355E+02  0.15486169671E+02  0.51100000000E-03 0. -1.
        -11    1    3    3    0    0 -0.99543704481E+01  0.38066153390E+01 -0.57997112819E+01  0.12133279135E+02  0.51100000000E-03 0.  1.
         12    1    3    3    0    0 -0.24243213116E+02  0.19920712710E+02  0.43830712398E+01  0.31682479236E+02  0.00000000000E+00 0. -1.
</event>
<event>
 7    1  0.6065977E-013  0.5930195E+02  0.7816164E-02  0.1266605E+00
        -11   -1    0    0    0    0  0.00000000000E+00  0.00000000000E+00  0.45593999997E+02  0.45594000000E+02  0.51100000000E-03 0. -1.
         11   -1    0    0    0    0 -0.00000000000E+00 -0.00000000000E+00 -0.45593999997E+02  0.45594000000E+02  0.51100000000E-03 0.  1.
    9900012    2    1    2    0    0 -0.31377814295E+02 -0.37808825458E+01  0.42258855934E+01  0.59301946438E+02  0.50000004395E+02 0.  0.
        -12    1    1    2    0    0  0.31377814295E+02  0.37808825458E+01 -0.42258855934E+01  0.31886053562E+02  0.00000000000E+00 0.  1.
         11    1    3    3    0    0 -0.17358264843E+02  0.13906924431E+02  0.64117026622E+01  0.23147825746E+02  0.51100000000E-03 0. -1.
        -11    1    3    3    0    0 -0.90065181719E+01 -0.13275138671E+02  0.12292185205E+02  0.20210009740E+02  0.51100000000E-03 0.  1.
         12    1    3    3    0    0 -0.50130312802E+01 -0.44126683061E+01 -0.14478002274E+02  0.15944110952E+02  0.00000000000E+00 0. -1.
</event>
<event>
 7    1  0.6065977E-013  0.5930196E+02  0.7816164E-02  0.1266605E+00
        -11   -1    0    0    0    0  0.00000000000E+00  0.00000000000E+00  0.45593999997E+02  0.45594000000E+02  0.51100000000E-03 0. -1.
         11   -1    0    0    0    0 -0.00000000000E+00 -0.00000000000E+00 -0.45593999997E+02  0.45594000000E+02  0.51100000000E-03 0.  1.
    9900012    2    1    2    0    0  0.27414114886E+02  0.66419762797E+01  0.14868419689E+02  0.59301961552E+02  0.50000031959E+02 0.  0.
        -12    1    1    2    0    0 -0.27414114886E+02 -0.66419762797E+01 -0.14868419689E+02  0.31886038448E+02  0.00000000000E+00 0.  1.
         11    1    3    3    0    0 -0.90046722135E+01 -0.10776209585E+02  0.31680386594E+01  0.14396085714E+02  0.51100000000E-03 0.  1.
        -11    1    3    3    0    0  0.17741855804E+02  0.15110580620E+02  0.11537605459E+01  0.23333115045E+02  0.51100000000E-03 0. -1.
        -12    1    3    3    0    0  0.18676931296E+02  0.23076052443E+01  0.10546620483E+02  0.21572760793E+02  0.00000000000E+00 0.  1.
</event>
<event>
 7    1  0.6065977E-013  0.5930195E+02  0.7816164E-02  0.1266605E+00
        -11   -1    0    0    0    0  0.00000000000E+00  0.00000000000E+00  0.45593999997E+02  0.45594000000E+02  0.51100000000E-03 0.  1.
         11   -1    0    0    0    0 -0.00000000000E+00 -0.00000000000E+00 -0.45593999997E+02  0.45594000000E+02  0.51100000000E-03 0. -1.
    9900012    2    1    2    0    0 -0.98746299543E+01  0.20138082375E+01 -0.30251555722E+02  0.59301947187E+02  0.50000005763E+02 0.  0.
        -12    1    1    2    0    0  0.98746299543E+01 -0.20138082375E+01  0.30251555722E+02  0.31886052813E+02  0.00000000000E+00 0.  1.
         11    1    3    3    0    0 -0.17331169216E+02  0.15112354628E+02  0.15409568040E+01  0.23046197885E+02  0.51100000000E-03 0. -1.
        -11    1    3    3    0    0  0.27738934146E+01 -0.87149121964E+01 -0.10057539461E+02  0.13594053095E+02  0.51100000000E-03 0.  1.
         12    1    3    3    0    0  0.46826458474E+01 -0.43836341941E+01 -0.21734973065E+02  0.22661696208E+02  0.00000000000E+00 0. -1.
</event>
<event>
 7    1  0.6065977E-013  0.5930194E+02  0.7816164E-02  0.1266605E+00
        -11   -1    0    0    0    0  0.00000000000E+00  0.00000000000E+00  0.45593999997E+02  0.45594000000E+02  0.51100000000E-03 0. -1.
         11   -1    0    0    0    0 -0.00000000000E+00 -0.00000000000E+00 -0.45593999997E+02  0.45594000000E+02  0.51100000000E-03 0.  1.
    9900012    2    1    2    0    0 -0.17491095645E+02 -0.24254359101E+02  0.11068356004E+02  0.59301939301E+02  0.49999991380E+02 0.  0.
        -12    1    1    2    0    0  0.17491095645E+02  0.24254359101E+02 -0.11068356004E+02  0.31886060699E+02  0.00000000000E+00 0.  1.
         11    1    3    3    0    0  0.62763896292E+00 -0.16879378841E+02  0.23494584865E+02  0.28936186324E+02  0.51100000000E-03 0. -1.
        -11    1    3    3    0    0  0.59213752406E+00  0.49413705192E+01 -0.41673513745E+01  0.64911160208E+01  0.51100000000E-03 0.  1.
         12    1    3    3    0    0 -0.18710872132E+02 -0.12316350779E+02 -0.82588774870E+01  0.23874636956E+02  0.00000000000E+00 0. -1.
</event>
<event>
 7    1  0.6065977E-013  0.5930195E+02  0.7816164E-02  0.1266605E+00
        -11   -1    0    0    0    0  0.00000000000E+00  0.00000000000E+00  0.45593999997E+02  0.45594000000E+02  0.51100000000E-03 0.  1.
         11   -1    0    0    0    0 -0.00000000000E+00 -0.00000000000E+00 -0.45593999997E+02  0.45594000000E+02  0.51100000000E-03 0. -1.
    9900012    2    1    2    0    0  0.99941914607E+01 -0.14373049464E+02 -0.26650549532E+02  0.59301949693E+02  0.50000010331E+02 0.  0.
        -12    1    1    2    0    0 -0.99941914607E+01  0.14373049464E+02  0.26650549532E+02  0.31886050307E+02  0.00000000000E+00 0.  1.
         11    1    3    3    0    0  0.24836701480E+02 -0.79853942515E+01 -0.17530800293E+02  0.31431786792E+02  0.51100000000E-03 0. -1.
        -11    1    3    3    0    0 -0.52061848881E+01 -0.11618721245E+02  0.12316252964E+01  0.12791244880E+02  0.51100000000E-03 0.  1.
         12    1    3    3    0    0 -0.96363251314E+01  0.52310660327E+01 -0.10351374535E+02  0.15078918020E+02  0.00000000000E+00 0. -1.
</event>
<event>
 7    1  0.6065977E-013  0.5930193E+02  0.7816164E-02  0.1266605E+00
        -11   -1    0    0    0    0  0.00000000000E+00  0.00000000000E+00  0.45593999997E+02  0.45594000000E+02  0.51100000000E-03 0.  1.
         11   -1    0    0    0    0 -0.00000000000E+00 -0.00000000000E+00 -0.45593999997E+02  0.45594000000E+02  0.51100000000E-03 0. -1.
    9900012    2    1    2    0    0  0.16985558039E+02 -0.26517149174E+01 -0.26854807815E+02  0.59301929739E+02  0.49999973940E+02 0.  0.
        -12    1    1    2    0    0 -0.16985558039E+02  0.26517149174E+01  0.26854807815E+02  0.31886070261E+02  0.00000000000E+00 0.  1.
         11    1    3    3    0    0 -0.41519924089E+01 -0.11636975841E+02 -0.23463458355E+02  0.26517770003E+02  0.51100000000E-03 0. -1.
        -11    1    3    3    0    0  0.55953657852E+01  0.12058501263E+02  0.57602826425E+01  0.14487802710E+02  0.51100000000E-03 0.  1.
        -12    1    3    3    0    0  0.15542184663E+02 -0.30732403392E+01 -0.91516321033E+01  0.18296357026E+02  0.00000000000E+00 0.  1.
</event>
<event>
 7    1  0.6065977E-013  0.5930195E+02  0.7816164E-02  0.1266605E+00
        -11   -1    0    0    0    0  0.00000000000E+00  0.00000000000E+00  0.45593999997E+02  0.45594000000E+02  0.51100000000E-03 0.  1.
         11   -1    0    0    0    0 -0.00000000000E+00 -0.00000000000E+00 -0.45593999997E+02  0.45594000000E+02  0.51100000000E-03 0. -1.
    9900012    2    1    2    0    0  0.66873171061E+01  0.30217573867E+02 -0.76745225558E+01  0.59301948552E+02  0.50000008251E+02 0.  0.
        -12    1    1    2    0    0 -0.66873171061E+01 -0.30217573867E+02  0.76745225558E+01  0.31886051448E+02  0.00000000000E+00 0.  1.
         11    1    3    3    0    0  0.35254834985E+01  0.13401041555E+02 -0.11997407520E+02  0.18329068065E+02  0.51100000000E-03 0. -1.
        -11    1    3    3    0    0  0.63601268779E+01 -0.10852469198E+02  0.37036813917E+01  0.13112763160E+02  0.51100000000E-03 0.  1.
        -12    1    3    3    0    0 -0.31982932702E+01  0.27669001510E+02  0.61920357248E+00  0.27860117327E+02  0.00000000000E+00 0.  1.
</event>
<event>
 7    1  0.6065977E-013  0.5930194E+02  0.7816164E-02  0.1266605E+00
        -11   -1    0    0    0    0  0.00000000000E+00  0.00000000000E+00  0.45593999997E+02  0.45594000000E+02  0.51100000000E-03 0.  1.
         11   -1    0    0    0    0 -0.00000000000E+00 -0.00000000000E+00 -0.45593999997E+02  0.45594000000E+02  0.51100000000E-03 0. -1.
    9900012    2    1    2    0    0 -0.18851362322E+02 -0.21179115663E+02  0.14587391134E+02  0.59301940636E+02  0.49999993815E+02 0.  0.
        -12    1    1    2    0    0  0.18851362322E+02  0.21179115663E+02 -0.14587391134E+02  0.31886059364E+02  0.00000000000E+00 0.  1.
         11    1    3    3    0    0 -0.19593237840E+02  0.13386417758E+01  0.12786688559E+02  0.23434724992E+02  0.51100000000E-03 0. -1.
        -11    1    3    3    0    0  0.11654728520E+02 -0.10068807150E+01  0.36529977395E+00  0.11703843379E+02  0.51100000000E-03 0.  1.
         12    1    3    3    0    0 -0.10912853002E+02 -0.21510876724E+02  0.14354028016E+01  0.24163372266E+02  0.00000000000E+00 0. -1.
</event>
<event>
 7    1  0.6065977E-013  0.5930197E+02  0.7816164E-02  0.1266605E+00
        -11   -1    0    0    0    0  0.00000000000E+00  0.00000000000E+00  0.45593999997E+02  0.45594000000E+02  0.51100000000E-03 0. -1.
         11   -1    0    0    0    0 -0.00000000000E+00 -0.00000000000E+00 -0.45593999997E+02  0.45594000000E+02  0.51100000000E-03 0.  1.
    9900012    2    1    2    0    0  0.27961716728E+02  0.79685868821E+01 -0.13090561081E+02  0.59301972203E+02  0.50000051384E+02 0.  0.
        -12    1    1    2    0    0 -0.27961716728E+02 -0.79685868821E+01  0.13090561081E+02  0.31886027797E+02  0.00000000000E+00 0.  1.
         11    1    3    3    0    0  0.13170580604E+02 -0.10210595432E+01  0.55818334877E+01  0.14340977002E+02  0.51100000000E-03 0. -1.
        -11    1    3    3    0    0  0.96605266159E+01 -0.71251767417E+01 -0.24328182759E+02  0.27128479403E+02  0.51100000000E-03 0.  1.
        -12    1    3    3    0    0  0.51306095080E+01  0.16114823167E+02  0.56557881897E+01  0.17832515798E+02  0.00000000000E+00 0.  1.
</event>
<event>
 7    1  0.6065977E-013  0.5930194E+02  0.7816164E-02  0.1266605E+00
        -11   -1    0    0    0    0  0.00000000000E+00  0.00000000000E+00  0.45593999997E+02  0.45594000000E+02  0.51100000000E-03 0.  1.
         11   -1    0    0    0    0 -0.00000000000E+00 -0.00000000000E+00 -0.45593999997E+02  0.45594000000E+02  0.51100000000E-03 0. -1.
    9900012    2    1    2    0    0  0.32010497437E+01  0.28686974304E+02 -0.13547373357E+02  0.59301944442E+02  0.50000000755E+02 0.  0.
        -12    1    1    2    0    0 -0.32010497437E+01 -0.28686974304E+02  0.13547373357E+02  0.31886055558E+02  0.00000000000E+00 0.  1.
         11    1    3    3    0    0 -0.61260747819E+01  0.22207105393E+02 -0.61558887237E+01  0.23844900680E+02  0.51100000000E-03 0. -1.
        -11    1    3    3    0    0  0.11879398566E+02 -0.42623095200E-01  0.10743180931E+02  0.16016799425E+02  0.51100000000E-03 0.  1.
        -12    1    3    3    0    0 -0.25522740408E+01  0.65224920060E+01 -0.18134665565E+02  0.19440244337E+02  0.00000000000E+00 0.  1.
</event>
<event>
 7    1  0.6065977E-013  0.5930195E+02  0.7816164E-02  0.1266605E+00
        -11   -1    0    0    0    0  0.00000000000E+00  0.00000000000E+00  0.45593999997E+02  0.45594000000E+02  0.51100000000E-03 0. -1.
         11   -1    0    0    0    0 -0.00000000000E+00 -0.00000000000E+00 -0.45593999997E+02  0.45594000000E+02  0.51100000000E-03 0.  1.
    9900012    2    1    2    0    0  0.20483427964E+02  0.19073117331E+02  0.15276310839E+02  0.59301948210E+02  0.50000007628E+02 0.  0.
        -12    1    1    2    0    0 -0.20483427964E+02 -0.19073117331E+02 -0.15276310839E+02  0.31886051790E+02  0.00000000000E+00 0.  1.
         11    1    3    3    0    0  0.24232308988E+02  0.25632608638E+02 -0.61150127256E+01  0.35799843650E+02  0.51100000000E-03 0. -1.
        -11    1    3    3    0    0 -0.18747657294E+01  0.49185994301E-01  0.10198218879E+02  0.10369225350E+02  0.51100000000E-03 0.  1.
         12    1    3    3    0    0 -0.18741152939E+01 -0.66086773022E+01  0.11193104686E+02  0.13132879210E+02  0.00000000000E+00 0. -1.
</event>
<event>
 7    1  0.6065977E-013  0.5930195E+02  0.7816164E-02  0.1266605E+00
        -11   -1    0    0    0    0  0.00000000000E+00  0.00000000000E+00  0.45593999997E+02  0.45594000000E+02  0.51100000000E-03 0.  1.
         11   -1    0    0    0    0 -0.00000000000E+00 -0.00000000000E+00 -0.45593999997E+02  0.45594000000E+02  0.51100000000E-03 0. -1.
    9900012    2    1    2    0    0  0.13047955510E+02  0.17326171901E+02 -0.23372521688E+02  0.59301950608E+02  0.50000012001E+02 0.  0.
        -12    1    1    2    0    0 -0.13047955510E+02 -0.17326171901E+02  0.23372521688E+02  0.31886049392E+02  0.00000000000E+00 0.  1.
         11    1    3    3    0    0  0.18265454384E+02 -0.12938627827E+02 -0.79091130645E+01  0.23740029142E+02  0.51100000000E-03 0. -1.
        -11    1    3    3    0    0 -0.34404813182E+00  0.95199344057E+01 -0.53044981579E+00  0.95409065331E+01  0.51100000000E-03 0.  1.
         12    1    3    3    0    0 -0.48734507429E+01  0.20744865323E+02 -0.14932958808E+02  0.26021014933E+02  0.00000000000E+00 0. -1.
</event>
<event>
 7    1  0.6065977E-013  0.5930192E+02  0.7816164E-02  0.1266605E+00
        -11   -1    0    0    0    0  0.00000000000E+00  0.00000000000E+00  0.45593999997E+02  0.45594000000E+02  0.51100000000E-03 0. -1.
         11   -1    0    0    0    0 -0.00000000000E+00 -0.00000000000E+00 -0.45593999997E+02  0.45594000000E+02  0.51100000000E-03 0.  1.
    9900012    2    1    2    0    0 -0.20708216196E+02  0.24151439775E+02  0.21447495963E+01  0.59301918208E+02  0.49999952911E+02 0.  0.
        -12    1    1    2    0    0  0.20708216196E+02 -0.24151439775E+02 -0.21447495963E+01  0.31886081792E+02  0.00000000000E+00 0.  1.
         11    1    3    3    0    0 -0.16904165960E+02  0.29183971377E+02 -0.31750534433E+00  0.33727671459E+02  0.51100000000E-03 0. -1.
        -11    1    3    3    0    0  0.84446984894E+01 -0.12014930884E+01  0.79091362781E+01  0.11632323721E+02  0.51100000000E-03 0.  1.
        -12    1    3    3    0    0 -0.12248748725E+02 -0.38310385139E+01 -0.54468813375E+01  0.13941923029E+02  0.00000000000E+00 0.  1.
</event>
<event>
 7    1  0.6065977E-013  0.5930193E+02  0.7816164E-02  0.1266605E+00
        -11   -1    0    0    0    0  0.00000000000E+00  0.00000000000E+00  0.45593999997E+02  0.45594000000E+02  0.51100000000E-03 0.  1.
         11   -1    0    0    0    0 -0.00000000000E+00 -0.00000000000E+00 -0.45593999997E+02  0.45594000000E+02  0.51100000000E-03 0. -1.
    9900012    2    1    2    0    0 -0.18968090437E+02 -0.13762336984E+02 -0.21622460171E+02  0.59301934737E+02  0.49999983056E+02 0.  0.
        -12    1    1    2    0    0  0.18968090437E+02  0.13762336984E+02  0.21622460171E+02  0.31886065263E+02  0.00000000000E+00 0.  1.
         11    1    3    3    0    0 -0.18480963322E+02  0.90244519389E+01 -0.16804528977E+02  0.26558970848E+02  0.51100000000E-03 0. -1.
        -11    1    3    3    0    0  0.82345749263E+01 -0.97488123602E+00  0.14782622486E+01  0.84228188380E+01  0.51100000000E-03 0.  1.
         12    1    3    3    0    0 -0.87217020412E+01 -0.21811907687E+02 -0.62961934425E+01  0.24320145051E+02  0.00000000000E+00 0. -1.
</event>
<event>
 7    1  0.6065977E-013  0.5930198E+02  0.7816164E-02  0.1266605E+00
        -11   -1    0    0    0    0  0.00000000000E+00  0.00000000000E+00  0.45593999997E+02  0.45594000000E+02  0.51100000000E-03 0.  1.
         11   -1    0    0    0    0 -0.00000000000E+00 -0.00000000000E+00 -0.45593999997E+02  0.45594000000E+02  0.51100000000E-03 0. -1.
    9900012    2    1    2    0    0  0.13516315559E+02  0.23767907866E+02 -0.16404699099E+02  0.59301978248E+02  0.50000062410E+02 0.  0.
        -12    1    1    2    0    0 -0.13516315559E+02 -0.23767907866E+02  0.16404699099E+02  0.31886021752E+02  0.00000000000E+00 0.  1.
         11    1    3    3    0    0  0.10659260883E+02  0.12863473686E+02  0.11135039535E+02  0.20076800132E+02  0.51100000000E-03 0.  1.
        -11    1    3    3    0    0  0.10463227505E+02  0.15566214281E+02 -0.21046907153E+02  0.28191460726E+02  0.51100000000E-03 0. -1.
         12    1    3    3    0    0 -0.76061728282E+01 -0.46617801020E+01 -0.64928314808E+01  0.11033717390E+02  0.00000000000E+00 0. -1.
</event>
<event>
 7    1  0.6065977E-013  0.5930196E+02  0.7816164E-02  0.1266605E+00
        -11   -1    0    0    0    0  0.00000000000E+00  0.00000000000E+00  0.45593999997E+02  0.45594000000E+02  0.51100000000E-03 0.  1.
         11   -1    0    0    0    0 -0.00000000000E+00 -0.00000000000E+00 -0.45593999997E+02  0.45594000000E+02  0.51100000000E-03 0. -1.
    9900012    2    1    2    0    0  0.37386190536E+00 -0.24706221496E+02 -0.20153967043E+02  0.59301960094E+02  0.50000029301E+02 0.  0.
        -12    1    1    2    0    0 -0.37386190536E+00  0.24706221496E+02  0.20153967043E+02  0.31886039906E+02  0.00000000000E+00 0.  1.
         11    1    3    3    0    0  0.10829628307E+02 -0.12488195166E+02 -0.10049880433E+02  0.19345179367E+02  0.51100000000E-03 0. -1.
        -11    1    3    3    0    0 -0.31870468475E+01  0.91534619652E+01  0.67277576847E+01  0.11798553186E+02  0.51100000000E-03 0.  1.
        -12    1    3    3    0    0 -0.72687195544E+01 -0.21371488294E+02 -0.16831844295E+02  0.28158227541E+02  0.00000000000E+00 0.  1.
</event>
<event>
 7    1  0.6065977E-013  0.5930193E+02  0.7816164E-02  0.1266605E+00
        -11   -1    0    0    0    0  0.00000000000E+00  0.00000000000E+00  0.45593999997E+02  0.45594000000E+02  0.51100000000E-03 0.  1.
         11   -1    0    0    0    0 -0.00000000000E+00 -0.00000000000E+00 -0.45593999997E+02  0.45594000000E+02  0.51100000000E-03 0. -1.
    9900012    2    1    2    0    0 -0.34159481094E+01 -0.28992588080E+02 -0.12825067258E+02  0.59301933839E+02  0.49999981419E+02 0.  0.
        -12    1    1    2    0    0  0.34159481094E+01  0.28992588080E+02  0.12825067258E+02  0.31886066161E+02  0.00000000000E+00 0.  1.
         11    1    3    3    0    0 -0.85835128933E+01 -0.26745721519E+02 -0.25141179746E+02  0.37697337207E+02  0.51100000000E-03 0. -1.
        -11    1    3    3    0    0  0.86284382963E+01 -0.69748566845E+01  0.10949251491E+02  0.15587965925E+02  0.51100000000E-03 0.  1.
         12    1    3    3    0    0 -0.34608735123E+01  0.47279901244E+01  0.13668609980E+01  0.60166307077E+01  0.00000000000E+00 0. -1.
</event>
<event>
 7    1  0.6065977E-013  0.5930193E+02  0.7816164E-02  0.1266605E+00
        -11   -1    0    0    0    0  0.00000000000E+00  0.00000000000E+00  0.45593999997E+02  0.45594000000E+02  0.51100000000E-03 0.  1.
         11   -1    0    0    0    0 -0.00000000000E+00 -0.00000000000E+00 -0.45593999997E+02  0.45594000000E+02  0.51100000000E-03 0. -1.
    9900012    2    1    2    0    0 -0.26924441522E+02  0.55350464824E+00 -0.17073056128E+02  0.59301934639E+02  0.49999982877E+02 0.  0.
        -12    1    1    2    0    0  0.26924441522E+02 -0.55350464824E+00  0.17073056128E+02  0.31886065361E+02  0.00000000000E+00 0.  1.
         11    1    3    3    0    0 -0.22468746683E+02  0.74486121321E+01 -0.16440438774E+01  0.23728238045E+02  0.51100000000E-03 0. -1.
        -11    1    3    3    0    0  0.16611954263E+01 -0.18505755114E+02 -0.11596692464E+02  0.21902187538E+02  0.51100000000E-03 0.  1.
         12    1    3    3    0    0 -0.61168902654E+01  0.11610647630E+02 -0.38323197869E+01  0.13671509056E+02  0.00000000000E+00 0. -1.
</event>
<event>
 7    1  0.6065977E-013  0.5930192E+02  0.7816164E-02  0.1266605E+00
        -11   -1    0    0    0    0  0.00000000000E+00  0.00000000000E+00  0.45593999997E+02  0.45594000000E+02  0.51100000000E-03 0.  1.
         11   -1    0    0    0    0 -0.00000000000E+00 -0.00000000000E+00 -0.45593999997E+02  0.45594000000E+02  0.51100000000E-03 0. -1.
    9900012    2    1    2    0    0 -0.11451489456E+02 -0.12545452748E+02 -0.26985128238E+02  0.59301919315E+02  0.49999954929E+02 0.  0.
        -12    1    1    2    0    0  0.11451489456E+02  0.12545452748E+02  0.26985128238E+02  0.31886080685E+02  0.00000000000E+00 0.  1.
         11    1    3    3    0    0 -0.18341376713E+02 -0.18883931816E+02 -0.22426495740E+02  0.34582606784E+02  0.51100000000E-03 0. -1.
        -11    1    3    3    0    0 -0.41137388471E+01  0.68453866542E+01  0.55846160504E+01  0.97452605116E+01  0.51100000000E-03 0.  1.
         12    1    3    3    0    0  0.11003626104E+02 -0.50690758642E+00 -0.10143248549E+02  0.14974052019E+02  0.00000000000E+00 0. -1.
</event>
<event>
 7    1  0.6065977E-013  0.5930204E+02  0.7816164E-02  0.1266604E+00
        -11   -1    0    0    0    0  0.00000000000E+00  0.00000000000E+00  0.45593999997E+02  0.45594000000E+02  0.51100000000E-03 0. -1.
         11   -1    0    0    0    0 -0.00000000000E+00 -0.00000000000E+00 -0.45593999997E+02  0.45594000000E+02  0.51100000000E-03 0.  1.
    9900012    2    1    2    0    0 -0.12066175603E+02 -0.26254712354E+01  0.29397766659E+02  0.59302041061E+02  0.50000176966E+02 0.  0.
        -12    1    1    2    0    0  0.12066175603E+02  0.26254712354E+01 -0.29397766659E+02  0.31885958939E+02  0.00000000000E+00 0.  1.
         11    1    3    3    0    0 -0.19034077201E+02 -0.14509588879E+02  0.74635248602E+01  0.25070470039E+02  0.51100000000E-03 0. -1.
        -11    1    3    3    0    0  0.12219471979E+02  0.27328571301E+00  0.16106320047E+02  0.20218895278E+02  0.51100000000E-03 0.  1.
         12    1    3    3    0    0 -0.52515703804E+01  0.11610831931E+02  0.58279217521E+01  0.14012675745E+02  0.00000000000E+00 0. -1.
</event>
<event>
 7    1  0.6065977E-013  0.5930195E+02  0.7816164E-02  0.1266605E+00
        -11   -1    0    0    0    0  0.00000000000E+00  0.00000000000E+00  0.45593999997E+02  0.45594000000E+02  0.51100000000E-03 0. -1.
         11   -1    0    0    0    0 -0.00000000000E+00 -0.00000000000E+00 -0.45593999997E+02  0.45594000000E+02  0.51100000000E-03 0.  1.
    9900012    2    1    2    0    0  0.22577746553E+02  0.21554051576E+02 -0.65106367175E+01  0.59301950241E+02  0.50000011331E+02 0.  0.
        -12    1    1    2    0    0 -0.22577746553E+02 -0.21554051576E+02  0.65106367175E+01  0.31886049759E+02  0.00000000000E+00 0.  1.
         11    1    3    3    0    0  0.49301133365E+01  0.80963127954E+01  0.17305195614E+02  0.19731348000E+02  0.51100000000E-03 0. -1.
        -11    1    3    3    0    0  0.10724157481E+02  0.18774374716E+02 -0.11542311442E+02  0.24509378885E+02  0.51100000000E-03 0.  1.
        -12    1    3    3    0    0  0.69234757363E+01 -0.53166359347E+01 -0.12273520890E+02  0.15061223355E+02  0.00000000000E+00 0.  1.
</event>
<event>
 7    1  0.6065977E-013  0.5930192E+02  0.7816164E-02  0.1266605E+00
        -11   -1    0    0    0    0  0.00000000000E+00  0.00000000000E+00  0.45593999997E+02  0.45594000000E+02  0.51100000000E-03 0.  1.
         11   -1    0    0    0    0 -0.00000000000E+00 -0.00000000000E+00 -0.45593999997E+02  0.45594000000E+02  0.51100000000E-03 0. -1.
    9900012    2    1    2    0    0  0.65341959751E+01 -0.30356558980E+02 -0.72460782947E+01  0.59301920893E+02  0.49999957808E+02 0.  0.
        -12    1    1    2    0    0 -0.65341959751E+01  0.30356558980E+02  0.72460782947E+01  0.31886079107E+02  0.00000000000E+00 0.  1.
         11    1    3    3    0    0  0.90605830603E+01 -0.17629149100E+02 -0.74099366392E+01  0.21161007175E+02  0.51100000000E-03 0. -1.
        -11    1    3    3    0    0 -0.97926855021E+01  0.94829932277E+01  0.45360569517E+01  0.14366616262E+02  0.51100000000E-03 0.  1.
        -12    1    3    3    0    0  0.72662984169E+01 -0.22210403108E+02 -0.43721986072E+01  0.23774297456E+02  0.00000000000E+00 0.  1.
</event>
<event>
 7    1  0.6065977E-013  0.5930194E+02  0.7816164E-02  0.1266605E+00
        -11   -1    0    0    0    0  0.00000000000E+00  0.00000000000E+00  0.45593999997E+02  0.45594000000E+02  0.51100000000E-03 0.  1.
         11   -1    0    0    0    0 -0.00000000000E+00 -0.00000000000E+00 -0.45593999997E+02  0.45594000000E+02  0.51100000000E-03 0. -1.
    9900012    2    1    2    0    0  0.25854236933E+01  0.30587101290E+02 -0.86293302676E+01  0.59301944712E+02  0.50000001248E+02 0.  0.
        -12    1    1    2    0    0 -0.25854236933E+01 -0.30587101290E+02  0.86293302676E+01  0.31886055288E+02  0.00000000000E+00 0.  1.
         11    1    3    3    0    0  0.43339634046E+01 -0.72055970602E+01 -0.46482953379E+01  0.96078362598E+01  0.51100000000E-03 0. -1.
        -11    1    3    3    0    0 -0.39895326552E+01  0.28427023250E+02 -0.17105418927E+02  0.33415675642E+02  0.51100000000E-03 0.  1.
        -12    1    3    3    0    0  0.22409929438E+01  0.93656750993E+01  0.13124383997E+02  0.16278432810E+02  0.00000000000E+00 0.  1.
</event>
<event>
 7    1  0.6065977E-013  0.5930195E+02  0.7816164E-02  0.1266605E+00
        -11   -1    0    0    0    0  0.00000000000E+00  0.00000000000E+00  0.45593999997E+02  0.45594000000E+02  0.51100000000E-03 0. -1.
         11   -1    0    0    0    0 -0.00000000000E+00 -0.00000000000E+00 -0.45593999997E+02  0.45594000000E+02  0.51100000000E-03 0.  1.
    9900012    2    1    2    0    0  0.75476759517E+01  0.27790750621E+02  0.13690388385E+02  0.59301953420E+02  0.50000017130E+02 0.  0.
        -12    1    1    2    0    0 -0.75476759517E+01 -0.27790750621E+02 -0.13690388385E+02  0.31886046580E+02  0.00000000000E+00 0.  1.
         11    1    3    3    0    0  0.41892061376E+01  0.10155211300E+02  0.30585705972E+02  0.32498664199E+02  0.51100000000E-03 0. -1.
        -11    1    3    3    0    0  0.49367941774E+01  0.58381771576E+01 -0.11319067854E+02  0.13659339172E+02  0.51100000000E-03 0.  1.
         12    1    3    3    0    0 -0.15783243633E+01  0.11797362163E+02 -0.55762497338E+01  0.13143950050E+02  0.00000000000E+00 0. -1.
</event>
<event>
 7    1  0.6065977E-013  0.5930202E+02  0.7816164E-02  0.1266605E+00
        -11   -1    0    0    0    0  0.00000000000E+00  0.00000000000E+00  0.45593999997E+02  0.45594000000E+02  0.51100000000E-03 0.  1.
         11   -1    0    0    0    0 -0.00000000000E+00 -0.00000000000E+00 -0.45593999997E+02  0.45594000000E+02  0.51100000000E-03 0. -1.
    9900012    2    1    2    0    0  0.18515161329E+01  0.76708097854E+01 -0.30894118921E+02  0.59302015326E+02  0.50000130031E+02 0.  0.
        -12    1    1    2    0    0 -0.18515161329E+01 -0.76708097854E+01  0.30894118921E+02  0.31885984674E+02  0.00000000000E+00 0.  1.
         11    1    3    3    0    0 -0.53482989882E+01  0.26569519673E+01 -0.35293872070E+02  0.35795545837E+02  0.51100000000E-03 0. -1.
        -11    1    3    3    0    0  0.13001921983E+02 -0.34602144246E+00  0.75080325753E+01  0.15017997853E+02  0.51100000000E-03 0.  1.
         12    1    3    3    0    0 -0.58021068621E+01  0.53598792606E+01 -0.31082794262E+01  0.84884716362E+01  0.00000000000E+00 0. -1.
</event>
<event>
 7    1  0.6065977E-013  0.5930194E+02  0.7816164E-02  0.1266605E+00
        -11   -1    0    0    0    0  0.00000000000E+00  0.00000000000E+00  0.45593999997E+02  0.45594000000E+02  0.51100000000E-03 0.  1.
         11   -1    0    0    0    0 -0.00000000000E+00 -0.00000000000E+00 -0.45593999997E+02  0.45594000000E+02  0.51100000000E-03 0. -1.
    9900012    2    1    2    0    0 -0.87993187924E+01  0.44726391410E+01 -0.30319772563E+02  0.59301935327E+02  0.49999984131E+02 0.  0.
        -12    1    1    2    0    0  0.87993187924E+01 -0.44726391410E+01  0.30319772563E+02  0.31886064673E+02  0.00000000000E+00 0.  1.
         11    1    3    3    0    0 -0.25702995607E+02 -0.60376544117E+01 -0.15142266545E+02  0.30436581450E+02  0.51100000000E-03 0. -1.
        -11    1    3    3    0    0  0.18538985150E+02  0.57819008884E+01 -0.10819550819E+02  0.22230317777E+02  0.51100000000E-03 0.  1.
        -12    1    3    3    0    0 -0.16353083355E+01  0.47283926643E+01 -0.43579551989E+01  0.66350361005E+01  0.00000000000E+00 0.  1.
</event>
<event>
 7    1  0.6065977E-013  0.5930192E+02  0.7816164E-02  0.1266605E+00
        -11   -1    0    0    0    0  0.00000000000E+00  0.00000000000E+00  0.45593999997E+02  0.45594000000E+02  0.51100000000E-03 0.  1.
         11   -1    0    0    0    0 -0.00000000000E+00 -0.00000000000E+00 -0.45593999997E+02  0.45594000000E+02  0.51100000000E-03 0. -1.
    9900012    2    1    2    0    0  0.87381230488E+00  0.79547036515E+01 -0.30865531906E+02  0.59301922819E+02  0.49999961321E+02 0.  0.
        -12    1    1    2    0    0 -0.87381230488E+00 -0.79547036515E+01  0.30865531906E+02  0.31886077181E+02  0.00000000000E+00 0.  1.
         11    1    3    3    0    0 -0.15420824648E+02  0.12465329618E+02 -0.31075989441E+02  0.36863306896E+02  0.51100000000E-03 0. -1.
        -11    1    3    3    0    0  0.45359042334E+01  0.11258294001E+01  0.64642052243E+01  0.79767078733E+01  0.51100000000E-03 0.  1.
         12    1    3    3    0    0  0.11758732720E+02 -0.56364553667E+01 -0.62537476897E+01  0.14461908050E+02  0.00000000000E+00 0. -1.
</event>
<event>
 7    1  0.6065977E-013  0.5930194E+02  0.7816164E-02  0.1266605E+00
        -11   -1    0    0    0    0  0.00000000000E+00  0.00000000000E+00  0.45593999997E+02  0.45594000000E+02  0.51100000000E-03 0. -1.
         11   -1    0    0    0    0 -0.00000000000E+00 -0.00000000000E+00 -0.45593999997E+02  0.45594000000E+02  0.51100000000E-03 0.  1.
    9900012    2    1    2    0    0  0.24392798256E+02 -0.19391283586E+02  0.67594701507E+01  0.59301938428E+02  0.49999989787E+02 0.  0.
        -12    1    1    2    0    0 -0.24392798256E+02  0.19391283586E+02 -0.67594701507E+01  0.31886061572E+02  0.00000000000E+00 0.  1.
         11    1    3    3    0    0  0.24916178129E+02 -0.73488096550E+01  0.14968702086E+02  0.29981377192E+02  0.51100000000E-03 0. -1.
        -11    1    3    3    0    0 -0.48461692561E+01 -0.16491649619E+02 -0.12943286351E+02  0.21517168156E+02  0.51100000000E-03 0.  1.
         12    1    3    3    0    0  0.43227893828E+01  0.44491756878E+01  0.47340544158E+01  0.78033930800E+01  0.00000000000E+00 0. -1.
</event>
<event>
 7    1  0.6065977E-013  0.5930196E+02  0.7816164E-02  0.1266605E+00
        -11   -1    0    0    0    0  0.00000000000E+00  0.00000000000E+00  0.45593999997E+02  0.45594000000E+02  0.51100000000E-03 0.  1.
         11   -1    0    0    0    0 -0.00000000000E+00 -0.00000000000E+00 -0.45593999997E+02  0.45594000000E+02  0.51100000000E-03 0. -1.
    9900012    2    1    2    0    0 -0.26204640055E+02  0.17611776026E+02 -0.44566206237E+01  0.59301964145E+02  0.50000036689E+02 0.  0.
        -12    1    1    2    0    0  0.26204640055E+02 -0.17611776026E+02  0.44566206237E+01  0.31886035855E+02  0.00000000000E+00 0.  1.
         11    1    3    3    0    0 -0.21832450035E+02  0.21203465612E+02  0.97408875949E+01  0.31955089108E+02  0.51100000000E-03 0.  1.
        -11    1    3    3    0    0 -0.77466927912E+01  0.38470365117E+01 -0.16697329495E+02  0.18804567308E+02  0.51100000000E-03 0. -1.
         12    1    3    3    0    0  0.33745027716E+01 -0.74387260984E+01  0.24998212761E+01  0.85423077289E+01  0.00000000000E+00 0. -1.
</event>
<event>
 7    1  0.6065977E-013  0.5930198E+02  0.7816164E-02  0.1266605E+00
        -11   -1    0    0    0    0  0.00000000000E+00  0.00000000000E+00  0.45593999997E+02  0.45594000000E+02  0.51100000000E-03 0. -1.
         11   -1    0    0    0    0 -0.00000000000E+00 -0.00000000000E+00 -0.45593999997E+02  0.45594000000E+02  0.51100000000E-03 0.  1.
    9900012    2    1    2    0    0  0.17936814131E+02 -0.69551024597E+01  0.25428632668E+02  0.59301982520E+02  0.50000070200E+02 0.  0.
        -12    1    1    2    0    0 -0.17936814131E+02  0.69551024597E+01 -0.25428632668E+02  0.31886017480E+02  0.00000000000E+00 0.  1.
         11    1    3    3    0    0  0.26548585760E+02 -0.65104839423E+01  0.16151699841E+02  0.31750452202E+02  0.51100000000E-03 0. -1.
        -11    1    3    3    0    0 -0.14515278516E+02  0.59231686921E+01  0.10374471087E+02  0.18799119351E+02  0.51100000000E-03 0.  1.
        -12    1    3    3    0    0  0.59035068874E+01 -0.63677872095E+01 -0.10975382599E+01  0.87524109677E+01  0.00000000000E+00 0.  1.
</event>
<event>
 7    1  0.6065977E-013  0.5930196E+02  0.7816164E-02  0.1266605E+00
        -11   -1    0    0    0    0  0.00000000000E+00  0.00000000000E+00  0.45593999997E+02  0.45594000000E+02  0.51100000000E-03 0. -1.
         11   -1    0    0    0    0 -0.00000000000E+00 -0.00000000000E+00 -0.45593999997E+02  0.45594000000E+02  0.51100000000E-03 0.  1.
    9900012    2    1    2    0    0 -0.17109855217E+02  0.10467558817E+02  0.24787144826E+02  0.59301961021E+02  0.50000030993E+02 0.  0.
        -12    1    1    2    0    0  0.17109855217E+02 -0.10467558817E+02 -0.24787144826E+02  0.31886038979E+02  0.00000000000E+00 0.  1.
         11    1    3    3    0    0 -0.56463767851E+01  0.13149891428E+02 -0.58878030830E+01  0.15474735564E+02  0.51100000000E-03 0. -1.
        -11    1    3    3    0    0 -0.55578629390E+01 -0.19089111391E+00  0.35418997987E+02  0.35852917574E+02  0.51100000000E-03 0.  1.
        -12    1    3    3    0    0 -0.59056154924E+01 -0.24914414975E+01 -0.47440500783E+01  0.79743078837E+01  0.00000000000E+00 0.  1.
</event>
<event>
 7    1  0.6065977E-013  0.5930216E+02  0.7816164E-02  0.1266604E+00
        -11   -1    0    0    0    0  0.00000000000E+00  0.00000000000E+00  0.45593999997E+02  0.45594000000E+02  0.51100000000E-03 0.  1.
         11   -1    0    0    0    0 -0.00000000000E+00 -0.00000000000E+00 -0.45593999997E+02  0.45594000000E+02  0.51100000000E-03 0. -1.
    9900012    2    1    2    0    0 -0.28397417944E+02  0.14282154515E+02  0.25126677365E+01  0.59302160155E+02  0.50000394162E+02 0.  0.
        -12    1    1    2    0    0  0.28397417944E+02 -0.14282154515E+02 -0.25126677365E+01  0.31885839845E+02  0.00000000000E+00 0.  1.
         11    1    3    3    0    0 -0.37429154770E+02  0.16225144646E+02  0.85852818280E+01  0.41688175901E+02  0.51100000000E-03 0. -1.
        -11    1    3    3    0    0  0.33531863906E+01 -0.24143861480E+01 -0.99149325957E+01  0.10741462102E+02  0.51100000000E-03 0.  1.
         12    1    3    3    0    0  0.56785504353E+01  0.47139601684E+00  0.38423185042E+01  0.68725221526E+01  0.00000000000E+00 0. -1.
</event>
<event>
 7    1  0.6065977E-013  0.5930194E+02  0.7816164E-02  0.1266605E+00
        -11   -1    0    0    0    0  0.00000000000E+00  0.00000000000E+00  0.45593999997E+02  0.45594000000E+02  0.51100000000E-03 0.  1.
         11   -1    0    0    0    0 -0.00000000000E+00 -0.00000000000E+00 -0.45593999997E+02  0.45594000000E+02  0.51100000000E-03 0. -1.
    9900012    2    1    2    0    0  0.26699491387E+02 -0.17428287120E+02  0.33612464756E+00  0.59301937025E+02  0.49999987229E+02 0.  0.
        -12    1    1    2    0    0 -0.26699491387E+02  0.17428287120E+02 -0.33612464756E+00  0.31886062975E+02  0.00000000000E+00 0.  1.
         11    1    3    3    0    0  0.17121870923E+02 -0.19494604647E+02  0.54422178656E+01  0.26510673507E+02  0.51100000000E-03 0. -1.
        -11    1    3    3    0    0 -0.85363183165E+01 -0.16342144056E+01 -0.10406344078E+02  0.13558443291E+02  0.51100000000E-03 0.  1.
        -12    1    3    3    0    0  0.18113938780E+02  0.37005319323E+01  0.53002508605E+01  0.19232820227E+02  0.00000000000E+00 0.  1.
</event>
<event>
 7    1  0.6065977E-013  0.5930197E+02  0.7816164E-02  0.1266605E+00
        -11   -1    0    0    0    0  0.00000000000E+00  0.00000000000E+00  0.45593999997E+02  0.45594000000E+02  0.51100000000E-03 0. -1.
         11   -1    0    0    0    0 -0.00000000000E+00 -0.00000000000E+00 -0.45593999997E+02  0.45594000000E+02  0.51100000000E-03 0.  1.
    9900012    2    1    2    0    0  0.99160940006E+01  0.29899108808E+02  0.49430078812E+01  0.59301969287E+02  0.50000046067E+02 0.  0.
        -12    1    1    2    0    0 -0.99160940006E+01 -0.29899108808E+02 -0.49430078812E+01  0.31886030713E+02  0.00000000000E+00 0.  1.
         11    1    3    3    0    0 -0.15063663121E+02  0.14641735316E+02  0.82740764520E+01  0.22577747919E+02  0.51100000000E-03 0. -1.
        -11    1    3    3    0    0  0.11375358505E+02  0.62105942890E+00 -0.10501573573E+02  0.15494113195E+02  0.51100000000E-03 0.  1.
         12    1    3    3    0    0  0.13604398616E+02  0.14636314062E+02  0.71705050022E+01  0.21230108173E+02  0.00000000000E+00 0. -1.
</event>
<event>
 7    1  0.6065977E-013  0.5930193E+02  0.7816164E-02  0.1266605E+00
        -11   -1    0    0    0    0  0.00000000000E+00  0.00000000000E+00  0.45593999997E+02  0.45594000000E+02  0.51100000000E-03 0.  1.
         11   -1    0    0    0    0 -0.00000000000E+00 -0.00000000000E+00 -0.45593999997E+02  0.45594000000E+02  0.51100000000E-03 0. -1.
    9900012    2    1    2    0    0  0.29072697663E+02  0.68868498305E+01  0.11138727285E+02  0.59301926308E+02  0.49999967683E+02 0.  0.
        -12    1    1    2    0    0 -0.29072697663E+02 -0.68868498305E+01 -0.11138727285E+02  0.31886073692E+02  0.00000000000E+00 0.  1.
         11    1    3    3    0    0  0.24720320177E+02  0.49622839322E+01 -0.42007368438E+01  0.25560999233E+02  0.51100000000E-03 0. -1.
        -11    1    3    3    0    0 -0.29434133586E+01  0.11205644540E+02  0.18217750202E+02  0.21589733080E+02  0.51100000000E-03 0.  1.
        -12    1    3    3    0    0  0.72957908441E+01 -0.92810786422E+01 -0.28782860729E+01  0.12151193996E+02  0.00000000000E+00 0.  1.
</event>
<event>
 7    1  0.6065977E-013  0.5930196E+02  0.7816164E-02  0.1266605E+00
        -11   -1    0    0    0    0  0.00000000000E+00  0.00000000000E+00  0.45593999997E+02  0.45594000000E+02  0.51100000000E-03 0. -1.
         11   -1    0    0    0    0 -0.00000000000E+00 -0.00000000000E+00 -0.45593999997E+02  0.45594000000E+02  0.51100000000E-03 0.  1.
    9900012    2    1    2    0    0  0.30581876682E+02  0.71467107617E+01  0.55130006349E+01  0.59301955528E+02  0.50000020973E+02 0.  0.
        -12    1    1    2    0    0 -0.30581876682E+02 -0.71467107617E+01 -0.55130006349E+01  0.31886044472E+02  0.00000000000E+00 0.  1.
         11    1    3    3    0    0  0.32592372202E+02 -0.35618793075E+01 -0.74086152128E+01  0.33613052370E+02  0.51100000000E-03 0. -1.
        -11    1    3    3    0    0  0.17268099119E+01  0.89463025506E+01 -0.27215694593E+01  0.95092135522E+01  0.51100000000E-03 0.  1.
         12    1    3    3    0    0 -0.37373054323E+01  0.17622875186E+01  0.15643185307E+02  0.16179689606E+02  0.00000000000E+00 0. -1.
</event>
<event>
 7    1  0.6065977E-013  0.5930183E+02  0.7816164E-02  0.1266605E+00
        -11   -1    0    0    0    0  0.00000000000E+00  0.00000000000E+00  0.45593999997E+02  0.45594000000E+02  0.51100000000E-03 0. -1.
         11   -1    0    0    0    0 -0.00000000000E+00 -0.00000000000E+00 -0.45593999997E+02  0.45594000000E+02  0.51100000000E-03 0.  1.
    9900012    2    1    2    0    0 -0.11634496967E+02 -0.20777570249E+02  0.21205164627E+02  0.59301828201E+02  0.49999788760E+02 0.  0.
        -12    1    1    2    0    0  0.11634496967E+02  0.20777570249E+02 -0.21205164627E+02  0.31886171799E+02  0.00000000000E+00 0.  1.
         11    1    3    3    0    0  0.49261914638E+01 -0.17944066582E+01  0.27034509933E+02  0.27538191392E+02  0.51100000000E-03 0. -1.
        -11    1    3    3    0    0 -0.30898249089E+01 -0.14611383389E+02 -0.87416457726E+01  0.17304794526E+02  0.51100000000E-03 0.  1.
        -12    1    3    3    0    0 -0.13470863522E+02 -0.43717802016E+01  0.29123004670E+01  0.14458842283E+02  0.00000000000E+00 0.  1.
</event>
<event>
 7    1  0.6065977E-013  0.5930194E+02  0.7816164E-02  0.1266605E+00
        -11   -1    0    0    0    0  0.00000000000E+00  0.00000000000E+00  0.45593999997E+02  0.45594000000E+02  0.51100000000E-03 0.  1.
         11   -1    0    0    0    0 -0.00000000000E+00 -0.00000000000E+00 -0.45593999997E+02  0.45594000000E+02  0.51100000000E-03 0. -1.
    9900012    2    1    2    0    0  0.20079226850E+01 -0.28814708794E+02 -0.13505608271E+02  0.59301942684E+02  0.49999997549E+02 0.  0.
        -12    1    1    2    0    0 -0.20079226850E+01  0.28814708794E+02  0.13505608271E+02  0.31886057316E+02  0.00000000000E+00 0.  1.
         11    1    3    3    0    0  0.67563995359E+01 -0.36834605886E+02 -0.11650134777E+02  0.39219418227E+02  0.51100000000E-03 0. -1.
        -11    1    3    3    0    0 -0.21820828188E+01 -0.33835918001E+01  0.50870176653E+01  0.64875209353E+01  0.51100000000E-03 0.  1.
         12    1    3    3    0    0 -0.25663940321E+01  0.11403488892E+02 -0.69424911597E+01  0.13595003521E+02  0.00000000000E+00 0. -1.
</event>
<event>
 7    1  0.6065977E-013  0.5930192E+02  0.7816164E-02  0.1266605E+00
        -11   -1    0    0    0    0  0.00000000000E+00  0.00000000000E+00  0.45593999997E+02  0.45594000000E+02  0.51100000000E-03 0. -1.
         11   -1    0    0    0    0 -0.00000000000E+00 -0.00000000000E+00 -0.45593999997E+02  0.45594000000E+02  0.51100000000E-03 0.  1.
    9900012    2    1    2    0    0 -0.15575749621E+02  0.17890624763E+02  0.21308296208E+02  0.59301922820E+02  0.49999961321E+02 0.  0.
        -12    1    1    2    0    0  0.15575749621E+02 -0.17890624763E+02 -0.21308296208E+02  0.31886077180E+02  0.00000000000E+00 0.  1.
         11    1    3    3    0    0  0.19762361596E+01 -0.10468403849E+01  0.17913605671E+02  0.18052663309E+02  0.51100000000E-03 0. -1.
        -11    1    3    3    0    0  0.16943694441E+01 -0.54298559674E+01 -0.65209191197E+01  0.86531271843E+01  0.51100000000E-03 0.  1.
        -12    1    3    3    0    0 -0.19246355225E+02  0.24367321115E+02  0.99156096567E+01  0.32596132326E+02  0.00000000000E+00 0.  1.
</event>
<event>
 7    1  0.6065977E-013  0.5930194E+02  0.7816164E-02  0.1266605E+00
        -11   -1    0    0    0    0  0.00000000000E+00  0.00000000000E+00  0.45593999997E+02  0.45594000000E+02  0.51100000000E-03 0. -1.
         11   -1    0    0    0    0 -0.00000000000E+00 -0.00000000000E+00 -0.45593999997E+02  0.45594000000E+02  0.51100000000E-03 0.  1.
    9900012    2    1    2    0    0 -0.22776791155E+02 -0.20253498498E+02  0.93666792186E+01  0.59301935704E+02  0.49999984820E+02 0.  0.
        -12    1    1    2    0    0  0.22776791155E+02  0.20253498498E+02 -0.93666792186E+01  0.31886064296E+02  0.00000000000E+00 0.  1.
         11    1    3    3    0    0 -0.24484750598E+02 -0.52959438510E+01  0.18027535835E+02  0.30863280475E+02  0.51100000000E-03 0. -1.
        -11    1    3    3    0    0  0.26306811526E+01 -0.20402162350E+02 -0.34737649700E+01  0.20862304647E+02  0.51100000000E-03 0.  1.
         12    1    3    3    0    0 -0.92272170929E+00  0.54446077030E+01 -0.51870916463E+01  0.75763505819E+01  0.00000000000E+00 0. -1.
</event>
<event>
 7    1  0.6065977E-013  0.5930198E+02  0.7816164E-02  0.1266605E+00
        -11   -1    0    0    0    0  0.00000000000E+00  0.00000000000E+00  0.45593999997E+02  0.45594000000E+02  0.51100000000E-03 0. -1.
         11   -1    0    0    0    0 -0.00000000000E+00 -0.00000000000E+00 -0.45593999997E+02  0.45594000000E+02  0.51100000000E-03 0.  1.
    9900012    2    1    2    0    0  0.30928817002E+02  0.22336182204E+01 -0.74254822451E+01  0.59301975505E+02  0.50000057407E+02 0.  0.
        -12    1    1    2    0    0 -0.30928817002E+02 -0.22336182204E+01  0.74254822451E+01  0.31886024495E+02  0.00000000000E+00 0.  1.
         11    1    3    3    0    0 -0.61409614903E+01  0.96406273017E+01  0.59596287550E+00  0.11445884623E+02  0.51100000000E-03 0. -1.
        -11    1    3    3    0    0  0.29737712079E+02 -0.16963468946E+02 -0.99617693239E+01  0.35655681829E+02  0.51100000000E-03 0.  1.
        -12    1    3    3    0    0  0.73320664134E+01  0.95564598647E+01  0.19403242033E+01  0.12200409053E+02  0.00000000000E+00 0.  1.
</event>
<event>
 7    1  0.6065977E-013  0.5930196E+02  0.7816164E-02  0.1266605E+00
        -11   -1    0    0    0    0  0.00000000000E+00  0.00000000000E+00  0.45593999997E+02  0.45594000000E+02  0.51100000000E-03 0.  1.
         11   -1    0    0    0    0 -0.00000000000E+00 -0.00000000000E+00 -0.45593999997E+02  0.45594000000E+02  0.51100000000E-03 0. -1.
    9900012    2    1    2    0    0  0.16461249496E+02 -0.25946448266E+02 -0.85163910311E+01  0.59301955580E+02  0.50000021068E+02 0.  0.
        -12    1    1    2    0    0 -0.16461249496E+02  0.25946448266E+02  0.85163910311E+01  0.31886044420E+02  0.00000000000E+00 0.  1.
         11    1    3    3    0    0  0.23379005451E+01  0.12244200880E+02 -0.99622074498E+01  0.15957186835E+02  0.51100000000E-03 0. -1.
        -11    1    3    3    0    0  0.13561305288E+02 -0.30226587448E+02  0.66826511369E+01  0.33796648005E+02  0.51100000000E-03 0.  1.
         12    1    3    3    0    0  0.56204366265E+00 -0.79640616974E+01 -0.52368347182E+01  0.95481207399E+01  0.00000000000E+00 0. -1.
</event>
<event>
 7    1  0.6065977E-013  0.5930195E+02  0.7816164E-02  0.1266605E+00
        -11   -1    0    0    0    0  0.00000000000E+00  0.00000000000E+00  0.45593999997E+02  0.45594000000E+02  0.51100000000E-03 0. -1.
         11   -1    0    0    0    0 -0.00000000000E+00 -0.00000000000E+00 -0.45593999997E+02  0.45594000000E+02  0.51100000000E-03 0.  1.
    9900012    2    1    2    0    0  0.18789548399E+01 -0.15647514544E+02  0.27719037164E+02  0.59301949696E+02  0.50000010338E+02 0.  0.
        -12    1    1    2    0    0 -0.18789548399E+01  0.15647514544E+02 -0.27719037164E+02  0.31886050304E+02  0.00000000000E+00 0.  1.
         11    1    3    3    0    0 -0.15362469870E+02 -0.38868009529E+01  0.71514892340E+01  0.17385525608E+02  0.51100000000E-03 0. -1.
        -11    1    3    3    0    0  0.17529381125E+02  0.12186699415E+01 -0.26569850667E-01  0.17571712076E+02  0.51100000000E-03 0.  1.
        -12    1    3    3    0    0 -0.28795641513E+00 -0.12979383532E+02  0.20594117781E+02  0.24344712012E+02  0.00000000000E+00 0.  1.
</event>
<event>
 7    1  0.6065977E-013  0.5930194E+02  0.7816164E-02  0.1266605E+00
        -11   -1    0    0    0    0  0.00000000000E+00  0.00000000000E+00  0.45593999997E+02  0.45594000000E+02  0.51100000000E-03 0.  1.
         11   -1    0    0    0    0 -0.00000000000E+00 -0.00000000000E+00 -0.45593999997E+02  0.45594000000E+02  0.51100000000E-03 0. -1.
    9900012    2    1    2    0    0 -0.88348279152E+01  0.24247895815E+02 -0.18727143865E+02  0.59301944222E+02  0.50000000354E+02 0.  0.
        -12    1    1    2    0    0  0.88348279152E+01 -0.24247895815E+02  0.18727143865E+02  0.31886055778E+02  0.00000000000E+00 0.  1.
         11    1    3    3    0    0 -0.32668458397E+01  0.89740113883E+01 -0.16051918000E+02  0.18678041490E+02  0.51100000000E-03 0. -1.
        -11    1    3    3    0    0  0.14827747215E+01 -0.12053603725E+02 -0.25093407522E+01  0.12400998948E+02  0.51100000000E-03 0.  1.
        -12    1    3    3    0    0 -0.70507567969E+01  0.27327488152E+02 -0.16588511292E+00  0.28222903784E+02  0.00000000000E+00 0.  1.
</event>
<event>
 7    1  0.6065977E-013  0.5930194E+02  0.7816164E-02  0.1266605E+00
        -11   -1    0    0    0    0  0.00000000000E+00  0.00000000000E+00  0.45593999997E+02  0.45594000000E+02  0.51100000000E-03 0. -1.
         11   -1    0    0    0    0 -0.00000000000E+00 -0.00000000000E+00 -0.45593999997E+02  0.45594000000E+02  0.51100000000E-03 0.  1.
    9900012    2    1    2    0    0  0.21057485683E+02  0.22512344310E+02  0.81545788478E+01  0.59301944963E+02  0.50000001706E+02 0.  0.
        -12    1    1    2    0    0 -0.21057485683E+02 -0.22512344310E+02 -0.81545788478E+01  0.31886055037E+02  0.00000000000E+00 0.  1.
         11    1    3    3    0    0  0.19522922781E+01  0.82124456390E+01 -0.40673636529E+01  0.93701203759E+01  0.51100000000E-03 0. -1.
        -11    1    3    3    0    0  0.72393662271E+01  0.20840983196E+02  0.23550598736E+02  0.32270508286E+02  0.51100000000E-03 0.  1.
        -12    1    3    3    0    0  0.11865827178E+02 -0.65410845252E+01 -0.11328656235E+02  0.17661316301E+02  0.00000000000E+00 0.  1.
</event>
<event>
 7    1  0.6065977E-013  0.5930193E+02  0.7816164E-02  0.1266605E+00
        -11   -1    0    0    0    0  0.00000000000E+00  0.00000000000E+00  0.45593999997E+02  0.45594000000E+02  0.51100000000E-03 0.  1.
         11   -1    0    0    0    0 -0.00000000000E+00 -0.00000000000E+00 -0.45593999997E+02  0.45594000000E+02  0.51100000000E-03 0. -1.
    9900012    2    1    2    0    0  0.22319014335E+02  0.18394770140E+02 -0.13424447661E+02  0.59301925228E+02  0.49999965713E+02 0.  0.
        -12    1    1    2    0    0 -0.22319014335E+02 -0.18394770140E+02  0.13424447661E+02  0.31886074772E+02  0.00000000000E+00 0.  1.
         11    1    3    3    0    0  0.21494729341E+02  0.26514381426E+01 -0.18006876799E+02  0.28165601822E+02  0.51100000000E-03 0. -1.
        -11    1    3    3    0    0 -0.11203747953E+01  0.64590622531E+01  0.15406955683E+02  0.16743625908E+02  0.51100000000E-03 0.  1.
        -12    1    3    3    0    0  0.19446597900E+01  0.92842697439E+01 -0.10824526544E+02  0.14392697498E+02  0.00000000000E+00 0.  1.
</event>
<event>
 7    1  0.6065977E-013  0.5930194E+02  0.7816164E-02  0.1266605E+00
        -11   -1    0    0    0    0  0.00000000000E+00  0.00000000000E+00  0.45593999997E+02  0.45594000000E+02  0.51100000000E-03 0. -1.
         11   -1    0    0    0    0 -0.00000000000E+00 -0.00000000000E+00 -0.45593999997E+02  0.45594000000E+02  0.51100000000E-03 0.  1.
    9900012    2    1    2    0    0  0.55383984538E+01  0.31260471300E+02 -0.29715298136E+01  0.59301938582E+02  0.49999990069E+02 0.  0.
        -12    1    1    2    0    0 -0.55383984538E+01 -0.31260471300E+02  0.29715298136E+01  0.31886061418E+02  0.00000000000E+00 0.  1.
         11    1    3    3    0    0  0.32541822259E+01 -0.10172474834E+02  0.69264473608E+01  0.12729674761E+02  0.51100000000E-03 0. -1.
        -11    1    3    3    0    0 -0.17851084530E+01  0.15062997569E+02 -0.12646778536E+02  0.19748962391E+02  0.51100000000E-03 0.  1.
         12    1    3    3    0    0  0.40693246809E+01  0.26369948565E+02  0.27488013612E+01  0.26823301430E+02  0.00000000000E+00 0. -1.
</event>
<event>
 7    1  0.6065977E-013  0.5930204E+02  0.7816164E-02  0.1266604E+00
        -11   -1    0    0    0    0  0.00000000000E+00  0.00000000000E+00  0.45593999997E+02  0.45594000000E+02  0.51100000000E-03 0.  1.
         11   -1    0    0    0    0 -0.00000000000E+00 -0.00000000000E+00 -0.45593999997E+02  0.45594000000E+02  0.51100000000E-03 0. -1.
    9900012    2    1    2    0    0 -0.31196053832E+02 -0.26970898103E+01 -0.60204844296E+01  0.59302042261E+02  0.50000179154E+02 0.  0.
        -12    1    1    2    0    0  0.31196053832E+02  0.26970898103E+01  0.60204844296E+01  0.31885957739E+02  0.00000000000E+00 0.  1.
         11    1    3    3    0    0 -0.20954241289E+01 -0.20962875468E+02  0.96770098134E+00  0.21089556553E+02  0.51100000000E-03 0. -1.
        -11    1    3    3    0    0 -0.76064088437E+01  0.48877656450E+01  0.48543652555E+01  0.10262191325E+02  0.51100000000E-03 0.  1.
         12    1    3    3    0    0 -0.21494220860E+02  0.13378020012E+02 -0.11842550666E+02  0.27950294383E+02  0.00000000000E+00 0. -1.
</event>
<event>
 7    1  0.6065977E-013  0.5930193E+02  0.7816164E-02  0.1266605E+00
        -11   -1    0    0    0    0  0.00000000000E+00  0.00000000000E+00  0.45593999997E+02  0.45594000000E+02  0.51100000000E-03 0. -1.
         11   -1    0    0    0    0 -0.00000000000E+00 -0.00000000000E+00 -0.45593999997E+02  0.45594000000E+02  0.51100000000E-03 0.  1.
    9900012    2    1    2    0    0 -0.22443413955E+02  0.14581392678E+02  0.17331976223E+02  0.59301933416E+02  0.49999980647E+02 0.  0.
        -12    1    1    2    0    0  0.22443413955E+02 -0.14581392678E+02 -0.17331976223E+02  0.31886066584E+02  0.00000000000E+00 0.  1.
         11    1    3    3    0    0 -0.39493167482E+01  0.18951421271E+02  0.21817282862E+02  0.29167572794E+02  0.51100000000E-03 0. -1.
        -11    1    3    3    0    0  0.23844407193E+01 -0.62412712172E+01 -0.61833770326E+01  0.91034705327E+01  0.51100000000E-03 0.  1.
         12    1    3    3    0    0 -0.20878537926E+02  0.18712426247E+01  0.16980703932E+01  0.21030890089E+02  0.00000000000E+00 0. -1.
</event>
<event>
 7    1  0.6065977E-013  0.5930187E+02  0.7816164E-02  0.1266605E+00
        -11   -1    0    0    0    0  0.00000000000E+00  0.00000000000E+00  0.45593999997E+02  0.45594000000E+02  0.51100000000E-03 0.  1.
         11   -1    0    0    0    0 -0.00000000000E+00 -0.00000000000E+00 -0.45593999997E+02  0.45594000000E+02  0.51100000000E-03 0. -1.
    9900012    2    1    2    0    0 -0.23667460451E+02 -0.12929350703E+01 -0.21328507061E+02  0.59301865416E+02  0.49999856630E+02 0.  0.
        -12    1    1    2    0    0  0.23667460451E+02  0.12929350703E+01  0.21328507061E+02  0.31886134584E+02  0.00000000000E+00 0.  1.
         11    1    3    3    0    0 -0.19804687766E+02 -0.16358673117E+01  0.86989705713E+00  0.19891164886E+02  0.51100000000E-03 0. -1.
        -11    1    3    3    0    0  0.90810909070E+01  0.11867372559E+02 -0.76745888849E+01  0.16798811218E+02  0.51100000000E-03 0.  1.
        -12    1    3    3    0    0 -0.12943863591E+02 -0.11524440318E+02 -0.14523815233E+02  0.22611889312E+02  0.00000000000E+00 0.  1.
</event>
<event>
 7    1  0.6065977E-013  0.5930204E+02  0.7816164E-02  0.1266604E+00
        -11   -1    0    0    0    0  0.00000000000E+00  0.00000000000E+00  0.45593999997E+02  0.45594000000E+02  0.51100000000E-03 0. -1.
         11   -1    0    0    0    0 -0.00000000000E+00 -0.00000000000E+00 -0.45593999997E+02  0.45594000000E+02  0.51100000000E-03 0.  1.
    9900012    2    1    2    0    0 -0.18738611369E-01  0.10458750128E+02  0.30121896943E+02  0.59302039440E+02  0.50000174009E+02 0.  0.
        -12    1    1    2    0    0  0.18738611369E-01 -0.10458750128E+02 -0.30121896943E+02  0.31885960560E+02  0.00000000000E+00 0.  1.
         11    1    3    3    0    0 -0.95886649570E+01  0.18093480681E+02  0.28325935550E+00  0.20479179059E+02  0.51100000000E-03 0. -1.
        -11    1    3    3    0    0  0.12832940055E+02 -0.22658162635E+01  0.29816779801E+02  0.32540108048E+02  0.51100000000E-03 0.  1.
        -12    1    3    3    0    0 -0.32630137091E+01 -0.53689142896E+01  0.21857786207E-01  0.62827523330E+01  0.00000000000E+00 0.  1.
</event>
<event>
 7    1  0.6065977E-013  0.5930191E+02  0.7816164E-02  0.1266605E+00
        -11   -1    0    0    0    0  0.00000000000E+00  0.00000000000E+00  0.45593999997E+02  0.45594000000E+02  0.51100000000E-03 0. -1.
         11   -1    0    0    0    0 -0.00000000000E+00 -0.00000000000E+00 -0.45593999997E+02  0.45594000000E+02  0.51100000000E-03 0.  1.
    9900012    2    1    2    0    0 -0.28976181046E+02  0.11148629041E+02  0.72671677556E+01  0.59301910169E+02  0.49999938250E+02 0.  0.
        -12    1    1    2    0    0  0.28976181046E+02 -0.11148629041E+02 -0.72671677556E+01  0.31886089831E+02  0.00000000000E+00 0.  1.
         11    1    3    3    0    0 -0.15227857463E+02 -0.19683387050E+02  0.35140247593E+01  0.25133080570E+02  0.51100000000E-03 0. -1.
        -11    1    3    3    0    0 -0.52124339559E+01  0.10333726840E+02  0.29774276778E+01  0.11950751189E+02  0.51100000000E-03 0.  1.
         12    1    3    3    0    0 -0.85358896273E+01  0.20498289252E+02  0.77571531854E+00  0.22218078410E+02  0.00000000000E+00 0. -1.
</event>
<event>
 7    1  0.6065977E-013  0.5930195E+02  0.7816164E-02  0.1266605E+00
        -11   -1    0    0    0    0  0.00000000000E+00  0.00000000000E+00  0.45593999997E+02  0.45594000000E+02  0.51100000000E-03 0.  1.
         11   -1    0    0    0    0 -0.00000000000E+00 -0.00000000000E+00 -0.45593999997E+02  0.45594000000E+02  0.51100000000E-03 0. -1.
    9900012    2    1    2    0    0  0.29491575447E+02  0.12011674877E+02 -0.16391637771E+01  0.59301949546E+02  0.50000010063E+02 0.  0.
        -12    1    1    2    0    0 -0.29491575447E+02 -0.12011674877E+02  0.16391637771E+01  0.31886050454E+02  0.00000000000E+00 0.  1.
         11    1    3    3    0    0  0.24886472406E+02 -0.60311839017E+01 -0.37412623487E+00  0.25609600910E+02  0.51100000000E-03 0. -1.
        -11    1    3    3    0    0 -0.23876992285E+01  0.22401429608E+02  0.53158478317E+01  0.23146995367E+02  0.51100000000E-03 0.  1.
        -12    1    3    3    0    0  0.69928022694E+01 -0.43585708293E+01 -0.65808853739E+01  0.10545353268E+02  0.00000000000E+00 0.  1.
</event>
<event>
 7    1  0.6065977E-013  0.5930195E+02  0.7816164E-02  0.1266605E+00
        -11   -1    0    0    0    0  0.00000000000E+00  0.00000000000E+00  0.45593999997E+02  0.45594000000E+02  0.51100000000E-03 0. -1.
         11   -1    0    0    0    0 -0.00000000000E+00 -0.00000000000E+00 -0.45593999997E+02  0.45594000000E+02  0.51100000000E-03 0.  1.
    9900012    2    1    2    0    0  0.49258837007E+01 -0.15310754025E+02  0.27532468568E+02  0.59301947493E+02  0.50000006319E+02 0.  0.
        -12    1    1    2    0    0 -0.49258837007E+01  0.15310754025E+02 -0.27532468568E+02  0.31886052507E+02  0.00000000000E+00 0.  1.
         11    1    3    3    0    0 -0.30237951229E+00  0.32530557469E+01  0.16615290513E+02  0.16933448679E+02  0.51100000000E-03 0. -1.
        -11    1    3    3    0    0  0.10387295542E+02 -0.27840862084E+02  0.11183045919E+02  0.31750118528E+02  0.51100000000E-03 0.  1.
        -12    1    3    3    0    0 -0.51590323290E+01  0.92770523124E+01 -0.26586786417E+00  0.10618380286E+02  0.00000000000E+00 0.  1.
</event>
<event>
 7    1  0.6065977E-013  0.5930194E+02  0.7816164E-02  0.1266605E+00
        -11   -1    0    0    0    0  0.00000000000E+00  0.00000000000E+00  0.45593999997E+02  0.45594000000E+02  0.51100000000E-03 0. -1.
         11   -1    0    0    0    0 -0.00000000000E+00 -0.00000000000E+00 -0.45593999997E+02  0.45594000000E+02  0.51100000000E-03 0.  1.
    9900012    2    1    2    0    0  0.30677002390E+02 -0.67492325470E+01  0.54854814688E+01  0.59301935292E+02  0.49999984069E+02 0.  0.
        -12    1    1    2    0    0 -0.30677002390E+02  0.67492325470E+01 -0.54854814688E+01  0.31886064708E+02  0.00000000000E+00 0.  1.
         11    1    3    3    0    0  0.18890954234E+02  0.64492939403E+01  0.17889711657E+02  0.26804912379E+02  0.51100000000E-03 0. -1.
        -11    1    3    3    0    0  0.11628888742E+02 -0.19784958986E+02 -0.11997312825E+02  0.25896161313E+02  0.51100000000E-03 0.  1.
        -12    1    3    3    0    0  0.15715941385E+00  0.65864324983E+01 -0.40691736318E+00  0.66008616011E+01  0.00000000000E+00 0.  1.
</event>
<event>
 7    1  0.6065977E-013  0.5930181E+02  0.7816164E-02  0.1266605E+00
        -11   -1    0    0    0    0  0.00000000000E+00  0.00000000000E+00  0.45593999997E+02  0.45594000000E+02  0.51100000000E-03 0.  1.
         11   -1    0    0    0    0 -0.00000000000E+00 -0.00000000000E+00 -0.45593999997E+02  0.45594000000E+02  0.51100000000E-03 0. -1.
    9900012    2    1    2    0    0 -0.10278516296E+02  0.30043426809E+02  0.29109724913E+01  0.59301809376E+02  0.49999754427E+02 0.  0.
        -12    1    1    2    0    0  0.10278516296E+02 -0.30043426809E+02 -0.29109724913E+01  0.31886190624E+02  0.00000000000E+00 0.  1.
         11    1    3    3    0    0 -0.78750931531E+01  0.11378960281E+02 -0.18362141279E+02  0.22992739329E+02  0.51100000000E-03 0. -1.
        -11    1    3    3    0    0 -0.89797197260E+01  0.75663441930E+01  0.20199033093E+02  0.23364200584E+02  0.51100000000E-03 0.  1.
         12    1    3    3    0    0  0.65762965833E+01  0.11098122335E+02  0.10740806778E+01  0.12944869463E+02  0.00000000000E+00 0. -1.
</event>
<event>
 7    1  0.6065977E-013  0.5930197E+02  0.7816164E-02  0.1266605E+00
        -11   -1    0    0    0    0  0.00000000000E+00  0.00000000000E+00  0.45593999997E+02  0.45594000000E+02  0.51100000000E-03 0.  1.
         11   -1    0    0    0    0 -0.00000000000E+00 -0.00000000000E+00 -0.45593999997E+02  0.45594000000E+02  0.51100000000E-03 0. -1.
    9900012    2    1    2    0    0 -0.20776405358E+02  0.24013253708E+02 -0.29023282281E+01  0.59301970420E+02  0.50000048134E+02 0.  0.
        -12    1    1    2    0    0  0.20776405358E+02 -0.24013253708E+02  0.29023282281E+01  0.31886029580E+02  0.00000000000E+00 0.  1.
         11    1    3    3    0    0 -0.28015875320E+02  0.76978573921E+01  0.25380507362E+01  0.29164841508E+02  0.51100000000E-03 0. -1.
        -11    1    3    3    0    0  0.55345812009E+01  0.20235735491E+02  0.24916719382E+01  0.21126405497E+02  0.51100000000E-03 0.  1.
        -12    1    3    3    0    0  0.17048887619E+01 -0.39203391751E+01 -0.79320509026E+01  0.90107234149E+01  0.00000000000E+00 0.  1.
</event>
<event>
 7    1  0.6065977E-013  0.5930188E+02  0.7816164E-02  0.1266605E+00
        -11   -1    0    0    0    0  0.00000000000E+00  0.00000000000E+00  0.45593999997E+02  0.45594000000E+02  0.51100000000E-03 0.  1.
         11   -1    0    0    0    0 -0.00000000000E+00 -0.00000000000E+00 -0.45593999997E+02  0.45594000000E+02  0.51100000000E-03 0. -1.
    9900012    2    1    2    0    0 -0.17357583852E+02 -0.17986369980E+02 -0.19797208804E+02  0.59301879215E+02  0.49999881797E+02 0.  0.
        -12    1    1    2    0    0  0.17357583852E+02  0.17986369980E+02  0.19797208804E+02  0.31886120785E+02  0.00000000000E+00 0.  1.
         11    1    3    3    0    0  0.70744136311E+01 -0.13236548549E+01  0.37703925629E+01  0.81249769685E+01  0.51100000000E-03 0.  1.
        -11    1    3    3    0    0 -0.13669095380E+02 -0.15408858583E+02 -0.31577792945E+02  0.37701911077E+02  0.51100000000E-03 0. -1.
         12    1    3    3    0    0 -0.10762902103E+02 -0.12538565424E+01  0.80101915775E+01  0.13474991170E+02  0.00000000000E+00 0. -1.
</event>
<event>
 7    1  0.6065977E-013  0.5930192E+02  0.7816164E-02  0.1266605E+00
        -11   -1    0    0    0    0  0.00000000000E+00  0.00000000000E+00  0.45593999997E+02  0.45594000000E+02  0.51100000000E-03 0. -1.
         11   -1    0    0    0    0 -0.00000000000E+00 -0.00000000000E+00 -0.45593999997E+02  0.45594000000E+02  0.51100000000E-03 0.  1.
    9900012    2    1    2    0    0  0.26518394279E+02 -0.14888778578E+02  0.95823189743E+01  0.59301924675E+02  0.49999964706E+02 0.  0.
        -12    1    1    2    0    0 -0.26518394279E+02  0.14888778578E+02 -0.95823189743E+01  0.31886075325E+02  0.00000000000E+00 0.  1.
         11    1    3    3    0    0  0.29022438660E+01 -0.23935338322E+02  0.46566224658E+01  0.24556212516E+02  0.51100000000E-03 0. -1.
        -11    1    3    3    0    0  0.11269485608E+02  0.14437697445E+02 -0.37854821896E+01  0.18702360520E+02  0.51100000000E-03 0.  1.
         12    1    3    3    0    0  0.12346664805E+02 -0.53911377000E+01  0.87111786982E+01  0.16043351639E+02  0.00000000000E+00 0. -1.
</event>
<event>
 7    1  0.6065977E-013  0.5930196E+02  0.7816164E-02  0.1266605E+00
        -11   -1    0    0    0    0  0.00000000000E+00  0.00000000000E+00  0.45593999997E+02  0.45594000000E+02  0.51100000000E-03 0.  1.
         11   -1    0    0    0    0 -0.00000000000E+00 -0.00000000000E+00 -0.45593999997E+02  0.45594000000E+02  0.51100000000E-03 0. -1.
    9900012    2    1    2    0    0  0.56858502867E+01  0.22713071711E+02 -0.21645028158E+02  0.59301956595E+02  0.50000022920E+02 0.  0.
        -12    1    1    2    0    0 -0.56858502867E+01 -0.22713071711E+02  0.21645028158E+02  0.31886043405E+02  0.00000000000E+00 0.  1.
         11    1    3    3    0    0  0.80278029667E+01  0.28572385716E+00  0.23349951526E+01  0.83653727484E+01  0.51100000000E-03 0. -1.
        -11    1    3    3    0    0  0.79301410787E+01 -0.30477264772E+01 -0.21782650774E+02  0.23380753820E+02  0.51100000000E-03 0.  1.
         12    1    3    3    0    0 -0.10272093759E+02  0.25475074331E+02 -0.21973725369E+01  0.27555830026E+02  0.00000000000E+00 0. -1.
</event>
<event>
 7    1  0.6065977E-013  0.5930196E+02  0.7816164E-02  0.1266605E+00
        -11   -1    0    0    0    0  0.00000000000E+00  0.00000000000E+00  0.45593999997E+02  0.45594000000E+02  0.51100000000E-03 0. -1.
         11   -1    0    0    0    0 -0.00000000000E+00 -0.00000000000E+00 -0.45593999997E+02  0.45594000000E+02  0.51100000000E-03 0.  1.
    9900012    2    1    2    0    0  0.30119601642E+02  0.55117126098E+01 -0.88966399781E+01  0.59301959452E+02  0.50000028130E+02 0.  0.
        -12    1    1    2    0    0 -0.30119601642E+02 -0.55117126098E+01  0.88966399781E+01  0.31886040548E+02  0.00000000000E+00 0.  1.
         11    1    3    3    0    0  0.25676196577E+02  0.18671001039E+02 -0.17929579307E+02  0.36460158596E+02  0.51100000000E-03 0. -1.
        -11    1    3    3    0    0 -0.48211624356E+01 -0.45502348476E+01 -0.99233892425E+00  0.67032067849E+01  0.51100000000E-03 0.  1.
         12    1    3    3    0    0  0.92645674999E+01 -0.86090535815E+01  0.10025278253E+02  0.16138594071E+02  0.00000000000E+00 0. -1.
</event>
<event>
 7    1  0.6065977E-013  0.5930195E+02  0.7816164E-02  0.1266605E+00
        -11   -1    0    0    0    0  0.00000000000E+00  0.00000000000E+00  0.45593999997E+02  0.45594000000E+02  0.51100000000E-03 0. -1.
         11   -1    0    0    0    0 -0.00000000000E+00 -0.00000000000E+00 -0.45593999997E+02  0.45594000000E+02  0.51100000000E-03 0.  1.
    9900012    2    1    2    0    0  0.10891032033E+02 -0.11157471327E+02  0.27813965716E+02  0.59301946090E+02  0.50000003760E+02 0.  0.
        -12    1    1    2    0    0 -0.10891032033E+02  0.11157471327E+02 -0.27813965716E+02  0.31886053910E+02  0.00000000000E+00 0.  1.
         11    1    3    3    0    0 -0.79130387466E+01 -0.17912059311E+02  0.25944569157E+02  0.32505056837E+02  0.51100000000E-03 0. -1.
        -11    1    3    3    0    0  0.21815026512E+02  0.41143575567E+01  0.34985340324E+01  0.22473608087E+02  0.51100000000E-03 0.  1.
        -12    1    3    3    0    0 -0.30109557324E+01  0.26402304273E+01 -0.16291374735E+01  0.43232811659E+01  0.00000000000E+00 0.  1.
</event>
<event>
 7    1  0.6065977E-013  0.5930195E+02  0.7816164E-02  0.1266605E+00
        -11   -1    0    0    0    0  0.00000000000E+00  0.00000000000E+00  0.45593999997E+02  0.45594000000E+02  0.51100000000E-03 0.  1.
         11   -1    0    0    0    0 -0.00000000000E+00 -0.00000000000E+00 -0.45593999997E+02  0.45594000000E+02  0.51100000000E-03 0. -1.
    9900012    2    1    2    0    0 -0.82698450522E+01  0.12879197386E+01 -0.30768024229E+02  0.59301946788E+02  0.50000005035E+02 0.  0.
        -12    1    1    2    0    0  0.82698450522E+01 -0.12879197386E+01  0.30768024229E+02  0.31886053212E+02  0.00000000000E+00 0.  1.
         11    1    3    3    0    0  0.65875666110E+01 -0.28739098777E+00 -0.37914633837E+02  0.38483737952E+02  0.51100000000E-03 0. -1.
        -11    1    3    3    0    0 -0.14351451077E+02  0.10860456937E+01  0.78084387599E+00  0.14413651885E+02  0.51100000000E-03 0.  1.
         12    1    3    3    0    0 -0.50596058666E+00  0.48926503271E+00  0.63657657320E+01  0.64045569513E+01  0.00000000000E+00 0. -1.
</event>
<event>
 7    1  0.6065977E-013  0.5930194E+02  0.7816164E-02  0.1266605E+00
        -11   -1    0    0    0    0  0.00000000000E+00  0.00000000000E+00  0.45593999997E+02  0.45594000000E+02  0.51100000000E-03 0. -1.
         11   -1    0    0    0    0 -0.00000000000E+00 -0.00000000000E+00 -0.45593999997E+02  0.45594000000E+02  0.51100000000E-03 0.  1.
    9900012    2    1    2    0    0 -0.23980534596E+02  0.15482365004E+02 -0.14210957343E+02  0.59301937618E+02  0.49999988310E+02 0.  0.
        -12    1    1    2    0    0  0.23980534596E+02 -0.15482365004E+02  0.14210957343E+02  0.31886062382E+02  0.00000000000E+00 0.  1.
         11    1    3    3    0    0 -0.14646387727E+02  0.71614411989E+01 -0.32310630887E+01  0.16620550004E+02  0.51100000000E-03 0. -1.
        -11    1    3    3    0    0  0.12165221419E+02  0.61639405903E+01 -0.15458980664E+02  0.20614724331E+02  0.51100000000E-03 0.  1.
        -12    1    3    3    0    0 -0.21499368288E+02  0.21569832148E+01  0.44790864098E+01  0.22066663283E+02  0.00000000000E+00 0.  1.
</event>
<event>
 7    1  0.6065977E-013  0.5930194E+02  0.7816164E-02  0.1266605E+00
        -11   -1    0    0    0    0  0.00000000000E+00  0.00000000000E+00  0.45593999997E+02  0.45594000000E+02  0.51100000000E-03 0.  1.
         11   -1    0    0    0    0 -0.00000000000E+00 -0.00000000000E+00 -0.45593999997E+02  0.45594000000E+02  0.51100000000E-03 0. -1.
    9900012    2    1    2    0    0  0.15195250850E+02 -0.97125909307E+01 -0.26296216119E+02  0.59301936380E+02  0.49999986053E+02 0.  0.
        -12    1    1    2    0    0 -0.15195250850E+02  0.97125909307E+01  0.26296216119E+02  0.31886063620E+02  0.00000000000E+00 0.  1.
         11    1    3    3    0    0  0.18290974426E+02 -0.20931099315E+02 -0.27120223959E+02  0.38835257329E+02  0.51100000000E-03 0. -1.
        -11    1    3    3    0    0 -0.44024339277E+01  0.13322187201E+02  0.55839244566E+01  0.15101069793E+02  0.51100000000E-03 0.  1.
        -12    1    3    3    0    0  0.13067103516E+01 -0.21036788170E+01 -0.47599166166E+01  0.53656092576E+01  0.00000000000E+00 0.  1.
</event>
<event>
 7    1  0.6065977E-013  0.5930194E+02  0.7816164E-02  0.1266605E+00
        -11   -1    0    0    0    0  0.00000000000E+00  0.00000000000E+00  0.45593999997E+02  0.45594000000E+02  0.51100000000E-03 0.  1.
         11   -1    0    0    0    0 -0.00000000000E+00 -0.00000000000E+00 -0.45593999997E+02  0.45594000000E+02  0.51100000000E-03 0. -1.
    9900012    2    1    2    0    0  0.25290118390E+02  0.41863150959E+01 -0.18963265226E+02  0.59301941129E+02  0.49999994714E+02 0.  0.
        -12    1    1    2    0    0 -0.25290118390E+02 -0.41863150959E+01  0.18963265226E+02  0.31886058871E+02  0.00000000000E+00 0.  1.
         11    1    3    3    0    0  0.19913173210E+02 -0.16410915696E+02 -0.17081642845E+02  0.30945680536E+02  0.51100000000E-03 0. -1.
        -11    1    3    3    0    0  0.10718061412E+02  0.10000043760E+02 -0.59370083664E+01  0.15815365447E+02  0.51100000000E-03 0.  1.
         12    1    3    3    0    0 -0.53411162323E+01  0.10597187031E+02  0.40553859850E+01  0.12540895146E+02  0.00000000000E+00 0. -1.
</event>
<event>
 7    1  0.6065977E-013  0.5930194E+02  0.7816164E-02  0.1266605E+00
        -11   -1    0    0    0    0  0.00000000000E+00  0.00000000000E+00  0.45593999997E+02  0.45594000000E+02  0.51100000000E-03 0.  1.
         11   -1    0    0    0    0 -0.00000000000E+00 -0.00000000000E+00 -0.45593999997E+02  0.45594000000E+02  0.51100000000E-03 0. -1.
    9900012    2    1    2    0    0  0.19595285931E+02 -0.24429520333E+02 -0.59953160295E+01  0.59301944918E+02  0.50000001624E+02 0.  0.
        -12    1    1    2    0    0 -0.19595285931E+02  0.24429520333E+02  0.59953160295E+01  0.31886055082E+02  0.00000000000E+00 0.  1.
         11    1    3    3    0    0 -0.10001847768E+02 -0.11543345187E+02 -0.11948757242E+02  0.19392229804E+02  0.51100000000E-03 0. -1.
        -11    1    3    3    0    0  0.31093737306E+02 -0.16624634352E+02  0.41672067126E+01  0.35504430415E+02  0.51100000000E-03 0.  1.
        -12    1    3    3    0    0 -0.14966036078E+01  0.37384592069E+01  0.17862344994E+01  0.44052846999E+01  0.00000000000E+00 0.  1.
</event>
<event>
 7    1  0.6065977E-013  0.5930209E+02  0.7816164E-02  0.1266604E+00
        -11   -1    0    0    0    0  0.00000000000E+00  0.00000000000E+00  0.45593999997E+02  0.45594000000E+02  0.51100000000E-03 0. -1.
         11   -1    0    0    0    0 -0.00000000000E+00 -0.00000000000E+00 -0.45593999997E+02  0.45594000000E+02  0.51100000000E-03 0.  1.
    9900012    2    1    2    0    0  0.14429673689E+02  0.22063670898E+02  0.17935722924E+02  0.59302090681E+02  0.50000267460E+02 0.  0.
        -12    1    1    2    0    0 -0.14429673689E+02 -0.22063670898E+02 -0.17935722924E+02  0.31885909319E+02  0.00000000000E+00 0.  1.
         11    1    3    3    0    0  0.42831382436E+01  0.41334814918E+01  0.67471583162E+01  0.89975045464E+01  0.51100000000E-03 0. -1.
        -11    1    3    3    0    0  0.16483744422E+02 -0.61534198544E+01 -0.75423327210E+01  0.19143280524E+02  0.51100000000E-03 0.  1.
        -12    1    3    3    0    0 -0.63372089762E+01  0.24083609261E+02  0.18730897329E+02  0.31161305611E+02  0.00000000000E+00 0.  1.
</event>
<event>
 7    1  0.6065977E-013  0.5930194E+02  0.7816164E-02  0.1266605E+00
        -11   -1    0    0    0    0  0.00000000000E+00  0.00000000000E+00  0.45593999997E+02  0.45594000000E+02  0.51100000000E-03 0.  1.
         11   -1    0    0    0    0 -0.00000000000E+00 -0.00000000000E+00 -0.45593999997E+02  0.45594000000E+02  0.51100000000E-03 0. -1.
    9900012    2    1    2    0    0  0.21927208470E+02 -0.13174333599E+02 -0.19035635103E+02  0.59301938142E+02  0.49999989265E+02 0.  0.
        -12    1    1    2    0    0 -0.21927208470E+02  0.13174333599E+02  0.19035635103E+02  0.31886061858E+02  0.00000000000E+00 0.  1.
         11    1    3    3    0    0  0.54680520092E+00  0.14114319155E+02  0.11685683460E+00  0.14125390505E+02  0.51100000000E-03 0. -1.
        -11    1    3    3    0    0  0.22855135265E+02 -0.23952325012E+02 -0.88822775765E+01  0.34277776134E+02  0.51100000000E-03 0.  1.
        -12    1    3    3    0    0 -0.14747319960E+01 -0.33363277415E+01 -0.10270214361E+02  0.10898771503E+02  0.00000000000E+00 0.  1.
</event>
<event>
 7    1  0.6065977E-013  0.5930195E+02  0.7816164E-02  0.1266605E+00
        -11   -1    0    0    0    0  0.00000000000E+00  0.00000000000E+00  0.45593999997E+02  0.45594000000E+02  0.51100000000E-03 0.  1.
         11   -1    0    0    0    0 -0.00000000000E+00 -0.00000000000E+00 -0.45593999997E+02  0.45594000000E+02  0.51100000000E-03 0. -1.
    9900012    2    1    2    0    0  0.69067299800E+01  0.89027735736E+01 -0.29828813577E+02  0.59301946376E+02  0.50000004282E+02 0.  0.
        -12    1    1    2    0    0 -0.69067299800E+01 -0.89027735736E+01  0.29828813577E+02  0.31886053624E+02  0.00000000000E+00 0.  1.
         11    1    3    3    0    0 -0.20683967288E+02  0.25483482051E+01 -0.20625412741E+02  0.29321122631E+02  0.51100000000E-03 0. -1.
        -11    1    3    3    0    0  0.10380321078E+02  0.36946007043E+01 -0.47978696974E+01  0.12017516131E+02  0.51100000000E-03 0.  1.
         12    1    3    3    0    0  0.17210376189E+02  0.26598246642E+01 -0.44055311382E+01  0.17963307614E+02  0.00000000000E+00 0. -1.
</event>
<event>
 7    1  0.6065977E-013  0.5930201E+02  0.7816164E-02  0.1266605E+00
        -11   -1    0    0    0    0  0.00000000000E+00  0.00000000000E+00  0.45593999997E+02  0.45594000000E+02  0.51100000000E-03 0.  1.
         11   -1    0    0    0    0 -0.00000000000E+00 -0.00000000000E+00 -0.45593999997E+02  0.45594000000E+02  0.51100000000E-03 0. -1.
    9900012    2    1    2    0    0 -0.14944999663E+02  0.12549175319E+02 -0.25216693298E+02  0.59302008766E+02  0.50000118067E+02 0.  0.
        -12    1    1    2    0    0  0.14944999663E+02 -0.12549175319E+02  0.25216693298E+02  0.31885991234E+02  0.00000000000E+00 0.  1.
         11    1    3    3    0    0  0.27642769571E+01 -0.13015886426E+02 -0.16968094467E+01  0.13413936377E+02  0.51100000000E-03 0. -1.
        -11    1    3    3    0    0 -0.29563167550E+01  0.24419637358E+02 -0.15099325424E+02  0.28862573101E+02  0.51100000000E-03 0.  1.
         12    1    3    3    0    0 -0.14752959865E+02  0.11454243864E+01 -0.84205584274E+01  0.17025499289E+02  0.00000000000E+00 0. -1.
</event>
<event>
 7    1  0.6065977E-013  0.5930192E+02  0.7816164E-02  0.1266605E+00
        -11   -1    0    0    0    0  0.00000000000E+00  0.00000000000E+00  0.45593999997E+02  0.45594000000E+02  0.51100000000E-03 0.  1.
         11   -1    0    0    0    0 -0.00000000000E+00 -0.00000000000E+00 -0.45593999997E+02  0.45594000000E+02  0.51100000000E-03 0. -1.
    9900012    2    1    2    0    0 -0.28447584989E+02  0.11163612512E+02 -0.91011416098E+01  0.59301919735E+02  0.49999955697E+02 0.  0.
        -12    1    1    2    0    0  0.28447584989E+02 -0.11163612512E+02  0.91011416098E+01  0.31886080265E+02  0.00000000000E+00 0.  1.
         11    1    3    3    0    0 -0.13823462602E+02  0.18015339041E+02  0.15035739082E+02  0.27234426910E+02  0.51100000000E-03 0. -1.
        -11    1    3    3    0    0 -0.15477610653E+02 -0.58587437700E+01 -0.13519176717E+02  0.21369357723E+02  0.51100000000E-03 0.  1.
         12    1    3    3    0    0  0.85348826624E+00 -0.99298275984E+00 -0.10617703975E+02  0.10698135103E+02  0.00000000000E+00 0. -1.
</event>
<event>
 7    1  0.6065977E-013  0.5930195E+02  0.7816164E-02  0.1266605E+00
        -11   -1    0    0    0    0  0.00000000000E+00  0.00000000000E+00  0.45593999997E+02  0.45594000000E+02  0.51100000000E-03 0.  1.
         11   -1    0    0    0    0 -0.00000000000E+00 -0.00000000000E+00 -0.45593999997E+02  0.45594000000E+02  0.51100000000E-03 0. -1.
    9900012    2    1    2    0    0  0.19436904883E+02 -0.21397421754E+02 -0.13456501320E+02  0.59301947298E+02  0.50000005964E+02 0.  0.
        -12    1    1    2    0    0 -0.19436904883E+02  0.21397421754E+02  0.13456501320E+02  0.31886052702E+02  0.00000000000E+00 0.  1.
         11    1    3    3    0    0  0.17723094269E+02  0.25723709018E+01  0.36997191643E+00  0.17912622422E+02  0.51100000000E-03 0.  1.
        -11    1    3    3    0    0 -0.10015185162E+02 -0.16266697946E+02 -0.18506616092E+02  0.26597071932E+02  0.51100000000E-03 0. -1.
         12    1    3    3    0    0  0.11728995776E+02 -0.77030947098E+01  0.46801428564E+01  0.14792252944E+02  0.00000000000E+00 0. -1.
</event>
<event>
 7    1  0.6065977E-013  0.5930189E+02  0.7816164E-02  0.1266605E+00
        -11   -1    0    0    0    0  0.00000000000E+00  0.00000000000E+00  0.45593999997E+02  0.45594000000E+02  0.51100000000E-03 0.  1.
         11   -1    0    0    0    0 -0.00000000000E+00 -0.00000000000E+00 -0.45593999997E+02  0.45594000000E+02  0.51100000000E-03 0. -1.
    9900012    2    1    2    0    0  0.19516398778E+02 -0.24985697101E+02 -0.33984386483E+01  0.59301885998E+02  0.49999894168E+02 0.  0.
        -12    1    1    2    0    0 -0.19516398778E+02  0.24985697101E+02  0.33984386483E+01  0.31886114002E+02  0.00000000000E+00 0.  1.
         11    1    3    3    0    0 -0.52173308549E+01  0.47974196630E-02 -0.34774056819E+01  0.62700011804E+01  0.51100000000E-03 0. -1.
        -11    1    3    3    0    0  0.24511535439E+02 -0.33374393202E+02 -0.70747110367E+01  0.42008535177E+02  0.51100000000E-03 0.  1.
        -12    1    3    3    0    0  0.22219419385E+00  0.83838986815E+01  0.71536780704E+01  0.11023349640E+02  0.00000000000E+00 0.  1.
</event>
<event>
 7    1  0.6065977E-013  0.5930194E+02  0.7816164E-02  0.1266605E+00
        -11   -1    0    0    0    0  0.00000000000E+00  0.00000000000E+00  0.45593999997E+02  0.45594000000E+02  0.51100000000E-03 0. -1.
         11   -1    0    0    0    0 -0.00000000000E+00 -0.00000000000E+00 -0.45593999997E+02  0.45594000000E+02  0.51100000000E-03 0.  1.
    9900012    2    1    2    0    0  0.14125850194E+02  0.26830878434E+02  0.98633223167E+01  0.59301940219E+02  0.49999993053E+02 0.  0.
        -12    1    1    2    0    0 -0.14125850194E+02 -0.26830878434E+02 -0.98633223167E+01  0.31886059781E+02  0.00000000000E+00 0.  1.
         11    1    3    3    0    0 -0.13869880315E+02  0.56967952563E+01  0.44931128917E+01  0.15652958822E+02  0.51100000000E-03 0.  1.
        -11    1    3    3    0    0  0.28296482814E+02  0.25611533476E+02  0.71344872041E+01  0.38827084549E+02  0.51100000000E-03 0. -1.
         12    1    3    3    0    0 -0.30075230439E+00 -0.44774502987E+01 -0.17642777790E+01  0.48218968474E+01  0.00000000000E+00 0. -1.
</event>
<event>
 7    1  0.6065977E-013  0.5930193E+02  0.7816164E-02  0.1266605E+00
        -11   -1    0    0    0    0  0.00000000000E+00  0.00000000000E+00  0.45593999997E+02  0.45594000000E+02  0.51100000000E-03 0. -1.
         11   -1    0    0    0    0 -0.00000000000E+00 -0.00000000000E+00 -0.45593999997E+02  0.45594000000E+02  0.51100000000E-03 0.  1.
    9900012    2    1    2    0    0  0.17336796048E+02 -0.73879946518E+01  0.25721090189E+02  0.59301930272E+02  0.49999974914E+02 0.  0.
        -12    1    1    2    0    0 -0.17336796048E+02  0.73879946518E+01 -0.25721090189E+02  0.31886069728E+02  0.00000000000E+00 0.  1.
         11    1    3    3    0    0  0.87481816006E+01 -0.74925682940E+01  0.18211800924E+02  0.21548525567E+02  0.51100000000E-03 0. -1.
        -11    1    3    3    0    0  0.13927679926E+02  0.80172767880E+01 -0.91943650905E+01  0.18514679174E+02  0.51100000000E-03 0.  1.
        -12    1    3    3    0    0 -0.53390654791E+01 -0.79127031458E+01  0.16703654355E+02  0.19238725531E+02  0.00000000000E+00 0.  1.
</event>
<event>
 7    1  0.6065977E-013  0.5930191E+02  0.7816164E-02  0.1266605E+00
        -11   -1    0    0    0    0  0.00000000000E+00  0.00000000000E+00  0.45593999997E+02  0.45594000000E+02  0.51100000000E-03 0.  1.
         11   -1    0    0    0    0 -0.00000000000E+00 -0.00000000000E+00 -0.45593999997E+02  0.45594000000E+02  0.51100000000E-03 0. -1.
    9900012    2    1    2    0    0 -0.21895681389E+02  0.20045302976E+02 -0.11639908664E+02  0.59301913558E+02  0.49999944430E+02 0.  0.
        -12    1    1    2    0    0  0.21895681389E+02 -0.20045302976E+02  0.11639908664E+02  0.31886086442E+02  0.00000000000E+00 0.  1.
         11    1    3    3    0    0 -0.11951835642E+02 -0.13739366985E+02 -0.28338850414E+01  0.18429527532E+02  0.51100000000E-03 0. -1.
        -11    1    3    3    0    0 -0.95753082336E+01  0.18417354016E+02 -0.13545715432E+02  0.24786525847E+02  0.51100000000E-03 0.  1.
        -12    1    3    3    0    0 -0.36853751392E+00  0.15367315945E+02  0.47396918089E+01  0.16085860179E+02  0.00000000000E+00 0.  1.
</event>
<event>
 7    1  0.6065977E-013  0.5930187E+02  0.7816164E-02  0.1266605E+00
        -11   -1    0    0    0    0  0.00000000000E+00  0.00000000000E+00  0.45593999997E+02  0.45594000000E+02  0.51100000000E-03 0. -1.
         11   -1    0    0    0    0 -0.00000000000E+00 -0.00000000000E+00 -0.45593999997E+02  0.45594000000E+02  0.51100000000E-03 0.  1.
    9900012    2    1    2    0    0  0.83683211886E+01  0.14605732164E+02  0.27080788943E+02  0.59301869138E+02  0.49999863419E+02 0.  0.
        -12    1    1    2    0    0 -0.83683211886E+01 -0.14605732164E+02 -0.27080788943E+02  0.31886130862E+02  0.00000000000E+00 0.  1.
         11    1    3    3    0    0  0.73071020079E+01  0.21660677435E+02  0.75962736667E+01  0.24089044409E+02  0.51100000000E-03 0. -1.
        -11    1    3    3    0    0  0.80978125429E+01 -0.15200006104E+02  0.66487418152E+01  0.18461325021E+02  0.51100000000E-03 0.  1.
         12    1    3    3    0    0 -0.70365933622E+01  0.81450608326E+01  0.12835773462E+02  0.16751499708E+02  0.00000000000E+00 0. -1.
</event>
<event>
 7    1  0.6065977E-013  0.5930193E+02  0.7816164E-02  0.1266605E+00
        -11   -1    0    0    0    0  0.00000000000E+00  0.00000000000E+00  0.45593999997E+02  0.45594000000E+02  0.51100000000E-03 0. -1.
         11   -1    0    0    0    0 -0.00000000000E+00 -0.00000000000E+00 -0.45593999997E+02  0.45594000000E+02  0.51100000000E-03 0.  1.
    9900012    2    1    2    0    0  0.95031767343E-01  0.30871302762E+02  0.79796615263E+01  0.59301931517E+02  0.49999977183E+02 0.  0.
        -12    1    1    2    0    0 -0.95031767343E-01 -0.30871302762E+02 -0.79796615263E+01  0.31886068483E+02  0.00000000000E+00 0.  1.
         11    1    3    3    0    0  0.83335856635E+01  0.16684142003E+02  0.10399411471E+02  0.21353149735E+02  0.51100000000E-03 0. -1.
        -11    1    3    3    0    0 -0.80983119188E+01 -0.10447511964E+02 -0.14002343162E+01  0.13292622712E+02  0.51100000000E-03 0.  1.
        -12    1    3    3    0    0 -0.14024197740E+00  0.24634672722E+02 -0.10195156289E+01  0.24656159069E+02  0.00000000000E+00 0.  1.
</event>
<event>
 7    1  0.6065977E-013  0.5930192E+02  0.7816164E-02  0.1266605E+00
        -11   -1    0    0    0    0  0.00000000000E+00  0.00000000000E+00  0.45593999997E+02  0.45594000000E+02  0.51100000000E-03 0.  1.
         11   -1    0    0    0    0 -0.00000000000E+00 -0.00000000000E+00 -0.45593999997E+02  0.45594000000E+02  0.51100000000E-03 0. -1.
    9900012    2    1    2    0    0  0.88887518260E+01 -0.14953206635E+02 -0.26722909904E+02  0.59301918218E+02  0.49999952929E+02 0.  0.
        -12    1    1    2    0    0 -0.88887518260E+01  0.14953206635E+02  0.26722909904E+02  0.31886081782E+02  0.00000000000E+00 0.  1.
         11    1    3    3    0    0 -0.23171836228E+00 -0.89585174782E+01 -0.65112399609E+01  0.11077227762E+02  0.51100000000E-03 0. -1.
        -11    1    3    3    0    0 -0.12626134684E+02  0.10075082789E+02 -0.38003084805E+01  0.16594243432E+02  0.51100000000E-03 0.  1.
        -12    1    3    3    0    0  0.21746604872E+02 -0.16069771946E+02 -0.16411361463E+02  0.31630447024E+02  0.00000000000E+00 0.  1.
</event>
<event>
 7    1  0.6065977E-013  0.5930194E+02  0.7816164E-02  0.1266605E+00
        -11   -1    0    0    0    0  0.00000000000E+00  0.00000000000E+00  0.45593999997E+02  0.45594000000E+02  0.51100000000E-03 0.  1.
         11   -1    0    0    0    0 -0.00000000000E+00 -0.00000000000E+00 -0.45593999997E+02  0.45594000000E+02  0.51100000000E-03 0. -1.
    9900012    2    1    2    0    0 -0.22879453748E+02 -0.16942514190E+02 -0.14359767026E+02  0.59301935647E+02  0.49999984715E+02 0.  0.
        -12    1    1    2    0    0  0.22879453748E+02  0.16942514190E+02  0.14359767026E+02  0.31886064353E+02  0.00000000000E+00 0.  1.
         11    1    3    3    0    0 -0.48170461197E+01 -0.25220113381E+02 -0.23569319168E+02  0.34853563068E+02  0.51100000000E-03 0. -1.
        -11    1    3    3    0    0 -0.33687622299E+01  0.71042355665E+01  0.39391868526E+01  0.87940841062E+01  0.51100000000E-03 0.  1.
         12    1    3    3    0    0 -0.14693645399E+02  0.11733636238E+01  0.52703652896E+01  0.15654288473E+02  0.00000000000E+00 0. -1.
</event>
<event>
 7    1  0.6065977E-013  0.5930193E+02  0.7816164E-02  0.1266605E+00
        -11   -1    0    0    0    0  0.00000000000E+00  0.00000000000E+00  0.45593999997E+02  0.45594000000E+02  0.51100000000E-03 0.  1.
         11   -1    0    0    0    0 -0.00000000000E+00 -0.00000000000E+00 -0.45593999997E+02  0.45594000000E+02  0.51100000000E-03 0. -1.
    9900012    2    1    2    0    0  0.54387158945E+01 -0.23553808189E+02 -0.20793261793E+02  0.59301933344E+02  0.49999980516E+02 0.  0.
        -12    1    1    2    0    0 -0.54387158945E+01  0.23553808189E+02  0.20793261793E+02  0.31886066656E+02  0.00000000000E+00 0.  1.
         11    1    3    3    0    0  0.14734432121E+02 -0.21256072285E+02  0.81466086354E+00  0.25876394098E+02  0.51100000000E-03 0. -1.
        -11    1    3    3    0    0  0.36370016907E+01  0.63053889244E+01 -0.14745511814E+02  0.16444325152E+02  0.51100000000E-03 0.  1.
         12    1    3    3    0    0 -0.12932717917E+02 -0.86031248282E+01 -0.68624108424E+01  0.16981214094E+02  0.00000000000E+00 0. -1.
</event>
<event>
 7    1  0.6065977E-013  0.5930196E+02  0.7816164E-02  0.1266605E+00
        -11   -1    0    0    0    0  0.00000000000E+00  0.00000000000E+00  0.45593999997E+02  0.45594000000E+02  0.51100000000E-03 0. -1.
         11   -1    0    0    0    0 -0.00000000000E+00 -0.00000000000E+00 -0.45593999997E+02  0.45594000000E+02  0.51100000000E-03 0.  1.
    9900012    2    1    2    0    0  0.63780267739E+01  0.23552576781E+02  0.20525992717E+02  0.59301961118E+02  0.50000031169E+02 0.  0.
        -12    1    1    2    0    0 -0.63780267739E+01 -0.23552576781E+02 -0.20525992717E+02  0.31886038882E+02  0.00000000000E+00 0.  1.
         11    1    3    3    0    0  0.52905668233E+01  0.27371095498E+01  0.68326784309E+01  0.90646213821E+01  0.51100000000E-03 0. -1.
        -11    1    3    3    0    0 -0.13832154074E+02  0.13829752930E+02  0.23880008640E+02  0.30868193425E+02  0.51100000000E-03 0.  1.
        -12    1    3    3    0    0  0.14919614025E+02  0.69857143015E+01 -0.10186694354E+02  0.19369146311E+02  0.00000000000E+00 0.  1.
</event>
<event>
 7    1  0.6065977E-013  0.5930194E+02  0.7816164E-02  0.1266605E+00
        -11   -1    0    0    0    0  0.00000000000E+00  0.00000000000E+00  0.45593999997E+02  0.45594000000E+02  0.51100000000E-03 0. -1.
         11   -1    0    0    0    0 -0.00000000000E+00 -0.00000000000E+00 -0.45593999997E+02  0.45594000000E+02  0.51100000000E-03 0.  1.
    9900012    2    1    2    0    0 -0.13866324937E+02 -0.10167827436E+02  0.26852584011E+02  0.59301937996E+02  0.49999989000E+02 0.  0.
        -12    1    1    2    0    0  0.13866324937E+02  0.10167827436E+02 -0.26852584011E+02  0.31886062004E+02  0.00000000000E+00 0.  1.
         11    1    3    3    0    0  0.12998478335E+02  0.80947329526E+01  0.12678917883E+02  0.19880646357E+02  0.51100000000E-03 0. -1.
        -11    1    3    3    0    0 -0.69680738708E+01 -0.14666620913E+02  0.37144602273E+01  0.16657161749E+02  0.51100000000E-03 0.  1.
         12    1    3    3    0    0 -0.19896729402E+02 -0.35959394754E+01  0.10459205901E+02  0.22764129891E+02  0.00000000000E+00 0. -1.
</event>
<event>
 7    1  0.6065977E-013  0.5930194E+02  0.7816164E-02  0.1266605E+00
        -11   -1    0    0    0    0  0.00000000000E+00  0.00000000000E+00  0.45593999997E+02  0.45594000000E+02  0.51100000000E-03 0.  1.
         11   -1    0    0    0    0 -0.00000000000E+00 -0.00000000000E+00 -0.45593999997E+02  0.45594000000E+02  0.51100000000E-03 0. -1.
    9900012    2    1    2    0    0  0.79336687070E+01 -0.21841760492E+02 -0.21833808830E+02  0.59301940216E+02  0.49999993048E+02 0.  0.
        -12    1    1    2    0    0 -0.79336687070E+01  0.21841760492E+02  0.21833808830E+02  0.31886059784E+02  0.00000000000E+00 0.  1.
         11    1    3    3    0    0 -0.11554603126E+02 -0.11366224932E+02 -0.16104598998E+02  0.22848589273E+02  0.51100000000E-03 0. -1.
        -11    1    3    3    0    0  0.21949376661E+02  0.31209051814E+01 -0.30564952176E+01  0.22379842453E+02  0.51100000000E-03 0.  1.
        -12    1    3    3    0    0 -0.24611048277E+01 -0.13596440741E+02 -0.26727146137E+01  0.14073508489E+02  0.00000000000E+00 0.  1.
</event>
<event>
 7    1  0.6065977E-013  0.5930192E+02  0.7816164E-02  0.1266605E+00
        -11   -1    0    0    0    0  0.00000000000E+00  0.00000000000E+00  0.45593999997E+02  0.45594000000E+02  0.51100000000E-03 0. -1.
         11   -1    0    0    0    0 -0.00000000000E+00 -0.00000000000E+00 -0.45593999997E+02  0.45594000000E+02  0.51100000000E-03 0.  1.
    9900012    2    1    2    0    0 -0.10481591915E+02  0.68051826344E+01  0.29335092117E+02  0.59301922956E+02  0.49999961571E+02 0.  0.
        -12    1    1    2    0    0  0.10481591915E+02 -0.68051826344E+01 -0.29335092117E+02  0.31886077044E+02  0.00000000000E+00 0.  1.
         11    1    3    3    0    0 -0.22989535843E+02 -0.11906459380E+02  0.12717970768E+02  0.28844918338E+02  0.51100000000E-03 0. -1.
        -11    1    3    3    0    0  0.47265989952E+01  0.27119319581E+01  0.10161459783E+02  0.11530419688E+02  0.51100000000E-03 0.  1.
         12    1    3    3    0    0  0.77813449328E+01  0.15999710056E+02  0.64556615656E+01  0.18926584930E+02  0.00000000000E+00 0. -1.
</event>
<event>
 7    1  0.6065977E-013  0.5930193E+02  0.7816164E-02  0.1266605E+00
        -11   -1    0    0    0    0  0.00000000000E+00  0.00000000000E+00  0.45593999997E+02  0.45594000000E+02  0.51100000000E-03 0. -1.
         11   -1    0    0    0    0 -0.00000000000E+00 -0.00000000000E+00 -0.45593999997E+02  0.45594000000E+02  0.51100000000E-03 0.  1.
    9900012    2    1    2    0    0  0.29007285865E+02 -0.98861054000E+01  0.88070295753E+01  0.59301929637E+02  0.49999973755E+02 0.  0.
        -12    1    1    2    0    0 -0.29007285865E+02  0.98861054000E+01 -0.88070295753E+01  0.31886070363E+02  0.00000000000E+00 0.  1.
         11    1    3    3    0    0  0.49632868487E+01  0.11987957341E+02  0.10182497740E+02  0.16493289485E+02  0.51100000000E-03 0. -1.
        -11    1    3    3    0    0  0.16778782917E+02 -0.14066408300E+01 -0.98362395816E+01  0.19500200100E+02  0.51100000000E-03 0.  1.
         12    1    3    3    0    0  0.72652160996E+01 -0.20467421911E+02  0.84607714165E+01  0.23308440051E+02  0.00000000000E+00 0. -1.
</event>
<event>
 7    1  0.6065977E-013  0.5930196E+02  0.7816164E-02  0.1266605E+00
        -11   -1    0    0    0    0  0.00000000000E+00  0.00000000000E+00  0.45593999997E+02  0.45594000000E+02  0.51100000000E-03 0.  1.
         11   -1    0    0    0    0 -0.00000000000E+00 -0.00000000000E+00 -0.45593999997E+02  0.45594000000E+02  0.51100000000E-03 0. -1.
    9900012    2    1    2    0    0 -0.20630556916E+02  0.11391120645E+02 -0.21478874801E+02  0.59301959623E+02  0.50000028442E+02 0.  0.
        -12    1    1    2    0    0  0.20630556916E+02 -0.11391120645E+02  0.21478874801E+02  0.31886040377E+02  0.00000000000E+00 0.  1.
         11    1    3    3    0    0 -0.75030593667E+01  0.77077662490E+01 -0.29105218913E+02  0.31029330136E+02  0.51100000000E-03 0. -1.
        -11    1    3    3    0    0  0.20742821468E+01  0.19798928509E+01  0.12019934805E+02  0.12357243022E+02  0.51100000000E-03 0.  1.
        -12    1    3    3    0    0 -0.15201779696E+02  0.17034615447E+01 -0.43935906925E+01  0.15915386466E+02  0.00000000000E+00 0.  1.
</event>
<event>
 7    1  0.6065977E-013  0.5930226E+02  0.7816164E-02  0.1266604E+00
        -11   -1    0    0    0    0  0.00000000000E+00  0.00000000000E+00  0.45593999997E+02  0.45594000000E+02  0.51100000000E-03 0.  1.
         11   -1    0    0    0    0 -0.00000000000E+00 -0.00000000000E+00 -0.45593999997E+02  0.45594000000E+02  0.51100000000E-03 0. -1.
    9900012    2    1    2    0    0 -0.10696554087E+01 -0.63316258625E+01 -0.31232465464E+02  0.59302257924E+02  0.50000572468E+02 0.  0.
        -12    1    1    2    0    0  0.10696554087E+01  0.63316258625E+01  0.31232465464E+02  0.31885742076E+02  0.00000000000E+00 0.  1.
         11    1    3    3    0    0 -0.13808461127E+02 -0.97067893509E+01 -0.13391327425E+02  0.21545835065E+02  0.51100000000E-03 0. -1.
        -11    1    3    3    0    0  0.21725276267E+02  0.80212074609E+01 -0.12386730344E+02  0.26263253547E+02  0.51100000000E-03 0.  1.
        -12    1    3    3    0    0 -0.89864705487E+01 -0.46460439726E+01 -0.54544076959E+01  0.11493169312E+02  0.00000000000E+00 0.  1.
</event>
<event>
 7    1  0.6065977E-013  0.5930195E+02  0.7816164E-02  0.1266605E+00
        -11   -1    0    0    0    0  0.00000000000E+00  0.00000000000E+00  0.45593999997E+02  0.45594000000E+02  0.51100000000E-03 0. -1.
         11   -1    0    0    0    0 -0.00000000000E+00 -0.00000000000E+00 -0.45593999997E+02  0.45594000000E+02  0.51100000000E-03 0.  1.
    9900012    2    1    2    0    0  0.28302449622E+02 -0.32453979540E+01 -0.14323377043E+02  0.59301946741E+02  0.50000004949E+02 0.  0.
        -12    1    1    2    0    0 -0.28302449622E+02  0.32453979540E+01  0.14323377043E+02  0.31886053259E+02  0.00000000000E+00 0.  1.
         11    1    3    3    0    0  0.69119252653E+01  0.19762788675E+02 -0.23194982616E+01  0.21064724056E+02  0.51100000000E-03 0. -1.
        -11    1    3    3    0    0  0.73836208139E+00 -0.12916720557E+02 -0.17052541712E+01  0.13049702700E+02  0.51100000000E-03 0.  1.
         12    1    3    3    0    0  0.20652162276E+02 -0.10091466073E+02 -0.10298624610E+02  0.25187519985E+02  0.00000000000E+00 0. -1.
</event>
<event>
 7    1  0.6065977E-013  0.5930196E+02  0.7816164E-02  0.1266605E+00
        -11   -1    0    0    0    0  0.00000000000E+00  0.00000000000E+00  0.45593999997E+02  0.45594000000E+02  0.51100000000E-03 0.  1.
         11   -1    0    0    0    0 -0.00000000000E+00 -0.00000000000E+00 -0.45593999997E+02  0.45594000000E+02  0.51100000000E-03 0. -1.
    9900012    2    1    2    0    0 -0.10327799458E+01 -0.31582258491E+02 -0.42677927364E+01  0.59301956962E+02  0.50000023588E+02 0.  0.
        -12    1    1    2    0    0  0.10327799458E+01  0.31582258491E+02  0.42677927364E+01  0.31886043038E+02  0.00000000000E+00 0.  1.
         11    1    3    3    0    0 -0.18477200731E+02 -0.14156714647E+02  0.94063186589E+01  0.25105743316E+02  0.51100000000E-03 0. -1.
        -11    1    3    3    0    0  0.73373844142E+01  0.20234612179E+01  0.12029853417E+01  0.77057627355E+01  0.51100000000E-03 0.  1.
         12    1    3    3    0    0  0.10107036371E+02 -0.19449005062E+02 -0.14877096737E+02  0.26490450910E+02  0.00000000000E+00 0. -1.
</event>
<event>
 7    1  0.6065977E-013  0.5930195E+02  0.7816164E-02  0.1266605E+00
        -11   -1    0    0    0    0  0.00000000000E+00  0.00000000000E+00  0.45593999997E+02  0.45594000000E+02  0.51100000000E-03 0.  1.
         11   -1    0    0    0    0 -0.00000000000E+00 -0.00000000000E+00 -0.45593999997E+02  0.45594000000E+02  0.51100000000E-03 0. -1.
    9900012    2    1    2    0    0 -0.51575537101E+01 -0.14550151279E+02 -0.27900048866E+02  0.59301953063E+02  0.50000016478E+02 0.  0.
        -12    1    1    2    0    0  0.51575537101E+01  0.14550151279E+02  0.27900048866E+02  0.31886046937E+02  0.00000000000E+00 0.  1.
         11    1    3    3    0    0 -0.11696051837E+02 -0.52448148709E+01 -0.33039531302E+02  0.35438909979E+02  0.51100000000E-03 0. -1.
        -11    1    3    3    0    0 -0.19520974478E+01 -0.13628095102E+02  0.27267708452E+01  0.14034633592E+02  0.51100000000E-03 0.  1.
         12    1    3    3    0    0  0.84905955744E+01  0.43227586933E+01  0.24127115901E+01  0.98284094921E+01  0.00000000000E+00 0. -1.
</event>
<event>
 7    1  0.6065977E-013  0.5930206E+02  0.7816164E-02  0.1266604E+00
        -11   -1    0    0    0    0  0.00000000000E+00  0.00000000000E+00  0.45593999997E+02  0.45594000000E+02  0.51100000000E-03 0.  1.
         11   -1    0    0    0    0 -0.00000000000E+00 -0.00000000000E+00 -0.45593999997E+02  0.45594000000E+02  0.51100000000E-03 0. -1.
    9900012    2    1    2    0    0 -0.10622314986E+02 -0.24307563532E+02 -0.17692419399E+02  0.59302063841E+02  0.50000218511E+02 0.  0.
        -12    1    1    2    0    0  0.10622314986E+02  0.24307563532E+02  0.17692419399E+02  0.31885936159E+02  0.00000000000E+00 0.  1.
         11    1    3    3    0    0 -0.11883088206E+02  0.20192488543E+01 -0.11880121552E+02  0.16924019605E+02  0.51100000000E-03 0. -1.
        -11    1    3    3    0    0  0.15126654762E+02 -0.58790009839E+01  0.22631127082E+01  0.16385970104E+02  0.51100000000E-03 0.  1.
        -12    1    3    3    0    0 -0.13865881542E+02 -0.20447811402E+02 -0.80754105555E+01  0.25992074133E+02  0.00000000000E+00 0.  1.
</event>
<event>
 7    1  0.6065977E-013  0.5930198E+02  0.7816164E-02  0.1266605E+00
        -11   -1    0    0    0    0  0.00000000000E+00  0.00000000000E+00  0.45593999997E+02  0.45594000000E+02  0.51100000000E-03 0. -1.
         11   -1    0    0    0    0 -0.00000000000E+00 -0.00000000000E+00 -0.45593999997E+02  0.45594000000E+02  0.51100000000E-03 0.  1.
    9900012    2    1    2    0    0  0.83334424545E+01 -0.23200736042E+02  0.20223688834E+02  0.59301984161E+02  0.50000073193E+02 0.  0.
        -12    1    1    2    0    0 -0.83334424545E+01  0.23200736042E+02 -0.20223688834E+02  0.31886015839E+02  0.00000000000E+00 0.  1.
         11    1    3    3    0    0  0.20399894660E+02 -0.25747278068E+02 -0.16196253140E+01  0.32889226449E+02  0.51100000000E-03 0. -1.
        -11    1    3    3    0    0 -0.42068379168E+01  0.50717001868E+01  0.10026920997E+02  0.11998282085E+02  0.51100000000E-03 0.  1.
         12    1    3    3    0    0 -0.78596142883E+01 -0.25251581612E+01  0.11816393151E+02  0.14414475627E+02  0.00000000000E+00 0. -1.
</event>
<event>
 7    1  0.6065977E-013  0.5930196E+02  0.7816164E-02  0.1266605E+00
        -11   -1    0    0    0    0  0.00000000000E+00  0.00000000000E+00  0.45593999997E+02  0.45594000000E+02  0.51100000000E-03 0.  1.
         11   -1    0    0    0    0 -0.00000000000E+00 -0.00000000000E+00 -0.45593999997E+02  0.45594000000E+02  0.51100000000E-03 0. -1.
    9900012    2    1    2    0    0  0.38365493820E+01 -0.24049818103E+02 -0.20581707946E+02  0.59301959733E+02  0.50000028642E+02 0.  0.
        -12    1    1    2    0    0 -0.38365493820E+01  0.24049818103E+02  0.20581707946E+02  0.31886040267E+02  0.00000000000E+00 0.  1.
         11    1    3    3    0    0 -0.11514296112E+02 -0.16834842098E+02  0.51031126308E+01  0.21024573294E+02  0.51100000000E-03 0. -1.
        -11    1    3    3    0    0  0.24000264585E+01 -0.51892181966E+01 -0.24451689080E+02  0.25111216849E+02  0.51100000000E-03 0.  1.
        -12    1    3    3    0    0  0.12950819035E+02 -0.20257578082E+01 -0.12331314964E+01  0.13166169590E+02  0.00000000000E+00 0.  1.
</event>
<event>
 7    1  0.6065977E-013  0.5930193E+02  0.7816164E-02  0.1266605E+00
        -11   -1    0    0    0    0  0.00000000000E+00  0.00000000000E+00  0.45593999997E+02  0.45594000000E+02  0.51100000000E-03 0. -1.
         11   -1    0    0    0    0 -0.00000000000E+00 -0.00000000000E+00 -0.45593999997E+02  0.45594000000E+02  0.51100000000E-03 0.  1.
    9900012    2    1    2    0    0 -0.18083592160E+02  0.23859109393E+02  0.10974888474E+02  0.59301928065E+02  0.49999970887E+02 0.  0.
        -12    1    1    2    0    0  0.18083592160E+02 -0.23859109393E+02 -0.10974888474E+02  0.31886071935E+02  0.00000000000E+00 0.  1.
         11    1    3    3    0    0 -0.10514235390E+02  0.17602521797E+02 -0.31876934967E+01  0.20749923121E+02  0.51100000000E-03 0. -1.
        -11    1    3    3    0    0  0.55742375987E+01  0.67194355845E+01  0.21702127288E+02  0.23392419039E+02  0.51100000000E-03 0.  1.
        -12    1    3    3    0    0 -0.13143594369E+02 -0.46284798830E+00 -0.75395453181E+01  0.15159585905E+02  0.00000000000E+00 0.  1.
</event>
<event>
 7    1  0.6065977E-013  0.5930216E+02  0.7816164E-02  0.1266604E+00
        -11   -1    0    0    0    0  0.00000000000E+00  0.00000000000E+00  0.45593999997E+02  0.45594000000E+02  0.51100000000E-03 0.  1.
         11   -1    0    0    0    0 -0.00000000000E+00 -0.00000000000E+00 -0.45593999997E+02  0.45594000000E+02  0.51100000000E-03 0. -1.
    9900012    2    1    2    0    0  0.17606280456E+02 -0.21759514269E+02 -0.15272502685E+02  0.59302158142E+02  0.50000390492E+02 0.  0.
        -12    1    1    2    0    0 -0.17606280456E+02  0.21759514269E+02  0.15272502685E+02  0.31885841858E+02  0.00000000000E+00 0.  1.
         11    1    3    3    0    0 -0.83055836406E+01 -0.23850650069E+01 -0.18380975151E+02  0.20310871533E+02  0.51100000000E-03 0. -1.
        -11    1    3    3    0    0  0.10659451829E+02 -0.16584050299E+02  0.99036501752E+01  0.22062115145E+02  0.51100000000E-03 0.  1.
        -12    1    3    3    0    0  0.15252412268E+02 -0.27903989630E+01 -0.67951777099E+01  0.16929171464E+02  0.00000000000E+00 0.  1.
</event>
<event>
 7    1  0.6065977E-013  0.5930197E+02  0.7816164E-02  0.1266605E+00
        -11   -1    0    0    0    0  0.00000000000E+00  0.00000000000E+00  0.45593999997E+02  0.45594000000E+02  0.51100000000E-03 0.  1.
         11   -1    0    0    0    0 -0.00000000000E+00 -0.00000000000E+00 -0.45593999997E+02  0.45594000000E+02  0.51100000000E-03 0. -1.
    9900012    2    1    2    0    0  0.27749660456E+01  0.70360755287E+01 -0.30975990643E+02  0.59301971842E+02  0.50000050726E+02 0.  0.
        -12    1    1    2    0    0 -0.27749660456E+01 -0.70360755287E+01  0.30975990643E+02  0.31886028158E+02  0.00000000000E+00 0.  1.
         11    1    3    3    0    0 -0.46021344022E+00 -0.46120505640E+01 -0.28572187829E+02  0.28945685765E+02  0.51100000000E-03 0. -1.
        -11    1    3    3    0    0  0.96555902654E+01  0.17057353347E+02  0.37384569856E+01  0.19953941653E+02  0.51100000000E-03 0.  1.
         12    1    3    3    0    0 -0.64204107797E+01 -0.54092272545E+01 -0.61422597991E+01  0.10402344424E+02  0.00000000000E+00 0. -1.
</event>
<event>
 7    1  0.6065977E-013  0.5930198E+02  0.7816164E-02  0.1266605E+00
        -11   -1    0    0    0    0  0.00000000000E+00  0.00000000000E+00  0.45593999997E+02  0.45594000000E+02  0.51100000000E-03 0.  1.
         11   -1    0    0    0    0 -0.00000000000E+00 -0.00000000000E+00 -0.45593999997E+02  0.45594000000E+02  0.51100000000E-03 0. -1.
    9900012    2    1    2    0    0 -0.97940175221E+01  0.29719846380E+02 -0.61258528778E+01  0.59301982350E+02  0.50000069891E+02 0.  0.
        -12    1    1    2    0    0  0.97940175221E+01 -0.29719846380E+02  0.61258528778E+01  0.31886017650E+02  0.00000000000E+00 0.  1.
         11    1    3    3    0    0  0.87462306108E+01  0.47569048367E+01  0.49102287330E+00  0.99682394256E+01  0.51100000000E-03 0. -1.
        -11    1    3    3    0    0 -0.23689055938E+02  0.20788920773E+02 -0.17901458081E+02  0.36246555696E+02  0.51100000000E-03 0.  1.
        -12    1    3    3    0    0  0.51488078051E+01  0.41740207704E+01  0.11284582330E+02  0.13087187229E+02  0.00000000000E+00 0.  1.
</event>
<event>
 7    1  0.6065977E-013  0.5930199E+02  0.7816164E-02  0.1266605E+00
        -11   -1    0    0    0    0  0.00000000000E+00  0.00000000000E+00  0.45593999997E+02  0.45594000000E+02  0.51100000000E-03 0.  1.
         11   -1    0    0    0    0 -0.00000000000E+00 -0.00000000000E+00 -0.45593999997E+02  0.45594000000E+02  0.51100000000E-03 0. -1.
    9900012    2    1    2    0    0  0.24652058595E+02 -0.59080215774E+00 -0.20214957779E+02  0.59301991185E+02  0.50000086004E+02 0.  0.
        -12    1    1    2    0    0 -0.24652058595E+02  0.59080215774E+00  0.20214957779E+02  0.31886008815E+02  0.00000000000E+00 0.  1.
         11    1    3    3    0    0 -0.37504610227E+00  0.17674168327E+02  0.63423528840E+00  0.17689520635E+02  0.51100000000E-03 0. -1.
        -11    1    3    3    0    0  0.18881572228E+02 -0.15267019097E+02 -0.56270382650E+01  0.24925071752E+02  0.51100000000E-03 0.  1.
        -12    1    3    3    0    0  0.61455324686E+01 -0.29979513872E+01 -0.15222154802E+02  0.16687398799E+02  0.00000000000E+00 0.  1.
</event>
<event>
 7    1  0.6065977E-013  0.5930195E+02  0.7816164E-02  0.1266605E+00
        -11   -1    0    0    0    0  0.00000000000E+00  0.00000000000E+00  0.45593999997E+02  0.45594000000E+02  0.51100000000E-03 0. -1.
         11   -1    0    0    0    0 -0.00000000000E+00 -0.00000000000E+00 -0.45593999997E+02  0.45594000000E+02  0.51100000000E-03 0.  1.
    9900012    2    1    2    0    0  0.23232164916E+02 -0.90213952006E+01 -0.19889730682E+02  0.59301945922E+02  0.50000003455E+02 0.  0.
        -12    1    1    2    0    0 -0.23232164916E+02  0.90213952006E+01  0.19889730682E+02  0.31886054078E+02  0.00000000000E+00 0.  1.
         11    1    3    3    0    0  0.20546342127E+02 -0.31631732123E+00  0.81161719349E+01  0.22093539295E+02  0.51100000000E-03 0. -1.
        -11    1    3    3    0    0  0.84091330439E+00  0.49485499646E+01 -0.21303653350E+02  0.21887003638E+02  0.51100000000E-03 0.  1.
        -12    1    3    3    0    0  0.18449094848E+01 -0.13653627844E+02 -0.67022492664E+01  0.15321402988E+02  0.00000000000E+00 0.  1.
</event>
<event>
 7    1  0.6065977E-013  0.5930196E+02  0.7816164E-02  0.1266605E+00
        -11   -1    0    0    0    0  0.00000000000E+00  0.00000000000E+00  0.45593999997E+02  0.45594000000E+02  0.51100000000E-03 0. -1.
         11   -1    0    0    0    0 -0.00000000000E+00 -0.00000000000E+00 -0.45593999997E+02  0.45594000000E+02  0.51100000000E-03 0.  1.
    9900012    2    1    2    0    0  0.52657770287E-01 -0.31696302634E+02 -0.34729253477E+01  0.59301959418E+02  0.50000028069E+02 0.  0.
        -12    1    1    2    0    0 -0.52657770287E-01  0.31696302634E+02  0.34729253477E+01  0.31886040582E+02  0.00000000000E+00 0.  1.
         11    1    3    3    0    0 -0.18051025946E+01 -0.57143900431E+01  0.11117088719E+02  0.12629422425E+02  0.51100000000E-03 0. -1.
        -11    1    3    3    0    0 -0.10925735696E+01 -0.24582554274E+02 -0.25409261496E+02  0.35371263218E+02  0.51100000000E-03 0.  1.
        -12    1    3    3    0    0  0.29503339344E+01 -0.13993583173E+01  0.10819247429E+02  0.11301273776E+02  0.00000000000E+00 0.  1.
</event>
<event>
 7    1  0.6065977E-013  0.5930194E+02  0.7816164E-02  0.1266605E+00
        -11   -1    0    0    0    0  0.00000000000E+00  0.00000000000E+00  0.45593999997E+02  0.45594000000E+02  0.51100000000E-03 0.  1.
         11   -1    0    0    0    0 -0.00000000000E+00 -0.00000000000E+00 -0.45593999997E+02  0.45594000000E+02  0.51100000000E-03 0. -1.
    9900012    2    1    2    0    0  0.74456450836E+01 -0.28359801018E+02  0.12530159213E+02  0.59301939811E+02  0.49999992309E+02 0.  0.
        -12    1    1    2    0    0 -0.74456450836E+01  0.28359801018E+02 -0.12530159213E+02  0.31886060189E+02  0.00000000000E+00 0.  1.
         11    1    3    3    0    0  0.17223955461E+02 -0.29166426434E+02  0.20869782255E+02  0.39785586388E+02  0.51100000000E-03 0. -1.
        -11    1    3    3    0    0 -0.11048989838E+02  0.14881292148E+01 -0.11515704760E+02  0.16028292528E+02  0.51100000000E-03 0.  1.
        -12    1    3    3    0    0  0.12706794609E+01 -0.68150379890E+00  0.31760817179E+01  0.34880608938E+01  0.00000000000E+00 0.  1.
</event>
<event>
 7    1  0.6065977E-013  0.5930194E+02  0.7816164E-02  0.1266605E+00
        -11   -1    0    0    0    0  0.00000000000E+00  0.00000000000E+00  0.45593999997E+02  0.45594000000E+02  0.51100000000E-03 0. -1.
         11   -1    0    0    0    0 -0.00000000000E+00 -0.00000000000E+00 -0.45593999997E+02  0.45594000000E+02  0.51100000000E-03 0.  1.
    9900012    2    1    2    0    0  0.12229008586E+02  0.10681685706E+02  0.27442183833E+02  0.59301944834E+02  0.50000001471E+02 0.  0.
        -12    1    1    2    0    0 -0.12229008586E+02 -0.10681685706E+02 -0.27442183833E+02  0.31886055166E+02  0.00000000000E+00 0.  1.
         11    1    3    3    0    0  0.20546772343E+02 -0.10517535234E+02  0.45008935897E+01  0.23516939522E+02  0.51100000000E-03 0. -1.
        -11    1    3    3    0    0 -0.16570728031E+01  0.20505720055E+02  0.15390140108E+02  0.25692155574E+02  0.51100000000E-03 0.  1.
         12    1    3    3    0    0 -0.66606909541E+01  0.69350088467E+00  0.75511501355E+01  0.10092849738E+02  0.00000000000E+00 0. -1.
</event>
<event>
 7    1  0.6065977E-013  0.5930198E+02  0.7816164E-02  0.1266605E+00
        -11   -1    0    0    0    0  0.00000000000E+00  0.00000000000E+00  0.45593999997E+02  0.45594000000E+02  0.51100000000E-03 0. -1.
         11   -1    0    0    0    0 -0.00000000000E+00 -0.00000000000E+00 -0.45593999997E+02  0.45594000000E+02  0.51100000000E-03 0.  1.
    9900012    2    1    2    0    0 -0.11828051304E+02  0.23683938226E+02  0.17773193357E+02  0.59301982223E+02  0.50000069659E+02 0.  0.
        -12    1    1    2    0    0  0.11828051304E+02 -0.23683938226E+02 -0.17773193357E+02  0.31886017777E+02  0.00000000000E+00 0.  1.
         11    1    3    3    0    0  0.58602040888E+01 -0.68286933427E+01  0.15941373066E+02  0.18305748283E+02  0.51100000000E-03 0. -1.
        -11    1    3    3    0    0 -0.46154483796E+01  0.15771904048E+02 -0.87651013652E+01  0.18624777133E+02  0.51100000000E-03 0.  1.
        -12    1    3    3    0    0 -0.13072807013E+02  0.14740727521E+02  0.10596921657E+02  0.22371456807E+02  0.00000000000E+00 0.  1.
</event>
<event>
 7    1  0.6065977E-013  0.5930194E+02  0.7816164E-02  0.1266605E+00
        -11   -1    0    0    0    0  0.00000000000E+00  0.00000000000E+00  0.45593999997E+02  0.45594000000E+02  0.51100000000E-03 0.  1.
         11   -1    0    0    0    0 -0.00000000000E+00 -0.00000000000E+00 -0.45593999997E+02  0.45594000000E+02  0.51100000000E-03 0. -1.
    9900012    2    1    2    0    0 -0.13821882169E+02  0.20981219487E+02 -0.19633257990E+02  0.59301940081E+02  0.49999992801E+02 0.  0.
        -12    1    1    2    0    0  0.13821882169E+02 -0.20981219487E+02  0.19633257990E+02  0.31886059919E+02  0.00000000000E+00 0.  1.
         11    1    3    3    0    0 -0.28410004898E+02  0.19520651693E+02 -0.12215384238E+02  0.36570477618E+02  0.51100000000E-03 0. -1.
        -11    1    3    3    0    0  0.12972810292E+02  0.34991656995E+01 -0.11636892491E+02  0.17775129665E+02  0.51100000000E-03 0.  1.
         12    1    3    3    0    0  0.16153124364E+01 -0.20385979054E+01  0.42190187391E+01  0.49563327984E+01  0.00000000000E+00 0. -1.
</event>
<event>
 7    1  0.6065977E-013  0.5930196E+02  0.7816164E-02  0.1266605E+00
        -11   -1    0    0    0    0  0.00000000000E+00  0.00000000000E+00  0.45593999997E+02  0.45594000000E+02  0.51100000000E-03 0. -1.
         11   -1    0    0    0    0 -0.00000000000E+00 -0.00000000000E+00 -0.45593999997E+02  0.45594000000E+02  0.51100000000E-03 0.  1.
    9900012    2    1    2    0    0  0.26690389018E+02 -0.12530491698E+02  0.12137937101E+02  0.59301959086E+02  0.50000027463E+02 0.  0.
        -12    1    1    2    0    0 -0.26690389018E+02  0.12530491698E+02 -0.12137937101E+02  0.31886040914E+02  0.00000000000E+00 0.  1.
         11    1    3    3    0    0  0.18146352750E+02  0.72648736431E+01  0.24061536452E+02  0.31000420059E+02  0.51100000000E-03 0. -1.
        -11    1    3    3    0    0  0.85987341909E-01  0.75896379084E+00 -0.49472454921E+01  0.50058623711E+01  0.51100000000E-03 0.  1.
         12    1    3    3    0    0  0.84580489260E+01 -0.20554329132E+02 -0.69763538587E+01  0.23295676656E+02  0.00000000000E+00 0. -1.
</event>
<event>
 7    1  0.6065977E-013  0.5930193E+02  0.7816164E-02  0.1266605E+00
        -11   -1    0    0    0    0  0.00000000000E+00  0.00000000000E+00  0.45593999997E+02  0.45594000000E+02  0.51100000000E-03 0. -1.
         11   -1    0    0    0    0 -0.00000000000E+00 -0.00000000000E+00 -0.45593999997E+02  0.45594000000E+02  0.51100000000E-03 0.  1.
    9900012    2    1    2    0    0  0.25034563960E+02 -0.16693075162E+02  0.10551457900E+02  0.59301930709E+02  0.49999975710E+02 0.  0.
        -12    1    1    2    0    0 -0.25034563960E+02  0.16693075162E+02 -0.10551457900E+02  0.31886069291E+02  0.00000000000E+00 0.  1.
         11    1    3    3    0    0  0.52319459767E+01 -0.12632241180E+01  0.14175636440E+02  0.15163036062E+02  0.51100000000E-03 0. -1.
        -11    1    3    3    0    0  0.27745295634E+02 -0.13789777646E+01 -0.34900344806E+01  0.27997916894E+02  0.51100000000E-03 0.  1.
        -12    1    3    3    0    0 -0.79426776505E+01 -0.14050873280E+02 -0.13414406035E+00  0.16140977752E+02  0.00000000000E+00 0.  1.
</event>
<event>
 7    1  0.6065977E-013  0.5930186E+02  0.7816164E-02  0.1266605E+00
        -11   -1    0    0    0    0  0.00000000000E+00  0.00000000000E+00  0.45593999997E+02  0.45594000000E+02  0.51100000000E-03 0. -1.
         11   -1    0    0    0    0 -0.00000000000E+00 -0.00000000000E+00 -0.45593999997E+02  0.45594000000E+02  0.51100000000E-03 0.  1.
    9900012    2    1    2    0    0  0.14818817098E+02  0.55257571621E+01 -0.27687441929E+02  0.59301862370E+02  0.49999851075E+02 0.  0.
        -12    1    1    2    0    0 -0.14818817098E+02 -0.55257571621E+01  0.27687441929E+02  0.31886137630E+02  0.00000000000E+00 0.  1.
         11    1    3    3    0    0  0.27422252320E+01  0.36722700312E+00  0.15392733765E+01  0.31660729119E+01  0.51100000000E-03 0. -1.
        -11    1    3    3    0    0 -0.15057106455E+01  0.22626651878E+02 -0.24736033538E+02  0.33557471526E+02  0.51100000000E-03 0.  1.
        -12    1    3    3    0    0  0.13582302511E+02 -0.17468121719E+02 -0.44906817679E+01  0.22578317932E+02  0.00000000000E+00 0.  1.
</event>
<event>
 7    1  0.6065977E-013  0.5930194E+02  0.7816164E-02  0.1266605E+00
        -11   -1    0    0    0    0  0.00000000000E+00  0.00000000000E+00  0.45593999997E+02  0.45594000000E+02  0.51100000000E-03 0.  1.
         11   -1    0    0    0    0 -0.00000000000E+00 -0.00000000000E+00 -0.45593999997E+02  0.45594000000E+02  0.51100000000E-03 0. -1.
    9900012    2    1    2    0    0  0.15560232380E+01  0.25729675998E+02  0.18769205854E+02  0.59301944683E+02  0.50000001195E+02 0.  0.
        -12    1    1    2    0    0 -0.15560232380E+01 -0.25729675998E+02 -0.18769205854E+02  0.31886055317E+02  0.00000000000E+00 0.  1.
         11    1    3    3    0    0  0.84392333288E+01  0.22527316066E+02 -0.75988148957E+01  0.25227814341E+02  0.51100000000E-03 0. -1.
        -11    1    3    3    0    0  0.37322097291E+01  0.13090409484E+01  0.22142267835E+02  0.22492732222E+02  0.51100000000E-03 0.  1.
        -12    1    3    3    0    0 -0.10615419820E+02  0.18933189835E+01  0.42257529154E+01  0.11581398121E+02  0.00000000000E+00 0.  1.
</event>
<event>
 7    1  0.6065977E-013  0.5930195E+02  0.7816164E-02  0.1266605E+00
        -11   -1    0    0    0    0  0.00000000000E+00  0.00000000000E+00  0.45593999997E+02  0.45594000000E+02  0.51100000000E-03 0.  1.
         11   -1    0    0    0    0 -0.00000000000E+00 -0.00000000000E+00 -0.45593999997E+02  0.45594000000E+02  0.51100000000E-03 0. -1.
    9900012    2    1    2    0    0 -0.19452915621E+02  0.23242561988E+02 -0.99039020859E+01  0.59301954613E+02  0.50000019305E+02 0.  0.
        -12    1    1    2    0    0  0.19452915621E+02 -0.23242561988E+02  0.99039020859E+01  0.31886045387E+02  0.00000000000E+00 0.  1.
         11    1    3    3    0    0 -0.24475534337E+02  0.10554533064E+02 -0.13561978918E+02  0.29906140200E+02  0.51100000000E-03 0. -1.
        -11    1    3    3    0    0  0.12181185358E+01 -0.71110423402E+01 -0.34775862733E+01  0.80090163241E+01  0.51100000000E-03 0.  1.
         12    1    3    3    0    0  0.38045001801E+01  0.19799071264E+02  0.71356631050E+01  0.21386798088E+02  0.00000000000E+00 0. -1.
</event>
<event>
 7    1  0.6065977E-013  0.5930195E+02  0.7816164E-02  0.1266605E+00
        -11   -1    0    0    0    0  0.00000000000E+00  0.00000000000E+00  0.45593999997E+02  0.45594000000E+02  0.51100000000E-03 0.  1.
         11   -1    0    0    0    0 -0.00000000000E+00 -0.00000000000E+00 -0.45593999997E+02  0.45594000000E+02  0.51100000000E-03 0. -1.
    9900012    2    1    2    0    0  0.12424919412E+02  0.22866865407E+02 -0.18424108196E+02  0.59301954169E+02  0.50000018495E+02 0.  0.
        -12    1    1    2    0    0 -0.12424919412E+02 -0.22866865407E+02  0.18424108196E+02  0.31886045831E+02  0.00000000000E+00 0.  1.
         11    1    3    3    0    0  0.82675920267E+01  0.15346047306E+02 -0.31445227479E+02  0.35953533586E+02  0.51100000000E-03 0. -1.
        -11    1    3    3    0    0  0.48918858449E+01 -0.47307050402E+01  0.66706573607E+01  0.95293119994E+01  0.51100000000E-03 0.  1.
         12    1    3    3    0    0 -0.73455845973E+00  0.12251523141E+02  0.63504619230E+01  0.13819108584E+02  0.00000000000E+00 0. -1.
</event>
<event>
 7    1  0.6065977E-013  0.5930194E+02  0.7816164E-02  0.1266605E+00
        -11   -1    0    0    0    0  0.00000000000E+00  0.00000000000E+00  0.45593999997E+02  0.45594000000E+02  0.51100000000E-03 0.  1.
         11   -1    0    0    0    0 -0.00000000000E+00 -0.00000000000E+00 -0.45593999997E+02  0.45594000000E+02  0.51100000000E-03 0. -1.
    9900012    2    1    2    0    0 -0.29852943437E+02  0.16967374351E+01  0.11074465932E+02  0.59301938069E+02  0.49999989133E+02 0.  0.
        -12    1    1    2    0    0  0.29852943437E+02 -0.16967374351E+01 -0.11074465932E+02  0.31886061931E+02  0.00000000000E+00 0.  1.
         11    1    3    3    0    0 -0.20856505902E+01  0.75023923878E+01 -0.12016938636E+02  0.14319310191E+02  0.51100000000E-03 0. -1.
        -11    1    3    3    0    0 -0.26442886506E+02 -0.14221979519E+02  0.18997261803E+02  0.35530084498E+02  0.51100000000E-03 0.  1.
        -12    1    3    3    0    0 -0.13244063403E+01  0.84163245660E+01  0.40941427655E+01  0.94525433794E+01  0.00000000000E+00 0.  1.
</event>
<event>
 7    1  0.6065977E-013  0.5930206E+02  0.7816164E-02  0.1266604E+00
        -11   -1    0    0    0    0  0.00000000000E+00  0.00000000000E+00  0.45593999997E+02  0.45594000000E+02  0.51100000000E-03 0. -1.
         11   -1    0    0    0    0 -0.00000000000E+00 -0.00000000000E+00 -0.45593999997E+02  0.45594000000E+02  0.51100000000E-03 0.  1.
    9900012    2    1    2    0    0 -0.26145906507E+02 -0.83314449598E+01  0.16238587302E+02  0.59302060783E+02  0.50000212933E+02 0.  0.
        -12    1    1    2    0    0  0.26145906507E+02  0.83314449598E+01 -0.16238587302E+02  0.31885939217E+02  0.00000000000E+00 0.  1.
         11    1    3    3    0    0 -0.21521967949E+02 -0.16017784685E+02  0.17436657708E+02  0.31996899270E+02  0.51100000000E-03 0. -1.
        -11    1    3    3    0    0 -0.10535282015E+02 -0.26472287415E+01 -0.80944981552E+01  0.13546988144E+02  0.51100000000E-03 0.  1.
        -12    1    3    3    0    0  0.59113434565E+01  0.10333568467E+02  0.68964277494E+01  0.13758173368E+02  0.00000000000E+00 0.  1.
</event>
<event>
 7    1  0.6065977E-013  0.5930192E+02  0.7816164E-02  0.1266605E+00
        -11   -1    0    0    0    0  0.00000000000E+00  0.00000000000E+00  0.45593999997E+02  0.45594000000E+02  0.51100000000E-03 0.  1.
         11   -1    0    0    0    0 -0.00000000000E+00 -0.00000000000E+00 -0.45593999997E+02  0.45594000000E+02  0.51100000000E-03 0. -1.
    9900012    2    1    2    0    0 -0.24115437395E+02  0.13466535231E+02 -0.15931744165E+02  0.59301915824E+02  0.49999948564E+02 0.  0.
        -12    1    1    2    0    0  0.24115437395E+02 -0.13466535231E+02  0.15931744165E+02  0.31886084176E+02  0.00000000000E+00 0.  1.
         11    1    3    3    0    0 -0.10797501175E+02  0.63462347255E+01 -0.18451022186E+02  0.22300245442E+02  0.51100000000E-03 0. -1.
        -11    1    3    3    0    0 -0.14228999230E+02  0.14839443657E+02  0.12720933217E+02  0.24176344829E+02  0.51100000000E-03 0.  1.
        -12    1    3    3    0    0  0.91106300896E+00 -0.77191431515E+01 -0.10201655197E+02  0.12825325553E+02  0.00000000000E+00 0.  1.
</event>
<event>
 7    1  0.6065977E-013  0.5930195E+02  0.7816164E-02  0.1266605E+00
        -11   -1    0    0    0    0  0.00000000000E+00  0.00000000000E+00  0.45593999997E+02  0.45594000000E+02  0.51100000000E-03 0. -1.
         11   -1    0    0    0    0 -0.00000000000E+00 -0.00000000000E+00 -0.45593999997E+02  0.45594000000E+02  0.51100000000E-03 0.  1.
    9900012    2    1    2    0    0 -0.13021724103E+02 -0.29052163940E+02 -0.17682029345E+01  0.59301951800E+02  0.50000014174E+02 0.  0.
        -12    1    1    2    0    0  0.13021724103E+02  0.29052163940E+02  0.17682029345E+01  0.31886048200E+02  0.00000000000E+00 0.  1.
         11    1    3    3    0    0 -0.10451943521E+02 -0.30237526294E+02  0.15242957627E+02  0.35438663593E+02  0.51100000000E-03 0. -1.
        -11    1    3    3    0    0  0.54040550827E+01  0.16727629253E+01 -0.14379533285E+02  0.15452278955E+02  0.51100000000E-03 0.  1.
         12    1    3    3    0    0 -0.79738356646E+01 -0.48740057110E+00 -0.26316272761E+01  0.84110092524E+01  0.00000000000E+00 0. -1.
</event>
<event>
 7    1  0.6065977E-013  0.5930195E+02  0.7816164E-02  0.1266605E+00
        -11   -1    0    0    0    0  0.00000000000E+00  0.00000000000E+00  0.45593999997E+02  0.45594000000E+02  0.51100000000E-03 0. -1.
         11   -1    0    0    0    0 -0.00000000000E+00 -0.00000000000E+00 -0.45593999997E+02  0.45594000000E+02  0.51100000000E-03 0.  1.
    9900012    2    1    2    0    0 -0.30358799306E+02  0.86998946661E+01  0.44017559757E+01  0.59301947905E+02  0.50000007072E+02 0.  0.
        -12    1    1    2    0    0  0.30358799306E+02 -0.86998946661E+01 -0.44017559757E+01  0.31886052095E+02  0.00000000000E+00 0.  1.
         11    1    3    3    0    0 -0.14983727033E+02  0.90508490227E+01  0.18074401102E+02  0.25161755091E+02  0.51100000000E-03 0. -1.
        -11    1    3    3    0    0  0.56198107861E+01 -0.72578496279E+01 -0.38504449383E+01  0.99541238176E+01  0.51100000000E-03 0.  1.
         12    1    3    3    0    0 -0.20994883059E+02  0.69068952713E+01 -0.98222001875E+01  0.24186068996E+02  0.00000000000E+00 0. -1.
</event>
<event>
 7    1  0.6065977E-013  0.5930195E+02  0.7816164E-02  0.1266605E+00
        -11   -1    0    0    0    0  0.00000000000E+00  0.00000000000E+00  0.45593999997E+02  0.45594000000E+02  0.51100000000E-03 0. -1.
         11   -1    0    0    0    0 -0.00000000000E+00 -0.00000000000E+00 -0.45593999997E+02  0.45594000000E+02  0.51100000000E-03 0.  1.
    9900012    2    1    2    0    0  0.16809476794E+01 -0.30531136331E+02  0.90412533860E+01  0.59301950801E+02  0.50000012352E+02 0.  0.
        -12    1    1    2    0    0 -0.16809476794E+01  0.30531136331E+02 -0.90412533860E+01  0.31886049199E+02  0.00000000000E+00 0.  1.
         11    1    3    3    0    0 -0.13403823507E+02  0.22553867136E+01  0.27118497609E+01  0.13860136479E+02  0.51100000000E-03 0. -1.
        -11    1    3    3    0    0  0.11186916453E+02 -0.37007563470E+02  0.79538002719E+01  0.39471126064E+02  0.51100000000E-03 0.  1.
        -12    1    3    3    0    0  0.38978547336E+01  0.42210404258E+01 -0.16243966468E+01  0.59706882574E+01  0.00000000000E+00 0.  1.
</event>
<event>
 7    1  0.6065977E-013  0.5930196E+02  0.7816164E-02  0.1266605E+00
        -11   -1    0    0    0    0  0.00000000000E+00  0.00000000000E+00  0.45593999997E+02  0.45594000000E+02  0.51100000000E-03 0. -1.
         11   -1    0    0    0    0 -0.00000000000E+00 -0.00000000000E+00 -0.45593999997E+02  0.45594000000E+02  0.51100000000E-03 0.  1.
    9900012    2    1    2    0    0 -0.21860834111E+01  0.29968872128E+02  0.10668047635E+02  0.59301960772E+02  0.50000030538E+02 0.  0.
        -12    1    1    2    0    0  0.21860834111E+01 -0.29968872128E+02 -0.10668047635E+02  0.31886039228E+02  0.00000000000E+00 0.  1.
         11    1    3    3    0    0 -0.90740351053E+00  0.20864775258E+01  0.18567925873E+02  0.18706807346E+02  0.51100000000E-03 0. -1.
        -11    1    3    3    0    0  0.40090790187E+01  0.30289795880E+02 -0.12671039657E+02  0.33077177862E+02  0.51100000000E-03 0.  1.
        -12    1    3    3    0    0 -0.52877589193E+01 -0.24074012784E+01  0.47711614190E+01  0.75179755646E+01  0.00000000000E+00 0.  1.
</event>
<event>
 7    1  0.7405023E-013  0.5930194E+02  0.7816164E-02  0.1266605E+00
        -11   -1    0    0    0    0  0.00000000000E+00  0.00000000000E+00  0.45593999997E+02  0.45594000000E+02  0.51100000000E-03 0.  1.
         11   -1    0    0    0    0 -0.00000000000E+00 -0.00000000000E+00 -0.45593999997E+02  0.45594000000E+02  0.51100000000E-03 0. -1.
    9900012    2    1    2    0    0 -0.18972388801E+02 -0.13537773666E+02 -0.21760013168E+02  0.59301936810E+02  0.49999986837E+02 0.  0.
        -12    1    1    2    0    0  0.18972388801E+02  0.13537773666E+02  0.21760013168E+02  0.31886063190E+02  0.00000000000E+00 0.  1.
         11    1    3    3    0    0 -0.19206180094E+02  0.11350420094E+02 -0.53988088474E+01  0.22953355470E+02  0.51100000000E-03 0. -1.
        -11    1    3    3    0    0  0.61218635737E+00 -0.12955457836E+02  0.32666709673E+01  0.13374969135E+02  0.51100000000E-03 0.  1.
         12    1    3    3    0    0 -0.37839506446E+00 -0.11932735923E+02 -0.19627875288E+02  0.22973612205E+02  0.00000000000E+00 0. -1.
</event>
<event>
 7    1  0.6065977E-013  0.5930192E+02  0.7816164E-02  0.1266605E+00
        -11   -1    0    0    0    0  0.00000000000E+00  0.00000000000E+00  0.45593999997E+02  0.45594000000E+02  0.51100000000E-03 0. -1.
         11   -1    0    0    0    0 -0.00000000000E+00 -0.00000000000E+00 -0.45593999997E+02  0.45594000000E+02  0.51100000000E-03 0.  1.
    9900012    2    1    2    0    0 -0.22996632079E+02 -0.21614237454E+02  0.45498979112E+01  0.59301922808E+02  0.49999961300E+02 0.  0.
        -12    1    1    2    0    0  0.22996632079E+02  0.21614237454E+02 -0.45498979112E+01  0.31886077192E+02  0.00000000000E+00 0.  1.
         11    1    3    3    0    0 -0.40636671866E+01 -0.21206509500E+02 -0.84931450077E+01  0.23202649602E+02  0.51100000000E-03 0. -1.
        -11    1    3    3    0    0 -0.54705452548E+01  0.11530588018E+02 -0.16503732912E+01  0.12868762865E+02  0.51100000000E-03 0.  1.
         12    1    3    3    0    0 -0.13462419637E+02 -0.11938315972E+02  0.14693416210E+02  0.23230510340E+02  0.00000000000E+00 0. -1.
</event>
<event>
 7    1  0.6065977E-013  0.5930194E+02  0.7816164E-02  0.1266605E+00
        -11   -1    0    0    0    0  0.00000000000E+00  0.00000000000E+00  0.45593999997E+02  0.45594000000E+02  0.51100000000E-03 0.  1.
         11   -1    0    0    0    0 -0.00000000000E+00 -0.00000000000E+00 -0.45593999997E+02  0.45594000000E+02  0.51100000000E-03 0. -1.
    9900012    2    1    2    0    0 -0.56561202408E+01  0.11979475689E+02 -0.29003813006E+02  0.59301941874E+02  0.49999996072E+02 0.  0.
        -12    1    1    2    0    0  0.56561202408E+01 -0.11979475689E+02  0.29003813006E+02  0.31886058126E+02  0.00000000000E+00 0.  1.
         11    1    3    3    0    0  0.91540662944E+01 -0.78335249250E+01 -0.17036470751E+02  0.20866297668E+02  0.51100000000E-03 0. -1.
        -11    1    3    3    0    0 -0.13994282102E+01  0.14037318316E+02  0.59600417125E+01  0.15314267932E+02  0.51100000000E-03 0.  1.
         12    1    3    3    0    0 -0.13410758325E+02  0.57756822975E+01 -0.17927383967E+02  0.23121376273E+02  0.00000000000E+00 0. -1.
</event>
<event>
 7    1  0.6065977E-013  0.5930192E+02  0.7816164E-02  0.1266605E+00
        -11   -1    0    0    0    0  0.00000000000E+00  0.00000000000E+00  0.45593999997E+02  0.45594000000E+02  0.51100000000E-03 0. -1.
         11   -1    0    0    0    0 -0.00000000000E+00 -0.00000000000E+00 -0.45593999997E+02  0.45594000000E+02  0.51100000000E-03 0.  1.
    9900012    2    1    2    0    0  0.10316326279E+02  0.63105051087E+01  0.29503776476E+02  0.59301923274E+02  0.49999962150E+02 0.  0.
        -12    1    1    2    0    0 -0.10316326279E+02 -0.63105051087E+01 -0.29503776476E+02  0.31886076726E+02  0.00000000000E+00 0.  1.
         11    1    3    3    0    0 -0.17617337305E+01  0.11513512612E+02  0.16596536996E+02  0.20275840770E+02  0.51100000000E-03 0. -1.
        -11    1    3    3    0    0 -0.47122836283E+01 -0.13123789484E+02  0.14837053538E+02  0.20361179371E+02  0.51100000000E-03 0.  1.
        -12    1    3    3    0    0  0.16790343638E+02  0.79207819803E+01 -0.19298140579E+01  0.18664903133E+02  0.00000000000E+00 0.  1.
</event>
<event>
 7    1  0.6065977E-013  0.5930195E+02  0.7816164E-02  0.1266605E+00
        -11   -1    0    0    0    0  0.00000000000E+00  0.00000000000E+00  0.45593999997E+02  0.45594000000E+02  0.51100000000E-03 0.  1.
         11   -1    0    0    0    0 -0.00000000000E+00 -0.00000000000E+00 -0.45593999997E+02  0.45594000000E+02  0.51100000000E-03 0. -1.
    9900012    2    1    2    0    0 -0.28249081120E+02 -0.14788517912E+02 -0.97857888137E-01  0.59301946272E+02  0.50000004094E+02 0.  0.
        -12    1    1    2    0    0  0.28249081120E+02  0.14788517912E+02  0.97857888137E-01  0.31886053728E+02  0.00000000000E+00 0.  1.
         11    1    3    3    0    0 -0.25426309784E+02 -0.10583098604E+01  0.74754138898E+01  0.26523556739E+02  0.51100000000E-03 0. -1.
        -11    1    3    3    0    0  0.48784714419E+01 -0.27574249357E+01 -0.15994078832E+02  0.16947372476E+02  0.51100000000E-03 0.  1.
        -12    1    3    3    0    0 -0.77012427780E+01 -0.10972783116E+02  0.84208070543E+01  0.15831017058E+02  0.00000000000E+00 0.  1.
</event>
<event>
 7    1  0.6065977E-013  0.5930192E+02  0.7816164E-02  0.1266605E+00
        -11   -1    0    0    0    0  0.00000000000E+00  0.00000000000E+00  0.45593999997E+02  0.45594000000E+02  0.51100000000E-03 0. -1.
         11   -1    0    0    0    0 -0.00000000000E+00 -0.00000000000E+00 -0.45593999997E+02  0.45594000000E+02  0.51100000000E-03 0.  1.
    9900012    2    1    2    0    0  0.82471021363E+01 -0.30801073902E+02  0.36050662862E-01  0.59301919231E+02  0.49999954777E+02 0.  0.
        -12    1    1    2    0    0 -0.82471021363E+01  0.30801073902E+02 -0.36050662862E-01  0.31886080769E+02  0.00000000000E+00 0.  1.
         11    1    3    3    0    0  0.13707397175E+02 -0.28170997983E+02 -0.37403025182E+01  0.31551350650E+02  0.51100000000E-03 0. -1.
        -11    1    3    3    0    0 -0.14676850899E+02  0.50210683736E+01  0.22941576982E+01  0.15680696404E+02  0.51100000000E-03 0.  1.
        -12    1    3    3    0    0  0.92165558602E+01 -0.76511442924E+01  0.14821954829E+01  0.12069872176E+02  0.00000000000E+00 0.  1.
</event>
<event>
 7    1  0.6065977E-013  0.5930194E+02  0.7816164E-02  0.1266605E+00
        -11   -1    0    0    0    0  0.00000000000E+00  0.00000000000E+00  0.45593999997E+02  0.45594000000E+02  0.51100000000E-03 0.  1.
         11   -1    0    0    0    0 -0.00000000000E+00 -0.00000000000E+00 -0.45593999997E+02  0.45594000000E+02  0.51100000000E-03 0. -1.
    9900012    2    1    2    0    0  0.22559021991E+01  0.46603187220E+01 -0.31462885178E+02  0.59301940208E+02  0.49999993034E+02 0.  0.
        -12    1    1    2    0    0 -0.22559021991E+01 -0.46603187220E+01  0.31462885178E+02  0.31886059792E+02  0.00000000000E+00 0.  1.
         11    1    3    3    0    0 -0.13585308419E+02  0.96287854014E+00 -0.35900924036E+02  0.38397448963E+02  0.51100000000E-03 0. -1.
        -11    1    3    3    0    0 -0.31328301378E+00 -0.27523090354E+01  0.18191175620E+01  0.33139915870E+01  0.51100000000E-03 0.  1.
         12    1    3    3    0    0  0.16154493632E+02  0.64497492173E+01  0.26189212959E+01  0.17590499659E+02  0.00000000000E+00 0. -1.
</event>
<event>
 7    1  0.6065977E-013  0.5930195E+02  0.7816164E-02  0.1266605E+00
        -11   -1    0    0    0    0  0.00000000000E+00  0.00000000000E+00  0.45593999997E+02  0.45594000000E+02  0.51100000000E-03 0. -1.
         11   -1    0    0    0    0 -0.00000000000E+00 -0.00000000000E+00 -0.45593999997E+02  0.45594000000E+02  0.51100000000E-03 0.  1.
    9900012    2    1    2    0    0 -0.16719662361E+02 -0.96591020381E+01  0.25374686712E+02  0.59301951525E+02  0.50000013673E+02 0.  0.
        -12    1    1    2    0    0  0.16719662361E+02  0.96591020381E+01 -0.25374686712E+02  0.31886048475E+02  0.00000000000E+00 0.  1.
         11    1    3    3    0    0 -0.13502387543E+02  0.25820129541E+01  0.37013084863E+02  0.39483537222E+02  0.51100000000E-03 0. -1.
        -11    1    3    3    0    0 -0.20924161773E+01 -0.13857428689E+02 -0.96201326320E+01  0.16998631929E+02  0.51100000000E-03 0.  1.
         12    1    3    3    0    0 -0.11248586414E+01  0.16163136971E+01 -0.20182655190E+01  0.28197823738E+01  0.00000000000E+00 0. -1.
</event>
<event>
 7    1  0.6065977E-013  0.5930196E+02  0.7816164E-02  0.1266605E+00
        -11   -1    0    0    0    0  0.00000000000E+00  0.00000000000E+00  0.45593999997E+02  0.45594000000E+02  0.51100000000E-03 0.  1.
         11   -1    0    0    0    0 -0.00000000000E+00 -0.00000000000E+00 -0.45593999997E+02  0.45594000000E+02  0.51100000000E-03 0. -1.
    9900012    2    1    2    0    0  0.68999197561E+00 -0.23387974781E+02  0.21662087010E+02  0.59301961254E+02  0.50000031417E+02 0.  0.
        -12    1    1    2    0    0 -0.68999197561E+00  0.23387974781E+02 -0.21662087010E+02  0.31886038746E+02  0.00000000000E+00 0.  1.
         11    1    3    3    0    0 -0.11402054404E+02 -0.10841126828E+02 -0.88327276925E+01  0.18043113764E+02  0.51100000000E-03 0. -1.
        -11    1    3    3    0    0  0.32491935704E+01 -0.27852861845E+01  0.27395525757E+02  0.27727782272E+02  0.51100000000E-03 0.  1.
         12    1    3    3    0    0  0.88428528094E+01 -0.97615617683E+01  0.30992889452E+01  0.13531065218E+02  0.00000000000E+00 0. -1.
</event>
<event>
 7    1  0.6065977E-013  0.5930194E+02  0.7816164E-02  0.1266605E+00
        -11   -1    0    0    0    0  0.00000000000E+00  0.00000000000E+00  0.45593999997E+02  0.45594000000E+02  0.51100000000E-03 0.  1.
         11   -1    0    0    0    0 -0.00000000000E+00 -0.00000000000E+00 -0.45593999997E+02  0.45594000000E+02  0.51100000000E-03 0. -1.
    9900012    2    1    2    0    0 -0.25150932816E+02  0.19135212521E+02  0.42420659734E+01  0.59301938728E+02  0.49999990335E+02 0.  0.
        -12    1    1    2    0    0  0.25150932816E+02 -0.19135212521E+02 -0.42420659734E+01  0.31886061272E+02  0.00000000000E+00 0.  1.
         11    1    3    3    0    0 -0.24529770252E+02  0.29156628411E+02 -0.62851639766E+01  0.38617637103E+02  0.51100000000E-03 0. -1.
        -11    1    3    3    0    0 -0.47070770370E+01 -0.12219349241E+02  0.85640903475E+01  0.15646492062E+02  0.51100000000E-03 0.  1.
         12    1    3    3    0    0  0.40859144734E+01  0.21979333506E+01  0.19631396025E+01  0.50378095633E+01  0.00000000000E+00 0. -1.
</event>
<event>
 7    1  0.6065977E-013  0.5930194E+02  0.7816164E-02  0.1266605E+00
        -11   -1    0    0    0    0  0.00000000000E+00  0.00000000000E+00  0.45593999997E+02  0.45594000000E+02  0.51100000000E-03 0. -1.
         11   -1    0    0    0    0 -0.00000000000E+00 -0.00000000000E+00 -0.45593999997E+02  0.45594000000E+02  0.51100000000E-03 0.  1.
    9900012    2    1    2    0    0  0.31694474532E+02 -0.28631052804E+01  0.19959126611E+01  0.59301941055E+02  0.49999994578E+02 0.  0.
        -12    1    1    2    0    0 -0.31694474532E+02  0.28631052804E+01 -0.19959126611E+01  0.31886058945E+02  0.00000000000E+00 0.  1.
         11    1    3    3    0    0  0.52350972260E+01  0.13302674846E+02  0.86687667502E+01  0.16718699658E+02  0.51100000000E-03 0. -1.
        -11    1    3    3    0    0  0.25955958214E+01 -0.15231540820E+02 -0.10095932950E+02  0.18457107461E+02  0.51100000000E-03 0.  1.
        -12    1    3    3    0    0  0.23863781485E+02 -0.93423930636E+00  0.34230788609E+01  0.24126133936E+02  0.00000000000E+00 0.  1.
</event>
<event>
 7    1  0.6065977E-013  0.5930195E+02  0.7816164E-02  0.1266605E+00
        -11   -1    0    0    0    0  0.00000000000E+00  0.00000000000E+00  0.45593999997E+02  0.45594000000E+02  0.51100000000E-03 0. -1.
         11   -1    0    0    0    0 -0.00000000000E+00 -0.00000000000E+00 -0.45593999997E+02  0.45594000000E+02  0.51100000000E-03 0.  1.
    9900012    2    1    2    0    0  0.48367101121E+01  0.23510774347E+02  0.20989758173E+02  0.59301949394E+02  0.50000009786E+02 0.  0.
        -12    1    1    2    0    0 -0.48367101121E+01 -0.23510774347E+02 -0.20989758173E+02  0.31886050606E+02  0.00000000000E+00 0.  1.
         11    1    3    3    0    0  0.35651318506E+01  0.11981819706E+02  0.19427294291E+02  0.23101816645E+02  0.51100000000E-03 0. -1.
        -11    1    3    3    0    0 -0.13636172395E+02  0.12216936971E+02 -0.62620023870E+01  0.19349713711E+02  0.51100000000E-03 0.  1.
        -12    1    3    3    0    0  0.14907750657E+02 -0.68798233009E+00  0.78244662690E+01  0.16850419037E+02  0.00000000000E+00 0.  1.
</event>
<event>
 7    1  0.6065977E-013  0.5930196E+02  0.7816164E-02  0.1266605E+00
        -11   -1    0    0    0    0  0.00000000000E+00  0.00000000000E+00  0.45593999997E+02  0.45594000000E+02  0.51100000000E-03 0. -1.
         11   -1    0    0    0    0 -0.00000000000E+00 -0.00000000000E+00 -0.45593999997E+02  0.45594000000E+02  0.51100000000E-03 0.  1.
    9900012    2    1    2    0    0 -0.23587079829E+02 -0.56836167618E+01  0.20689745973E+02  0.59301961946E+02  0.50000032678E+02 0.  0.
        -12    1    1    2    0    0  0.23587079829E+02  0.56836167618E+01 -0.20689745973E+02  0.31886038054E+02  0.00000000000E+00 0.  1.
         11    1    3    3    0    0  0.20902315642E+01 -0.18442904517E+02  0.14848117375E+01  0.18620270170E+02  0.51100000000E-03 0.  1.
        -11    1    3    3    0    0 -0.25353542827E+02  0.59884982570E+01  0.21231014413E+02  0.33606847792E+02  0.51100000000E-03 0. -1.
        -12    1    3    3    0    0 -0.32376856647E+00  0.67707894987E+01 -0.20260801769E+01  0.70748439844E+01  0.00000000000E+00 0.  1.
</event>
<event>
 7    1  0.6065977E-013  0.5930194E+02  0.7816164E-02  0.1266605E+00
        -11   -1    0    0    0    0  0.00000000000E+00  0.00000000000E+00  0.45593999997E+02  0.45594000000E+02  0.51100000000E-03 0.  1.
         11   -1    0    0    0    0 -0.00000000000E+00 -0.00000000000E+00 -0.45593999997E+02  0.45594000000E+02  0.51100000000E-03 0. -1.
    9900012    2    1    2    0    0 -0.12432058718E+02 -0.79285975807E+01 -0.28271927289E+02  0.59301943232E+02  0.49999998549E+02 0.  0.
        -12    1    1    2    0    0  0.12432058718E+02  0.79285975807E+01  0.28271927289E+02  0.31886056768E+02  0.00000000000E+00 0.  1.
         11    1    3    3    0    0  0.20496042152E+01 -0.15548213361E+02 -0.11706105000E+02  0.19569892966E+02  0.51100000000E-03 0. -1.
        -11    1    3    3    0    0 -0.16292911950E+02  0.17616597122E+02 -0.17244675874E+02  0.29549658547E+02  0.51100000000E-03 0.  1.
        -12    1    3    3    0    0  0.18112490173E+01 -0.99969813414E+01  0.67885358467E+00  0.10182391720E+02  0.00000000000E+00 0.  1.
</event>
<event>
 7    1  0.7079705E-013  0.5930193E+02  0.7816164E-02  0.1266605E+00
        -11   -1    0    0    0    0  0.00000000000E+00  0.00000000000E+00  0.45593999997E+02  0.45594000000E+02  0.51100000000E-03 0.  1.
         11   -1    0    0    0    0 -0.00000000000E+00 -0.00000000000E+00 -0.45593999997E+02  0.45594000000E+02  0.51100000000E-03 0. -1.
    9900012    2    1    2    0    0  0.14537835169E+02  0.27915057340E+02  0.51110024518E+01  0.59301930569E+02  0.49999975454E+02 0.  0.
        -12    1    1    2    0    0 -0.14537835169E+02 -0.27915057340E+02 -0.51110024518E+01  0.31886069431E+02  0.00000000000E+00 0.  1.
         11    1    3    3    0    0  0.76759565468E+01  0.21141404645E+02 -0.83920533969E+01  0.24006371232E+02  0.51100000000E-03 0. -1.
        -11    1    3    3    0    0 -0.20219983061E+01 -0.11733122888E+02  0.32111230505E+01  0.12331502803E+02  0.51100000000E-03 0.  1.
         12    1    3    3    0    0  0.88838769281E+01  0.18506775584E+02  0.10291932798E+02  0.22964056534E+02  0.00000000000E+00 0. -1.
</event>
<event>
 7    1  0.6065977E-013  0.5930194E+02  0.7816164E-02  0.1266605E+00
        -11   -1    0    0    0    0  0.00000000000E+00  0.00000000000E+00  0.45593999997E+02  0.45594000000E+02  0.51100000000E-03 0.  1.
         11   -1    0    0    0    0 -0.00000000000E+00 -0.00000000000E+00 -0.45593999997E+02  0.45594000000E+02  0.51100000000E-03 0. -1.
    9900012    2    1    2    0    0  0.22272668558E+02  0.10538302659E+02 -0.20238408092E+02  0.59301941138E+02  0.49999994731E+02 0.  0.
        -12    1    1    2    0    0 -0.22272668558E+02 -0.10538302659E+02  0.20238408092E+02  0.31886058862E+02  0.00000000000E+00 0.  1.
         11    1    3    3    0    0 -0.31953623375E+01 -0.10177870181E+02 -0.92422751961E+01  0.14114497262E+02  0.51100000000E-03 0. -1.
        -11    1    3    3    0    0  0.16785594473E+02  0.84200875855E+01  0.84529483522E+01  0.20593843567E+02  0.51100000000E-03 0.  1.
         12    1    3    3    0    0  0.86824364231E+01  0.12296085254E+02 -0.19449081248E+02  0.24593600310E+02  0.00000000000E+00 0. -1.
</event>
<event>
 7    1  0.6065977E-013  0.5930207E+02  0.7816164E-02  0.1266604E+00
        -11   -1    0    0    0    0  0.00000000000E+00  0.00000000000E+00  0.45593999997E+02  0.45594000000E+02  0.51100000000E-03 0.  1.
         11   -1    0    0    0    0 -0.00000000000E+00 -0.00000000000E+00 -0.45593999997E+02  0.45594000000E+02  0.51100000000E-03 0. -1.
    9900012    2    1    2    0    0 -0.13553396008E+02  0.25677532957E+02 -0.13178858245E+02  0.59302069768E+02  0.50000229320E+02 0.  0.
        -12    1    1    2    0    0  0.13553396008E+02 -0.25677532957E+02  0.13178858245E+02  0.31885930232E+02  0.00000000000E+00 0.  1.
         11    1    3    3    0    0 -0.71278303905E+01  0.11203487184E+02 -0.25045777110E+02  0.28348104742E+02  0.51100000000E-03 0. -1.
        -11    1    3    3    0    0 -0.15002083869E+02  0.56156465086E+01  0.86781028137E+01  0.18218327992E+02  0.51100000000E-03 0.  1.
        -12    1    3    3    0    0  0.85765182523E+01  0.88583992645E+01  0.31888160510E+01  0.12735637034E+02  0.00000000000E+00 0.  1.
</event>
<event>
 7    1  0.6065977E-013  0.5930194E+02  0.7816164E-02  0.1266605E+00
        -11   -1    0    0    0    0  0.00000000000E+00  0.00000000000E+00  0.45593999997E+02  0.45594000000E+02  0.51100000000E-03 0.  1.
         11   -1    0    0    0    0 -0.00000000000E+00 -0.00000000000E+00 -0.45593999997E+02  0.45594000000E+02  0.51100000000E-03 0. -1.
    9900012    2    1    2    0    0 -0.26704306104E+02 -0.44384733639E+01 -0.16849351611E+02  0.59301942545E+02  0.49999997296E+02 0.  0.
        -12    1    1    2    0    0  0.26704306104E+02  0.44384733639E+01  0.16849351611E+02  0.31886057455E+02  0.00000000000E+00 0.  1.
         11    1    3    3    0    0 -0.19047835225E+02 -0.56695857274E+01 -0.71947201451E+01  0.21135946331E+02  0.51100000000E-03 0. -1.
        -11    1    3    3    0    0  0.10937231880E+02  0.55854821209E+01 -0.13956761095E+02  0.18590638296E+02  0.51100000000E-03 0.  1.
         12    1    3    3    0    0 -0.18593702760E+02 -0.43543697574E+01  0.43021296297E+01  0.19575357919E+02  0.00000000000E+00 0. -1.
</event>
<event>
 7    1  0.6065977E-013  0.5930196E+02  0.7816164E-02  0.1266605E+00
        -11   -1    0    0    0    0  0.00000000000E+00  0.00000000000E+00  0.45593999997E+02  0.45594000000E+02  0.51100000000E-03 0.  1.
         11   -1    0    0    0    0 -0.00000000000E+00 -0.00000000000E+00 -0.45593999997E+02  0.45594000000E+02  0.51100000000E-03 0. -1.
    9900012    2    1    2    0    0 -0.12413968735E+01  0.31542743021E+02 -0.44981943980E+01  0.59301961420E+02  0.50000031719E+02 0.  0.
        -12    1    1    2    0    0  0.12413968735E+01 -0.31542743021E+02  0.44981943980E+01  0.31886038580E+02  0.00000000000E+00 0.  1.
         11    1    3    3    0    0  0.18824380877E+02  0.98016378571E+01 -0.15370653939E+02  0.26204702304E+02  0.51100000000E-03 0. -1.
        -11    1    3    3    0    0 -0.16725772168E+02  0.14796010868E+02  0.11930992705E+02  0.25318411866E+02  0.51100000000E-03 0.  1.
         12    1    3    3    0    0 -0.33400055823E+01  0.69450942963E+01 -0.10585331636E+01  0.77788472496E+01  0.00000000000E+00 0. -1.
</event>
<event>
 7    1  0.6065977E-013  0.5930195E+02  0.7816164E-02  0.1266605E+00
        -11   -1    0    0    0    0  0.00000000000E+00  0.00000000000E+00  0.45593999997E+02  0.45594000000E+02  0.51100000000E-03 0. -1.
         11   -1    0    0    0    0 -0.00000000000E+00 -0.00000000000E+00 -0.45593999997E+02  0.45594000000E+02  0.51100000000E-03 0.  1.
    9900012    2    1    2    0    0  0.28067548170E+02  0.12797046884E+02  0.80727118462E+01  0.59301947473E+02  0.50000006283E+02 0.  0.
        -12    1    1    2    0    0 -0.28067548170E+02 -0.12797046884E+02 -0.80727118462E+01  0.31886052527E+02  0.00000000000E+00 0.  1.
         11    1    3    3    0    0  0.96978334030E+00 -0.77001316849E+01  0.64157568628E+00  0.77874339364E+01  0.51100000000E-03 0. -1.
        -11    1    3    3    0    0  0.23734658802E+02  0.14344410587E+02 -0.12475198737E+02  0.30409319744E+02  0.51100000000E-03 0.  1.
        -12    1    3    3    0    0  0.33631060278E+01  0.61527679814E+01  0.19906334897E+02  0.21105193792E+02  0.00000000000E+00 0.  1.
</event>
<event>
 7    1  0.6065977E-013  0.5930196E+02  0.7816164E-02  0.1266605E+00
        -11   -1    0    0    0    0  0.00000000000E+00  0.00000000000E+00  0.45593999997E+02  0.45594000000E+02  0.51100000000E-03 0. -1.
         11   -1    0    0    0    0 -0.00000000000E+00 -0.00000000000E+00 -0.45593999997E+02  0.45594000000E+02  0.51100000000E-03 0.  1.
    9900012    2    1    2    0    0 -0.11092732479E+02 -0.20982322652E+02  0.21293495546E+02  0.59301960260E+02  0.50000029604E+02 0.  0.
        -12    1    1    2    0    0  0.11092732479E+02  0.20982322652E+02 -0.21293495546E+02  0.31886039740E+02  0.00000000000E+00 0.  1.
         11    1    3    3    0    0 -0.16068216153E+02 -0.25794938162E+02  0.49573923757E+01  0.30791916871E+02  0.51100000000E-03 0. -1.
        -11    1    3    3    0    0  0.74295805431E+01 -0.75260592136E+01  0.55743015672E+01  0.11954625572E+02  0.51100000000E-03 0.  1.
        -12    1    3    3    0    0 -0.24540968686E+01  0.12338674724E+02  0.10761801603E+02  0.16555417818E+02  0.00000000000E+00 0.  1.
</event>
<event>
 7    1  0.6065977E-013  0.5930194E+02  0.7816164E-02  0.1266605E+00
        -11   -1    0    0    0    0  0.00000000000E+00  0.00000000000E+00  0.45593999997E+02  0.45594000000E+02  0.51100000000E-03 0.  1.
         11   -1    0    0    0    0 -0.00000000000E+00 -0.00000000000E+00 -0.45593999997E+02  0.45594000000E+02  0.51100000000E-03 0. -1.
    9900012    2    1    2    0    0 -0.98088615985E+01  0.26827202269E+02 -0.14170675606E+02  0.59301943571E+02  0.49999999167E+02 0.  0.
        -12    1    1    2    0    0  0.98088615985E+01 -0.26827202269E+02  0.14170675606E+02  0.31886056429E+02  0.00000000000E+00 0.  1.
         11    1    3    3    0    0  0.64999402559E+01  0.27647452121E+02  0.55674326056E+01  0.28941788787E+02  0.51100000000E-03 0. -1.
        -11    1    3    3    0    0 -0.10981048527E+02  0.23820050812E+01 -0.21182730122E+02  0.23978436784E+02  0.51100000000E-03 0.  1.
         12    1    3    3    0    0 -0.53277533272E+01 -0.32022549325E+01  0.14446219096E+01  0.63817179999E+01  0.00000000000E+00 0. -1.
</event>
<event>
 7    1  0.6065977E-013  0.5930195E+02  0.7816164E-02  0.1266605E+00
        -11   -1    0    0    0    0  0.00000000000E+00  0.00000000000E+00  0.45593999997E+02  0.45594000000E+02  0.51100000000E-03 0.  1.
         11   -1    0    0    0    0 -0.00000000000E+00 -0.00000000000E+00 -0.45593999997E+02  0.45594000000E+02  0.51100000000E-03 0. -1.
    9900012    2    1    2    0    0  0.17675226744E+01  0.19699328655E+02 -0.25010641935E+02  0.59301954528E+02  0.50000019150E+02 0.  0.
        -12    1    1    2    0    0 -0.17675226744E+01 -0.19699328655E+02  0.25010641935E+02  0.31886045472E+02  0.00000000000E+00 0.  1.
         11    1    3    3    0    0 -0.62409882599E+01  0.27772878779E+02 -0.11779557377E+02  0.30806504222E+02  0.51100000000E-03 0. -1.
        -11    1    3    3    0    0 -0.57782765347E+01 -0.39815868879E+01 -0.12203978953E+02  0.14077592706E+02  0.51100000000E-03 0.  1.
        -12    1    3    3    0    0  0.13786787469E+02 -0.40919632362E+01 -0.10271056051E+01  0.14417857600E+02  0.00000000000E+00 0.  1.
</event>
<event>
 7    1  0.6065977E-013  0.5930193E+02  0.7816164E-02  0.1266605E+00
        -11   -1    0    0    0    0  0.00000000000E+00  0.00000000000E+00  0.45593999997E+02  0.45594000000E+02  0.51100000000E-03 0.  1.
         11   -1    0    0    0    0 -0.00000000000E+00 -0.00000000000E+00 -0.45593999997E+02  0.45594000000E+02  0.51100000000E-03 0. -1.
    9900012    2    1    2    0    0 -0.27076648796E+00  0.25783459641E+02 -0.18757965580E+02  0.59301931283E+02  0.49999976756E+02 0.  0.
        -12    1    1    2    0    0  0.27076648796E+00 -0.25783459641E+02  0.18757965580E+02  0.31886068717E+02  0.00000000000E+00 0.  1.
         11    1    3    3    0    0 -0.31051703261E+01 -0.41296147748E+01 -0.12860543826E+02  0.13859631622E+02  0.51100000000E-03 0. -1.
        -11    1    3    3    0    0  0.99514159286E+01  0.19873570978E+02  0.10791122343E+02  0.24707039970E+02  0.51100000000E-03 0.  1.
        -12    1    3    3    0    0 -0.71170120904E+01  0.10039503438E+02 -0.16688544096E+02  0.20735259691E+02  0.00000000000E+00 0.  1.
</event>
<event>
 7    1  0.6065977E-013  0.5930194E+02  0.7816164E-02  0.1266605E+00
        -11   -1    0    0    0    0  0.00000000000E+00  0.00000000000E+00  0.45593999997E+02  0.45594000000E+02  0.51100000000E-03 0. -1.
         11   -1    0    0    0    0 -0.00000000000E+00 -0.00000000000E+00 -0.45593999997E+02  0.45594000000E+02  0.51100000000E-03 0.  1.
    9900012    2    1    2    0    0  0.21686089095E+01  0.27017268335E+02  0.16795384267E+02  0.59301943712E+02  0.49999999425E+02 0.  0.
        -12    1    1    2    0    0 -0.21686089095E+01 -0.27017268335E+02 -0.16795384267E+02  0.31886056288E+02  0.00000000000E+00 0.  1.
         11    1    3    3    0    0  0.11854566258E+02  0.17989913360E+02  0.40051484890E+01  0.21913670129E+02  0.51100000000E-03 0.  1.
        -11    1    3    3    0    0 -0.15155166062E+02  0.18208585118E+02  0.51293415692E+01  0.24239261036E+02  0.51100000000E-03 0. -1.
        -12    1    3    3    0    0  0.54692087139E+01 -0.91812301428E+01  0.76608942093E+01  0.13149012548E+02  0.00000000000E+00 0.  1.
</event>
<event>
 7    1  0.6065977E-013  0.5930194E+02  0.7816164E-02  0.1266605E+00
        -11   -1    0    0    0    0  0.00000000000E+00  0.00000000000E+00  0.45593999997E+02  0.45594000000E+02  0.51100000000E-03 0.  1.
         11   -1    0    0    0    0 -0.00000000000E+00 -0.00000000000E+00 -0.45593999997E+02  0.45594000000E+02  0.51100000000E-03 0. -1.
    9900012    2    1    2    0    0  0.15704769618E+02 -0.23889831812E+02 -0.14119382649E+02  0.59301940049E+02  0.49999992745E+02 0.  0.
        -12    1    1    2    0    0 -0.15704769618E+02  0.23889831812E+02  0.14119382649E+02  0.31886059951E+02  0.00000000000E+00 0.  1.
         11    1    3    3    0    0  0.18964749756E+02 -0.71843997164E+01  0.51307115389E+01  0.20918927643E+02  0.51100000000E-03 0. -1.
        -11    1    3    3    0    0 -0.10368052166E+02 -0.16116828916E+02 -0.14633528603E+01  0.19219523456E+02  0.51100000000E-03 0.  1.
         12    1    3    3    0    0  0.71080720285E+01 -0.58860317940E+00 -0.17786741328E+02  0.19163488950E+02  0.00000000000E+00 0. -1.
</event>
<event>
 7    1  0.6065977E-013  0.5930194E+02  0.7816164E-02  0.1266605E+00
        -11   -1    0    0    0    0  0.00000000000E+00  0.00000000000E+00  0.45593999997E+02  0.45594000000E+02  0.51100000000E-03 0. -1.
         11   -1    0    0    0    0 -0.00000000000E+00 -0.00000000000E+00 -0.45593999997E+02  0.45594000000E+02  0.51100000000E-03 0.  1.
    9900012    2    1    2    0    0  0.30912024122E+02  0.20293116531E+01 -0.75531312235E+01  0.59301935138E+02  0.49999983787E+02 0.  0.
        -12    1    1    2    0    0 -0.30912024122E+02 -0.20293116531E+01  0.75531312235E+01  0.31886064862E+02  0.00000000000E+00 0.  1.
         11    1    3    3    0    0 -0.38035261265E+01  0.74851073388E+01 -0.17341974340E+01  0.85732773121E+01  0.51100000000E-03 0. -1.
        -11    1    3    3    0    0  0.21593305948E+02 -0.15991646066E+02 -0.15791832326E+02  0.31167059120E+02  0.51100000000E-03 0.  1.
        -12    1    3    3    0    0  0.13122244300E+02  0.10535850380E+02  0.99728985368E+01  0.19561598706E+02  0.00000000000E+00 0.  1.
</event>
<event>
 7    1  0.6065977E-013  0.5930195E+02  0.7816164E-02  0.1266605E+00
        -11   -1    0    0    0    0  0.00000000000E+00  0.00000000000E+00  0.45593999997E+02  0.45594000000E+02  0.51100000000E-03 0. -1.
         11   -1    0    0    0    0 -0.00000000000E+00 -0.00000000000E+00 -0.45593999997E+02  0.45594000000E+02  0.51100000000E-03 0.  1.
    9900012    2    1    2    0    0 -0.12349660112E+02  0.29049021619E+02  0.45122718618E+01  0.59301947261E+02  0.50000005897E+02 0.  0.
        -12    1    1    2    0    0  0.12349660112E+02 -0.29049021619E+02 -0.45122718618E+01  0.31886052739E+02  0.00000000000E+00 0.  1.
         11    1    3    3    0    0 -0.19282707118E+02  0.15987907256E+02  0.30435160013E+01  0.25232894447E+02  0.51100000000E-03 0. -1.
        -11    1    3    3    0    0  0.16580927381E+01 -0.98021443269E+01  0.34467469872E+01  0.10521947063E+02  0.51100000000E-03 0.  1.
        -12    1    3    3    0    0  0.52749542676E+01  0.22863258689E+02 -0.19779911266E+01  0.23547105752E+02  0.00000000000E+00 0.  1.
</event>
<event>
 7    1  0.6065977E-013  0.5930195E+02  0.7816164E-02  0.1266605E+00
        -11   -1    0    0    0    0  0.00000000000E+00  0.00000000000E+00  0.45593999997E+02  0.45594000000E+02  0.51100000000E-03 0.  1.
         11   -1    0    0    0    0 -0.00000000000E+00 -0.00000000000E+00 -0.45593999997E+02  0.45594000000E+02  0.51100000000E-03 0. -1.
    9900012    2    1    2    0    0 -0.21918199306E+01 -0.27168122533E+02 -0.16547178188E+02  0.59301951914E+02  0.50000014383E+02 0.  0.
        -12    1    1    2    0    0  0.21918199306E+01  0.27168122533E+02  0.16547178188E+02  0.31886048086E+02  0.00000000000E+00 0.  1.
         11    1    3    3    0    0 -0.57992866028E+01 -0.25131923704E+02  0.11889412233E+01  0.25819738489E+02  0.51100000000E-03 0. -1.
        -11    1    3    3    0    0  0.83253390719E+01 -0.98829262623E+01 -0.20219030618E+02  0.23995680894E+02  0.51100000000E-03 0.  1.
        -12    1    3    3    0    0 -0.47178723997E+01  0.78467274333E+01  0.24829112073E+01  0.94865325306E+01  0.00000000000E+00 0.  1.
</event>
<event>
 7    1  0.6065977E-013  0.5930193E+02  0.7816164E-02  0.1266605E+00
        -11   -1    0    0    0    0  0.00000000000E+00  0.00000000000E+00  0.45593999997E+02  0.45594000000E+02  0.51100000000E-03 0.  1.
         11   -1    0    0    0    0 -0.00000000000E+00 -0.00000000000E+00 -0.45593999997E+02  0.45594000000E+02  0.51100000000E-03 0. -1.
    9900012    2    1    2    0    0 -0.74897103280E+01  0.11070762714E+02 -0.28949336121E+02  0.59301927653E+02  0.49999970137E+02 0.  0.
        -12    1    1    2    0    0  0.74897103280E+01 -0.11070762714E+02  0.28949336121E+02  0.31886072347E+02  0.00000000000E+00 0.  1.
         11    1    3    3    0    0 -0.18802624189E+02  0.26454074440E+02 -0.17931070189E+02  0.37079374446E+02  0.51100000000E-03 0. -1.
        -11    1    3    3    0    0  0.58395069916E+01 -0.62382635950E+01 -0.60086608985E+01  0.10446041386E+02  0.51100000000E-03 0.  1.
         12    1    3    3    0    0  0.54734068695E+01 -0.91450481317E+01 -0.50096050329E+01  0.11776511821E+02  0.00000000000E+00 0. -1.
</event>
<event>
 7    1  0.6065977E-013  0.5930194E+02  0.7816164E-02  0.1266605E+00
        -11   -1    0    0    0    0  0.00000000000E+00  0.00000000000E+00  0.45593999997E+02  0.45594000000E+02  0.51100000000E-03 0. -1.
         11   -1    0    0    0    0 -0.00000000000E+00 -0.00000000000E+00 -0.45593999997E+02  0.45594000000E+02  0.51100000000E-03 0.  1.
    9900012    2    1    2    0    0  0.30803347414E+02  0.77258611243E+01  0.28610283506E+01  0.59301943091E+02  0.49999998291E+02 0.  0.
        -12    1    1    2    0    0 -0.30803347414E+02 -0.77258611243E+01 -0.28610283506E+01  0.31886056909E+02  0.00000000000E+00 0.  1.
         11    1    3    3    0    0  0.35058571562E+02  0.14728800440E+01  0.58948842038E+01  0.35581209587E+02  0.51100000000E-03 0. -1.
        -11    1    3    3    0    0 -0.91376399223E+01  0.12528387032E+02 -0.11478985130E+01  0.15549103390E+02  0.51100000000E-03 0.  1.
        -12    1    3    3    0    0  0.48824157736E+01 -0.62754059514E+01 -0.18859573402E+01  0.81716301146E+01  0.00000000000E+00 0.  1.
</event>
<event>
 7    1  0.6065977E-013  0.5930194E+02  0.7816164E-02  0.1266605E+00
        -11   -1    0    0    0    0  0.00000000000E+00  0.00000000000E+00  0.45593999997E+02  0.45594000000E+02  0.51100000000E-03 0.  1.
         11   -1    0    0    0    0 -0.00000000000E+00 -0.00000000000E+00 -0.45593999997E+02  0.45594000000E+02  0.51100000000E-03 0. -1.
    9900012    2    1    2    0    0 -0.26209284994E+01  0.27273925999E+02 -0.16309023757E+02  0.59301944090E+02  0.50000000113E+02 0.  0.
        -12    1    1    2    0    0  0.26209284994E+01 -0.27273925999E+02  0.16309023757E+02  0.31886055910E+02  0.00000000000E+00 0.  1.
         11    1    3    3    0    0 -0.17848792577E+02  0.21047013150E+00 -0.39156876220E+01  0.18274471373E+02  0.51100000000E-03 0. -1.
        -11    1    3    3    0    0  0.54824262990E+01  0.27862261176E+02 -0.51523724580E+01  0.28860172179E+02  0.51100000000E-03 0.  1.
         12    1    3    3    0    0  0.97454377787E+01 -0.79880530897E+00 -0.72409636773E+01  0.12167300539E+02  0.00000000000E+00 0. -1.
</event>
<event>
 7    1  0.6065977E-013  0.5930195E+02  0.7816164E-02  0.1266605E+00
        -11   -1    0    0    0    0  0.00000000000E+00  0.00000000000E+00  0.45593999997E+02  0.45594000000E+02  0.51100000000E-03 0.  1.
         11   -1    0    0    0    0 -0.00000000000E+00 -0.00000000000E+00 -0.45593999997E+02  0.45594000000E+02  0.51100000000E-03 0. -1.
    9900012    2    1    2    0    0 -0.28682426133E+02 -0.54846826825E+01  0.12804558694E+02  0.59301952325E+02  0.50000015132E+02 0.  0.
        -12    1    1    2    0    0  0.28682426133E+02  0.54846826825E+01 -0.12804558694E+02  0.31886047675E+02  0.00000000000E+00 0.  1.
         11    1    3    3    0    0 -0.11400181800E+02  0.70910353150E+01 -0.25964142623E+01  0.13674366318E+02  0.51100000000E-03 0. -1.
        -11    1    3    3    0    0 -0.12020849791E+02 -0.10856063480E+02  0.27729439518E+02  0.32113498100E+02  0.51100000000E-03 0.  1.
        -12    1    3    3    0    0 -0.52613945413E+01 -0.17196545176E+01 -0.12328466562E+02  0.13514087907E+02  0.00000000000E+00 0.  1.
</event>
<event>
 7    1  0.6065977E-013  0.5930193E+02  0.7816164E-02  0.1266605E+00
        -11   -1    0    0    0    0  0.00000000000E+00  0.00000000000E+00  0.45593999997E+02  0.45594000000E+02  0.51100000000E-03 0.  1.
         11   -1    0    0    0    0 -0.00000000000E+00 -0.00000000000E+00 -0.45593999997E+02  0.45594000000E+02  0.51100000000E-03 0. -1.
    9900012    2    1    2    0    0  0.27919596438E+02  0.25564441983E+01 -0.15188224150E+02  0.59301930549E+02  0.49999975418E+02 0.  0.
        -12    1    1    2    0    0 -0.27919596438E+02 -0.25564441983E+01  0.15188224150E+02  0.31886069451E+02  0.00000000000E+00 0.  1.
         11    1    3    3    0    0 -0.10727501652E+02  0.29504896597E+01 -0.11267303119E+02  0.15834670845E+02  0.51100000000E-03 0.  1.
        -11    1    3    3    0    0  0.11344438974E+02  0.13470745643E+01  0.76646769265E+01  0.13757113730E+02  0.51100000000E-03 0. -1.
         12    1    3    3    0    0  0.27302659117E+02 -0.17411200257E+01 -0.11585597958E+02  0.29710145974E+02  0.00000000000E+00 0. -1.
</event>
<event>
 7    1  0.6065977E-013  0.5930193E+02  0.7816164E-02  0.1266605E+00
        -11   -1    0    0    0    0  0.00000000000E+00  0.00000000000E+00  0.45593999997E+02  0.45594000000E+02  0.51100000000E-03 0. -1.
         11   -1    0    0    0    0 -0.00000000000E+00 -0.00000000000E+00 -0.45593999997E+02  0.45594000000E+02  0.51100000000E-03 0.  1.
    9900012    2    1    2    0    0  0.50320554677E+01  0.20358137920E+02 -0.24019696482E+02  0.59301934377E+02  0.49999982400E+02 0.  0.
        -12    1    1    2    0    0 -0.50320554677E+01 -0.20358137920E+02  0.24019696482E+02  0.31886065623E+02  0.00000000000E+00 0.  1.
         11    1    3    3    0    0  0.96682814604E+01  0.17402258442E+02 -0.84441306522E+01  0.21624467809E+02  0.51100000000E-03 0. -1.
        -11    1    3    3    0    0 -0.15255766121E+02 -0.25578737722E+00 -0.20486914133E+02  0.25544421663E+02  0.51100000000E-03 0.  1.
        -12    1    3    3    0    0  0.10619540128E+02  0.32116668556E+01  0.49113483033E+01  0.12133044906E+02  0.00000000000E+00 0.  1.
</event>
<event>
 7    1  0.6065977E-013  0.5930201E+02  0.7816164E-02  0.1266605E+00
        -11   -1    0    0    0    0  0.00000000000E+00  0.00000000000E+00  0.45593999997E+02  0.45594000000E+02  0.51100000000E-03 0.  1.
         11   -1    0    0    0    0 -0.00000000000E+00 -0.00000000000E+00 -0.45593999997E+02  0.45594000000E+02  0.51100000000E-03 0. -1.
    9900012    2    1    2    0    0 -0.28062575010E+01 -0.12985730334E+02 -0.28986409140E+02  0.59302012666E+02  0.50000125179E+02 0.  0.
        -12    1    1    2    0    0  0.28062575010E+01  0.12985730334E+02  0.28986409140E+02  0.31885987334E+02  0.00000000000E+00 0.  1.
         11    1    3    3    0    0 -0.13630815450E+02 -0.71033653792E+01  0.94098851947E+00  0.15399428210E+02  0.51100000000E-03 0. -1.
        -11    1    3    3    0    0  0.15855649607E+02 -0.14787793402E+02 -0.17912665111E+02  0.28123727168E+02  0.51100000000E-03 0.  1.
        -12    1    3    3    0    0 -0.50310916582E+01  0.89054284471E+01 -0.12014732548E+02  0.15778857287E+02  0.00000000000E+00 0.  1.
</event>
<event>
 7    1  0.6065977E-013  0.5930205E+02  0.7816164E-02  0.1266604E+00
        -11   -1    0    0    0    0  0.00000000000E+00  0.00000000000E+00  0.45593999997E+02  0.45594000000E+02  0.51100000000E-03 0. -1.
         11   -1    0    0    0    0 -0.00000000000E+00 -0.00000000000E+00 -0.45593999997E+02  0.45594000000E+02  0.51100000000E-03 0.  1.
    9900012    2    1    2    0    0 -0.97578019802E+01  0.89065248725E+01  0.29020219609E+02  0.59302046494E+02  0.50000186874E+02 0.  0.
        -12    1    1    2    0    0  0.97578019802E+01 -0.89065248725E+01 -0.29020219609E+02  0.31885953506E+02  0.00000000000E+00 0.  1.
         11    1    3    3    0    0  0.11615660811E+02 -0.75687855858E+01  0.14931143555E+02  0.20375208943E+02  0.51100000000E-03 0.  1.
        -11    1    3    3    0    0 -0.11735728162E+02  0.22078589649E+02  0.11278239187E+02  0.27429730509E+02  0.51100000000E-03 0. -1.
         12    1    3    3    0    0 -0.96377346292E+01 -0.56032791902E+01  0.28108368669E+01  0.11497107043E+02  0.00000000000E+00 0. -1.
</event>
<event>
 7    1  0.6065977E-013  0.5930195E+02  0.7816164E-02  0.1266605E+00
        -11   -1    0    0    0    0  0.00000000000E+00  0.00000000000E+00  0.45593999997E+02  0.45594000000E+02  0.51100000000E-03 0.  1.
         11   -1    0    0    0    0 -0.00000000000E+00 -0.00000000000E+00 -0.45593999997E+02  0.45594000000E+02  0.51100000000E-03 0. -1.
    9900012    2    1    2    0    0  0.12943912439E+02  0.25261972733E+02 -0.14526105303E+02  0.59301954920E+02  0.50000019865E+02 0.  0.
        -12    1    1    2    0    0 -0.12943912439E+02 -0.25261972733E+02  0.14526105303E+02  0.31886045080E+02  0.00000000000E+00 0.  1.
         11    1    3    3    0    0 -0.97414457552E+01  0.24010091400E+02 -0.15679678316E+02  0.30285847632E+02  0.51100000000E-03 0. -1.
        -11    1    3    3    0    0  0.53417694857E+01 -0.48823638471E+01 -0.58763761741E+01  0.93222194339E+01  0.51100000000E-03 0.  1.
         12    1    3    3    0    0  0.17343588708E+02  0.61342451797E+01  0.70299491875E+01  0.19693887854E+02  0.00000000000E+00 0. -1.
</event>
<event>
 7    1  0.6065977E-013  0.5930190E+02  0.7816164E-02  0.1266605E+00
        -11   -1    0    0    0    0  0.00000000000E+00  0.00000000000E+00  0.45593999997E+02  0.45594000000E+02  0.51100000000E-03 0.  1.
         11   -1    0    0    0    0 -0.00000000000E+00 -0.00000000000E+00 -0.45593999997E+02  0.45594000000E+02  0.51100000000E-03 0. -1.
    9900012    2    1    2    0    0  0.10676383829E+02  0.19300779001E+02 -0.23026461633E+02  0.59301903076E+02  0.49999925314E+02 0.  0.
        -12    1    1    2    0    0 -0.10676383829E+02 -0.19300779001E+02  0.23026461633E+02  0.31886096924E+02  0.00000000000E+00 0.  1.
         11    1    3    3    0    0 -0.56072125788E+01  0.22809610574E+02 -0.25978309713E+02  0.35022731807E+02  0.51100000000E-03 0. -1.
        -11    1    3    3    0    0  0.26548327049E+01 -0.76587924309E+01 -0.32604496377E+01  0.87370344106E+01  0.51100000000E-03 0.  1.
         12    1    3    3    0    0  0.13628763703E+02  0.41499608576E+01  0.62122977175E+01  0.15542136858E+02  0.00000000000E+00 0. -1.
</event>
<event>
 7    1  0.6065977E-013  0.5930197E+02  0.7816164E-02  0.1266605E+00
        -11   -1    0    0    0    0  0.00000000000E+00  0.00000000000E+00  0.45593999997E+02  0.45594000000E+02  0.51100000000E-03 0.  1.
         11   -1    0    0    0    0 -0.00000000000E+00 -0.00000000000E+00 -0.45593999997E+02  0.45594000000E+02  0.51100000000E-03 0. -1.
    9900012    2    1    2    0    0 -0.71644530441E+00 -0.72400716650E+01 -0.31044914691E+02  0.59301973911E+02  0.50000054500E+02 0.  0.
        -12    1    1    2    0    0  0.71644530441E+00  0.72400716650E+01  0.31044914691E+02  0.31886026089E+02  0.00000000000E+00 0.  1.
         11    1    3    3    0    0  0.15993965001E+02  0.14523215631E+02 -0.93244836009E+01  0.23530335811E+02  0.51100000000E-03 0. -1.
        -11    1    3    3    0    0 -0.59105107943E+01 -0.10075828253E+02 -0.50533656015E+01  0.12727645383E+02  0.51100000000E-03 0.  1.
         12    1    3    3    0    0 -0.10799899511E+02 -0.11687459043E+02 -0.16667065488E+02  0.23043992716E+02  0.00000000000E+00 0. -1.
</event>
<event>
 7    1  0.6065977E-013  0.5930189E+02  0.7816164E-02  0.1266605E+00
        -11   -1    0    0    0    0  0.00000000000E+00  0.00000000000E+00  0.45593999997E+02  0.45594000000E+02  0.51100000000E-03 0. -1.
         11   -1    0    0    0    0 -0.00000000000E+00 -0.00000000000E+00 -0.45593999997E+02  0.45594000000E+02  0.51100000000E-03 0.  1.
    9900012    2    1    2    0    0 -0.14153427338E+02 -0.90651601523E+01  0.27096633741E+02  0.59301887128E+02  0.49999896229E+02 0.  0.
        -12    1    1    2    0    0  0.14153427338E+02  0.90651601523E+01 -0.27096633741E+02  0.31886112872E+02  0.00000000000E+00 0.  1.
         11    1    3    3    0    0 -0.20252525460E+02 -0.83646871075E+01  0.40498174409E+01  0.22283038381E+02  0.51100000000E-03 0.  1.
        -11    1    3    3    0    0  0.20033802726E+01  0.13303170536E+02  0.15724754433E+02  0.20694341765E+02  0.51100000000E-03 0. -1.
        -12    1    3    3    0    0  0.40957178494E+01 -0.14003643581E+02  0.73220618664E+01  0.16324506982E+02  0.00000000000E+00 0.  1.
</event>
<event>
 7    1  0.6065977E-013  0.5930195E+02  0.7816164E-02  0.1266605E+00
        -11   -1    0    0    0    0  0.00000000000E+00  0.00000000000E+00  0.45593999997E+02  0.45594000000E+02  0.51100000000E-03 0. -1.
         11   -1    0    0    0    0 -0.00000000000E+00 -0.00000000000E+00 -0.45593999997E+02  0.45594000000E+02  0.51100000000E-03 0.  1.
    9900012    2    1    2    0    0  0.40134288745E+01  0.50166450766E+01  0.31232126962E+02  0.59301951425E+02  0.50000013491E+02 0.  0.
        -12    1    1    2    0    0 -0.40134288745E+01 -0.50166450766E+01 -0.31232126962E+02  0.31886048575E+02  0.00000000000E+00 0.  1.
         11    1    3    3    0    0  0.67591661474E+01 -0.94546045573E+00  0.89738415110E+01  0.11274309478E+02  0.51100000000E-03 0. -1.
        -11    1    3    3    0    0 -0.97593298795E+01  0.17185210815E+02 -0.25333733815E+01  0.19924707561E+02  0.51100000000E-03 0.  1.
        -12    1    3    3    0    0  0.70135926067E+01 -0.11223105283E+02  0.24791658832E+02  0.28102934386E+02  0.00000000000E+00 0.  1.
</event>
<event>
 7    1  0.6065977E-013  0.5930194E+02  0.7816164E-02  0.1266605E+00
        -11   -1    0    0    0    0  0.00000000000E+00  0.00000000000E+00  0.45593999997E+02  0.45594000000E+02  0.51100000000E-03 0.  1.
         11   -1    0    0    0    0 -0.00000000000E+00 -0.00000000000E+00 -0.45593999997E+02  0.45594000000E+02  0.51100000000E-03 0. -1.
    9900012    2    1    2    0    0  0.13011051759E+02 -0.26445027824E+02  0.12169386231E+02  0.59301938379E+02  0.49999989698E+02 0.  0.
        -12    1    1    2    0    0 -0.13011051759E+02  0.26445027824E+02 -0.12169386231E+02  0.31886061621E+02  0.00000000000E+00 0.  1.
         11    1    3    3    0    0 -0.15612778582E+02 -0.10696085464E+01  0.14930121994E+01  0.15720432665E+02  0.51100000000E-03 0. -1.
        -11    1    3    3    0    0  0.26678588831E+02 -0.21754382033E+02  0.15058404779E+02  0.37573338878E+02  0.51100000000E-03 0.  1.
        -12    1    3    3    0    0  0.19452415108E+01 -0.36210372436E+01 -0.43820307477E+01  0.60081668359E+01  0.00000000000E+00 0.  1.
</event>
<event>
 7    1  0.6065977E-013  0.5930194E+02  0.7816164E-02  0.1266605E+00
        -11   -1    0    0    0    0  0.00000000000E+00  0.00000000000E+00  0.45593999997E+02  0.45594000000E+02  0.51100000000E-03 0. -1.
         11   -1    0    0    0    0 -0.00000000000E+00 -0.00000000000E+00 -0.45593999997E+02  0.45594000000E+02  0.51100000000E-03 0.  1.
    9900012    2    1    2    0    0 -0.59567116460E+01 -0.19347901308E+02  0.24635278743E+02  0.59301942586E+02  0.49999997371E+02 0.  0.
        -12    1    1    2    0    0  0.59567116460E+01  0.19347901308E+02 -0.24635278743E+02  0.31886057414E+02  0.00000000000E+00 0.  1.
         11    1    3    3    0    0  0.13707217560E+02 -0.47082123180E+01 -0.97791463018E+00  0.14526231230E+02  0.51100000000E-03 0. -1.
        -11    1    3    3    0    0 -0.87805536425E+01  0.74757902413E+01  0.11893575500E+02  0.16566312216E+02  0.51100000000E-03 0.  1.
         12    1    3    3    0    0 -0.10883375563E+02 -0.22115479231E+02  0.13719617873E+02  0.28209399140E+02  0.00000000000E+00 0. -1.
</event>
<event>
 7    1  0.6065977E-013  0.5930195E+02  0.7816164E-02  0.1266605E+00
        -11   -1    0    0    0    0  0.00000000000E+00  0.00000000000E+00  0.45593999997E+02  0.45594000000E+02  0.51100000000E-03 0. -1.
         11   -1    0    0    0    0 -0.00000000000E+00 -0.00000000000E+00 -0.45593999997E+02  0.45594000000E+02  0.51100000000E-03 0.  1.
    9900012    2    1    2    0    0  0.24863150082E+00 -0.29709323320E+01  0.31746371150E+02  0.59301947599E+02  0.50000006513E+02 0.  0.
        -12    1    1    2    0    0 -0.24863150082E+00  0.29709323320E+01 -0.31746371150E+02  0.31886052401E+02  0.00000000000E+00 0.  1.
         11    1    3    3    0    0 -0.71126010293E+01 -0.92555532428E+01 -0.80802318129E+01  0.14196637124E+02  0.51100000000E-03 0. -1.
        -11    1    3    3    0    0  0.13633559322E+02  0.40667705535E+01  0.30433770463E+02  0.33595043494E+02  0.51100000000E-03 0.  1.
        -12    1    3    3    0    0 -0.62723267916E+01  0.22178503573E+01  0.93928324996E+01  0.11510266980E+02  0.00000000000E+00 0.  1.
</event>
<event>
 7    1  0.6065977E-013  0.5930192E+02  0.7816164E-02  0.1266605E+00
        -11   -1    0    0    0    0  0.00000000000E+00  0.00000000000E+00  0.45593999997E+02  0.45594000000E+02  0.51100000000E-03 0.  1.
         11   -1    0    0    0    0 -0.00000000000E+00 -0.00000000000E+00 -0.45593999997E+02  0.45594000000E+02  0.51100000000E-03 0. -1.
    9900012    2    1    2    0    0  0.22816415797E+02  0.14431556513E+02 -0.16966535070E+02  0.59301922074E+02  0.49999959961E+02 0.  0.
        -12    1    1    2    0    0 -0.22816415797E+02 -0.14431556513E+02  0.16966535070E+02  0.31886077926E+02  0.00000000000E+00 0.  1.
         11    1    3    3    0    0 -0.12384981309E+02 -0.54887478953E+01 -0.60514584233E+01  0.14836922349E+02  0.51100000000E-03 0. -1.
        -11    1    3    3    0    0  0.14611125916E+02  0.30655751710E+01  0.16839504279E+01  0.15023928946E+02  0.51100000000E-03 0.  1.
         12    1    3    3    0    0  0.20590271190E+02  0.16854729238E+02 -0.12599027075E+02  0.29441070779E+02  0.00000000000E+00 0. -1.
</event>
<event>
 7    1  0.6065977E-013  0.5930205E+02  0.7816164E-02  0.1266604E+00
        -11   -1    0    0    0    0  0.00000000000E+00  0.00000000000E+00  0.45593999997E+02  0.45594000000E+02  0.51100000000E-03 0.  1.
         11   -1    0    0    0    0 -0.00000000000E+00 -0.00000000000E+00 -0.45593999997E+02  0.45594000000E+02  0.51100000000E-03 0. -1.
    9900012    2    1    2    0    0 -0.19961347332E+02  0.55537189497E-01 -0.24864738619E+02  0.59302051711E+02  0.50000196388E+02 0.  0.
        -12    1    1    2    0    0  0.19961347332E+02 -0.55537189497E-01  0.24864738619E+02  0.31885948289E+02  0.00000000000E+00 0.  1.
         11    1    3    3    0    0 -0.15562475952E+02  0.22303301896E+02 -0.17493146869E+02  0.32336328191E+02  0.51100000000E-03 0. -1.
        -11    1    3    3    0    0  0.40237082945E+01 -0.10148361345E+02 -0.11962273218E+01  0.10982277837E+02  0.51100000000E-03 0.  1.
         12    1    3    3    0    0 -0.84225796740E+01 -0.12099403362E+02 -0.61753644289E+01  0.15983445684E+02  0.00000000000E+00 0. -1.
</event>
<event>
 7    1  0.6065977E-013  0.5930196E+02  0.7816164E-02  0.1266605E+00
        -11   -1    0    0    0    0  0.00000000000E+00  0.00000000000E+00  0.45593999997E+02  0.45594000000E+02  0.51100000000E-03 0.  1.
         11   -1    0    0    0    0 -0.00000000000E+00 -0.00000000000E+00 -0.45593999997E+02  0.45594000000E+02  0.51100000000E-03 0. -1.
    9900012    2    1    2    0    0  0.34663687261E+01 -0.28105645089E+02 -0.14655261233E+02  0.59301957915E+02  0.50000025327E+02 0.  0.
        -12    1    1    2    0    0 -0.34663687261E+01  0.28105645089E+02  0.14655261233E+02  0.31886042085E+02  0.00000000000E+00 0.  1.
         11    1    3    3    0    0  0.27988082006E+01 -0.60595106753E+01 -0.30082580461E+02  0.30814163049E+02  0.51100000000E-03 0. -1.
        -11    1    3    3    0    0  0.48418754826E+01 -0.13900810622E+02  0.10606514185E+02  0.18143165037E+02  0.51100000000E-03 0.  1.
         12    1    3    3    0    0 -0.41743149570E+01 -0.81453237919E+01  0.48208050419E+01  0.10344629828E+02  0.00000000000E+00 0. -1.
</event>
<event>
 7    1  0.6065977E-013  0.5930193E+02  0.7816164E-02  0.1266605E+00
        -11   -1    0    0    0    0  0.00000000000E+00  0.00000000000E+00  0.45593999997E+02  0.45594000000E+02  0.51100000000E-03 0. -1.
         11   -1    0    0    0    0 -0.00000000000E+00 -0.00000000000E+00 -0.45593999997E+02  0.45594000000E+02  0.51100000000E-03 0.  1.
    9900012    2    1    2    0    0 -0.20252311873E+02  0.20833323081E+02  0.13135363418E+02  0.59301933154E+02  0.49999980168E+02 0.  0.
        -12    1    1    2    0    0  0.20252311873E+02 -0.20833323081E+02 -0.13135363418E+02  0.31886066846E+02  0.00000000000E+00 0.  1.
         11    1    3    3    0    0 -0.17379665068E+02  0.32962404378E+01  0.18164864329E+02  0.25355083420E+02  0.51100000000E-03 0. -1.
        -11    1    3    3    0    0  0.12402965484E+02  0.11981253501E+02 -0.14721378856E+01  0.17307546865E+02  0.51100000000E-03 0.  1.
        -12    1    3    3    0    0 -0.15275612289E+02  0.55558291421E+01 -0.35573630253E+01  0.16639302869E+02  0.00000000000E+00 0.  1.
</event>
<event>
 7    1  0.6065977E-013  0.5930195E+02  0.7816164E-02  0.1266605E+00
        -11   -1    0    0    0    0  0.00000000000E+00  0.00000000000E+00  0.45593999997E+02  0.45594000000E+02  0.51100000000E-03 0.  1.
         11   -1    0    0    0    0 -0.00000000000E+00 -0.00000000000E+00 -0.45593999997E+02  0.45594000000E+02  0.51100000000E-03 0. -1.
    9900012    2    1    2    0    0 -0.10020651936E+00 -0.20865757035E+02 -0.24110799197E+02  0.59301945119E+02  0.50000001990E+02 0.  0.
        -12    1    1    2    0    0  0.10020651936E+00  0.20865757035E+02  0.24110799197E+02  0.31886054881E+02  0.00000000000E+00 0.  1.
         11    1    3    3    0    0 -0.55725004328E+00 -0.58455631921E+01 -0.28927183859E+02  0.29517166241E+02  0.51100000000E-03 0. -1.
        -11    1    3    3    0    0 -0.74542158619E+01 -0.26949855426E+01  0.11271531192E+02  0.13779539066E+02  0.51100000000E-03 0.  1.
        -12    1    3    3    0    0  0.79112593858E+01 -0.12325208300E+02 -0.64551465303E+01  0.16005239812E+02  0.00000000000E+00 0.  1.
</event>
<event>
 7    1  0.6065977E-013  0.5930195E+02  0.7816164E-02  0.1266605E+00
        -11   -1    0    0    0    0  0.00000000000E+00  0.00000000000E+00  0.45593999997E+02  0.45594000000E+02  0.51100000000E-03 0.  1.
         11   -1    0    0    0    0 -0.00000000000E+00 -0.00000000000E+00 -0.45593999997E+02  0.45594000000E+02  0.51100000000E-03 0. -1.
    9900012    2    1    2    0    0  0.53734974122E+01  0.23843667738E+02  0.20477436252E+02  0.59301947232E+02  0.50000005844E+02 0.  0.
        -12    1    1    2    0    0 -0.53734974122E+01 -0.23843667738E+02 -0.20477436252E+02  0.31886052768E+02  0.00000000000E+00 0.  1.
         11    1    3    3    0    0  0.41509663279E+01  0.13996259709E+02  0.87763619469E+01  0.17033799828E+02  0.51100000000E-03 0. -1.
        -11    1    3    3    0    0  0.72034886442E+01 -0.10025404964E+02 -0.71203421378E+01  0.14251254884E+02  0.51100000000E-03 0.  1.
        -12    1    3    3    0    0 -0.59809575599E+01  0.19872812993E+02  0.18821416443E+02  0.28016892520E+02  0.00000000000E+00 0.  1.
</event>
<event>
 7    1  0.6065977E-013  0.5930194E+02  0.7816164E-02  0.1266605E+00
        -11   -1    0    0    0    0  0.00000000000E+00  0.00000000000E+00  0.45593999997E+02  0.45594000000E+02  0.51100000000E-03 0.  1.
         11   -1    0    0    0    0 -0.00000000000E+00 -0.00000000000E+00 -0.45593999997E+02  0.45594000000E+02  0.51100000000E-03 0. -1.
    9900012    2    1    2    0    0  0.18920270139E+02  0.74789163107E+01 -0.24552188015E+02  0.59301941171E+02  0.49999994790E+02 0.  0.
        -12    1    1    2    0    0 -0.18920270139E+02 -0.74789163107E+01  0.24552188015E+02  0.31886058829E+02  0.00000000000E+00 0.  1.
         11    1    3    3    0    0  0.13828985330E+02  0.37966448813E+01 -0.32609333905E+02  0.35623363199E+02  0.51100000000E-03 0. -1.
        -11    1    3    3    0    0 -0.37322272767E+01 -0.39938065056E+01  0.10401871715E+02  0.11750699821E+02  0.51100000000E-03 0.  1.
         12    1    3    3    0    0  0.88235120856E+01  0.76760779350E+01 -0.23447258258E+01  0.11927878151E+02  0.00000000000E+00 0. -1.
</event>
<event>
 7    1  0.6065977E-013  0.5930196E+02  0.7816164E-02  0.1266605E+00
        -11   -1    0    0    0    0  0.00000000000E+00  0.00000000000E+00  0.45593999997E+02  0.45594000000E+02  0.51100000000E-03 0.  1.
         11   -1    0    0    0    0 -0.00000000000E+00 -0.00000000000E+00 -0.45593999997E+02  0.45594000000E+02  0.51100000000E-03 0. -1.
    9900012    2    1    2    0    0  0.11993181520E+02 -0.23367555931E+02 -0.18078738246E+02  0.59301955251E+02  0.50000020468E+02 0.  0.
        -12    1    1    2    0    0 -0.11993181520E+02  0.23367555931E+02  0.18078738246E+02  0.31886044749E+02  0.00000000000E+00 0.  1.
         11    1    3    3    0    0 -0.57795286207E+01  0.14261021301E+01 -0.41163071347E+01  0.72374514196E+01  0.51100000000E-03 0.  1.
        -11    1    3    3    0    0  0.18069924222E+02 -0.35024879273E+02 -0.79877385957E+01  0.40212787738E+02  0.51100000000E-03 0. -1.
        -12    1    3    3    0    0 -0.29721408113E+00  0.10231221212E+02 -0.59746925156E+01  0.11851716093E+02  0.00000000000E+00 0.  1.
</event>
<event>
 7    1  0.6065977E-013  0.5930191E+02  0.7816164E-02  0.1266605E+00
        -11   -1    0    0    0    0  0.00000000000E+00  0.00000000000E+00  0.45593999997E+02  0.45594000000E+02  0.51100000000E-03 0. -1.
         11   -1    0    0    0    0 -0.00000000000E+00 -0.00000000000E+00 -0.45593999997E+02  0.45594000000E+02  0.51100000000E-03 0.  1.
    9900012    2    1    2    0    0 -0.23160922956E+02  0.21852745533E+02  0.16589570715E+01  0.59301906196E+02  0.49999931004E+02 0.  0.
        -12    1    1    2    0    0  0.23160922956E+02 -0.21852745533E+02 -0.16589570715E+01  0.31886093804E+02  0.00000000000E+00 0.  1.
         11    1    3    3    0    0  0.45276838890E+01 -0.52849873723E+00  0.30773172306E+00  0.45687997755E+01  0.51100000000E-03 0. -1.
        -11    1    3    3    0    0 -0.13566739516E+02  0.21739238302E+02  0.19159608126E+02  0.31995960477E+02  0.51100000000E-03 0.  1.
        -12    1    3    3    0    0 -0.14121867329E+02  0.64200596782E+00 -0.17808382777E+02  0.22737145943E+02  0.00000000000E+00 0.  1.
</event>
<event>
 7    1  0.6065977E-013  0.5930193E+02  0.7816164E-02  0.1266605E+00
        -11   -1    0    0    0    0  0.00000000000E+00  0.00000000000E+00  0.45593999997E+02  0.45594000000E+02  0.51100000000E-03 0.  1.
         11   -1    0    0    0    0 -0.00000000000E+00 -0.00000000000E+00 -0.45593999997E+02  0.45594000000E+02  0.51100000000E-03 0. -1.
    9900012    2    1    2    0    0 -0.24685947469E+01 -0.31790362636E+02 -0.54209196060E-02  0.59301934925E+02  0.49999983399E+02 0.  0.
        -12    1    1    2    0    0  0.24685947469E+01  0.31790362636E+02  0.54209196060E-02  0.31886065075E+02  0.00000000000E+00 0.  1.
         11    1    3    3    0    0  0.15161019443E+02 -0.20365564441E+02 -0.79148325227E+01  0.26594309536E+02  0.51100000000E-03 0. -1.
        -11    1    3    3    0    0 -0.23145055624E+02 -0.58798219832E+01  0.66226517492E+01  0.24781554085E+02  0.51100000000E-03 0.  1.
         12    1    3    3    0    0  0.55154414342E+01 -0.55449762116E+01  0.12867598539E+01  0.79260713044E+01  0.00000000000E+00 0. -1.
</event>
<event>
 7    1  0.6065977E-013  0.5930189E+02  0.7816164E-02  0.1266605E+00
        -11   -1    0    0    0    0  0.00000000000E+00  0.00000000000E+00  0.45593999997E+02  0.45594000000E+02  0.51100000000E-03 0.  1.
         11   -1    0    0    0    0 -0.00000000000E+00 -0.00000000000E+00 -0.45593999997E+02  0.45594000000E+02  0.51100000000E-03 0. -1.
    9900012    2    1    2    0    0 -0.20738081403E+02  0.31811951683E+01  0.24011169038E+02  0.59301886070E+02  0.49999894299E+02 0.  0.
        -12    1    1    2    0    0  0.20738081403E+02 -0.31811951683E+01 -0.24011169038E+02  0.31886113930E+02  0.00000000000E+00 0.  1.
         11    1    3    3    0    0 -0.21485648104E+02  0.50375468111E+01 -0.52776135860E+01  0.22690596241E+02  0.51100000000E-03 0. -1.
        -11    1    3    3    0    0  0.10773051407E+01 -0.98507679536E+01  0.51231220604E+01  0.11155473793E+02  0.51100000000E-03 0.  1.
         12    1    3    3    0    0 -0.32973843959E+00  0.79944163109E+01  0.24165660564E+02  0.25455816036E+02  0.00000000000E+00 0. -1.
</event>
<event>
 7    1  0.6065977E-013  0.5930195E+02  0.7816164E-02  0.1266605E+00
        -11   -1    0    0    0    0  0.00000000000E+00  0.00000000000E+00  0.45593999997E+02  0.45594000000E+02  0.51100000000E-03 0. -1.
         11   -1    0    0    0    0 -0.00000000000E+00 -0.00000000000E+00 -0.45593999997E+02  0.45594000000E+02  0.51100000000E-03 0.  1.
    9900012    2    1    2    0    0  0.65587270856E+00  0.27021815846E+02  0.16914833174E+02  0.59301948474E+02  0.50000008109E+02 0.  0.
        -12    1    1    2    0    0 -0.65587270856E+00 -0.27021815846E+02 -0.16914833174E+02  0.31886051526E+02  0.00000000000E+00 0.  1.
         11    1    3    3    0    0  0.22672866442E+01  0.16880912055E+02  0.62191415074E+01  0.18132388202E+02  0.51100000000E-03 0. -1.
        -11    1    3    3    0    0 -0.58839112346E+01 -0.12563331992E+02  0.11549160781E+02  0.18051061940E+02  0.51100000000E-03 0.  1.
        -12    1    3    3    0    0  0.42724972989E+01  0.22704235782E+02 -0.85346911446E+00  0.23118498333E+02  0.00000000000E+00 0.  1.
</event>
<event>
 7    1  0.6065977E-013  0.5930197E+02  0.7816164E-02  0.1266605E+00
        -11   -1    0    0    0    0  0.00000000000E+00  0.00000000000E+00  0.45593999997E+02  0.45594000000E+02  0.51100000000E-03 0.  1.
         11   -1    0    0    0    0 -0.00000000000E+00 -0.00000000000E+00 -0.45593999997E+02  0.45594000000E+02  0.51100000000E-03 0. -1.
    9900012    2    1    2    0    0 -0.18243886331E+02 -0.13835903690E+02 -0.22191147184E+02  0.59301974335E+02  0.50000055273E+02 0.  0.
        -12    1    1    2    0    0  0.18243886331E+02  0.13835903690E+02  0.22191147184E+02  0.31886025665E+02  0.00000000000E+00 0.  1.
         11    1    3    3    0    0  0.62337240573E+01  0.10012004995E+02 -0.23499597785E+01  0.12025883372E+02  0.51100000000E-03 0. -1.
        -11    1    3    3    0    0 -0.13266782499E+02 -0.26110705209E+02 -0.70634923879E+01  0.30127551666E+02  0.51100000000E-03 0.  1.
        -12    1    3    3    0    0 -0.11210827889E+02  0.22627965238E+01 -0.12777695017E+02  0.17148539297E+02  0.00000000000E+00 0.  1.
</event>
<event>
 7    1  0.6065977E-013  0.5930183E+02  0.7816164E-02  0.1266605E+00
        -11   -1    0    0    0    0  0.00000000000E+00  0.00000000000E+00  0.45593999997E+02  0.45594000000E+02  0.51100000000E-03 0.  1.
         11   -1    0    0    0    0 -0.00000000000E+00 -0.00000000000E+00 -0.45593999997E+02  0.45594000000E+02  0.51100000000E-03 0. -1.
    9900012    2    1    2    0    0 -0.16210788412E+02 -0.15708317842E+02 -0.22520805649E+02  0.59301833760E+02  0.49999798899E+02 0.  0.
        -12    1    1    2    0    0  0.16210788412E+02  0.15708317842E+02  0.22520805649E+02  0.31886166240E+02  0.00000000000E+00 0.  1.
         11    1    3    3    0    0 -0.12980606387E+02 -0.23593387644E+02 -0.25510572312E+02  0.37093576030E+02  0.51100000000E-03 0. -1.
        -11    1    3    3    0    0 -0.90837914930E+01  0.90680536151E+01 -0.35846027323E+01  0.13326448937E+02  0.51100000000E-03 0.  1.
         12    1    3    3    0    0  0.58536094686E+01 -0.11829838130E+01  0.65743693950E+01  0.88818087941E+01  0.00000000000E+00 0. -1.
</event>
<event>
 7    1  0.6065977E-013  0.5930196E+02  0.7816164E-02  0.1266605E+00
        -11   -1    0    0    0    0  0.00000000000E+00  0.00000000000E+00  0.45593999997E+02  0.45594000000E+02  0.51100000000E-03 0.  1.
         11   -1    0    0    0    0 -0.00000000000E+00 -0.00000000000E+00 -0.45593999997E+02  0.45594000000E+02  0.51100000000E-03 0. -1.
    9900012    2    1    2    0    0  0.12768556429E+02 -0.26564215075E+02 -0.12166583185E+02  0.59301963836E+02  0.50000036126E+02 0.  0.
        -12    1    1    2    0    0 -0.12768556429E+02  0.26564215075E+02  0.12166583185E+02  0.31886036164E+02  0.00000000000E+00 0.  1.
         11    1    3    3    0    0  0.10523234465E+00 -0.11907379191E+02 -0.20275802821E+02  0.23513930623E+02  0.51100000000E-03 0. -1.
        -11    1    3    3    0    0  0.51201435675E+01  0.44192896538E+01  0.13040602138E+02  0.14690244912E+02  0.51100000000E-03 0.  1.
         12    1    3    3    0    0  0.75431805168E+01 -0.19076125537E+02 -0.49313825023E+01  0.21097788302E+02  0.00000000000E+00 0. -1.
</event>
<event>
 7    1  0.6065977E-013  0.5930194E+02  0.7816164E-02  0.1266605E+00
        -11   -1    0    0    0    0  0.00000000000E+00  0.00000000000E+00  0.45593999997E+02  0.45594000000E+02  0.51100000000E-03 0. -1.
         11   -1    0    0    0    0 -0.00000000000E+00 -0.00000000000E+00 -0.45593999997E+02  0.45594000000E+02  0.51100000000E-03 0.  1.
    9900012    2    1    2    0    0 -0.20078493463E+02  0.14557171327E+01  0.24727628450E+02  0.59301943159E+02  0.49999998416E+02 0.  0.
        -12    1    1    2    0    0  0.20078493463E+02 -0.14557171327E+01 -0.24727628450E+02  0.31886056841E+02  0.00000000000E+00 0.  1.
         11    1    3    3    0    0  0.18286544464E+01  0.86817878603E+01 -0.13532882229E+01  0.89748987076E+01  0.51100000000E-03 0. -1.
        -11    1    3    3    0    0 -0.24813995391E+02 -0.18310558380E+02  0.14650619292E+02  0.34141639699E+02  0.51100000000E-03 0.  1.
        -12    1    3    3    0    0  0.29068474815E+01  0.11084487652E+02  0.11430297380E+02  0.16185404752E+02  0.00000000000E+00 0.  1.
</event>
<event>
 7    1  0.6065977E-013  0.5930194E+02  0.7816164E-02  0.1266605E+00
        -11   -1    0    0    0    0  0.00000000000E+00  0.00000000000E+00  0.45593999997E+02  0.45594000000E+02  0.51100000000E-03 0.  1.
         11   -1    0    0    0    0 -0.00000000000E+00 -0.00000000000E+00 -0.45593999997E+02  0.45594000000E+02  0.51100000000E-03 0. -1.
    9900012    2    1    2    0    0 -0.24223188737E+02  0.34639903315E+01 -0.20444035095E+02  0.59301942348E+02  0.49999996936E+02 0.  0.
        -12    1    1    2    0    0  0.24223188737E+02 -0.34639903315E+01  0.20444035095E+02  0.31886057652E+02  0.00000000000E+00 0.  1.
         11    1    3    3    0    0  0.31830496669E+01 -0.14472009459E+02 -0.13000326051E+02  0.19712415901E+02  0.51100000000E-03 0. -1.
        -11    1    3    3    0    0 -0.28554637368E+02  0.99850328951E+01 -0.29730020108E+01  0.30395837517E+02  0.51100000000E-03 0.  1.
         12    1    3    3    0    0  0.11483989639E+01  0.79509668956E+01 -0.44707070331E+01  0.91936889294E+01  0.00000000000E+00 0. -1.
</event>
<event>
 7    1  0.6065977E-013  0.5930191E+02  0.7816164E-02  0.1266605E+00
        -11   -1    0    0    0    0  0.00000000000E+00  0.00000000000E+00  0.45593999997E+02  0.45594000000E+02  0.51100000000E-03 0.  1.
         11   -1    0    0    0    0 -0.00000000000E+00 -0.00000000000E+00 -0.45593999997E+02  0.45594000000E+02  0.51100000000E-03 0. -1.
    9900012    2    1    2    0    0 -0.25531564357E+02  0.17303879188E+02 -0.80893580327E+01  0.59301910135E+02  0.49999938189E+02 0.  0.
        -12    1    1    2    0    0  0.25531564357E+02 -0.17303879188E+02  0.80893580327E+01  0.31886089865E+02  0.00000000000E+00 0.  1.
         11    1    3    3    0    0 -0.24048544439E+02  0.28742306615E+02 -0.10675858465E+01  0.37491231228E+02  0.51100000000E-03 0. -1.
        -11    1    3    3    0    0  0.29371593104E+01 -0.12921224752E+02  0.15585656190E+00  0.13251763862E+02  0.51100000000E-03 0.  1.
        -12    1    3    3    0    0 -0.44201792281E+01  0.14827973257E+01 -0.71776287481E+01  0.85589150459E+01  0.00000000000E+00 0.  1.
</event>
<event>
 7    1  0.6065977E-013  0.5930195E+02  0.7816164E-02  0.1266605E+00
        -11   -1    0    0    0    0  0.00000000000E+00  0.00000000000E+00  0.45593999997E+02  0.45594000000E+02  0.51100000000E-03 0. -1.
         11   -1    0    0    0    0 -0.00000000000E+00 -0.00000000000E+00 -0.45593999997E+02  0.45594000000E+02  0.51100000000E-03 0.  1.
    9900012    2    1    2    0    0 -0.15781859457E+02 -0.19942644254E+02  0.19233933698E+02  0.59301947356E+02  0.50000006069E+02 0.  0.
        -12    1    1    2    0    0  0.15781859457E+02  0.19942644254E+02 -0.19233933698E+02  0.31886052644E+02  0.00000000000E+00 0.  1.
         11    1    3    3    0    0 -0.27177463216E+02 -0.93820034230E+01  0.64331013404E+01  0.29462201008E+02  0.51100000000E-03 0. -1.
        -11    1    3    3    0    0  0.11920101240E+02  0.70735277445E+00 -0.10378898483E+01  0.11986090986E+02  0.51100000000E-03 0.  1.
         12    1    3    3    0    0 -0.52449748090E+00 -0.11267993605E+02  0.13838722206E+02  0.17853655362E+02  0.00000000000E+00 0. -1.
</event>
<event>
 7    1  0.6065977E-013  0.5930196E+02  0.7816164E-02  0.1266605E+00
        -11   -1    0    0    0    0  0.00000000000E+00  0.00000000000E+00  0.45593999997E+02  0.45594000000E+02  0.51100000000E-03 0.  1.
         11   -1    0    0    0    0 -0.00000000000E+00 -0.00000000000E+00 -0.45593999997E+02  0.45594000000E+02  0.51100000000E-03 0. -1.
    9900012    2    1    2    0    0 -0.15813728500E+02  0.23098882051E+02 -0.15267183217E+02  0.59301964742E+02  0.50000037778E+02 0.  0.
        -12    1    1    2    0    0  0.15813728500E+02 -0.23098882051E+02  0.15267183217E+02  0.31886035258E+02  0.00000000000E+00 0.  1.
         11    1    3    3    0    0  0.68656838196E+01  0.46607705311E+01 -0.52768224152E+01  0.98338828200E+01  0.51100000000E-03 0. -1.
        -11    1    3    3    0    0 -0.11417492049E+02 -0.11221680000E+02  0.60313485833E+00  0.16020268369E+02  0.51100000000E-03 0.  1.
        -12    1    3    3    0    0 -0.11261920271E+02  0.29659791520E+02 -0.10593495660E+02  0.33447813553E+02  0.00000000000E+00 0.  1.
</event>
<event>
 7    1  0.6065977E-013  0.5930195E+02  0.7816164E-02  0.1266605E+00
        -11   -1    0    0    0    0  0.00000000000E+00  0.00000000000E+00  0.45593999997E+02  0.45594000000E+02  0.51100000000E-03 0. -1.
         11   -1    0    0    0    0 -0.00000000000E+00 -0.00000000000E+00 -0.45593999997E+02  0.45594000000E+02  0.51100000000E-03 0.  1.
    9900012    2    1    2    0    0  0.75759481984E+01 -0.10592736472E+02  0.29105306590E+02  0.59301954012E+02  0.50000018209E+02 0.  0.
        -12    1    1    2    0    0 -0.75759481984E+01  0.10592736472E+02 -0.29105306590E+02  0.31886045988E+02  0.00000000000E+00 0.  1.
         11    1    3    3    0    0  0.11456568065E+02 -0.76597583653E+01  0.22959684514E+02  0.26778199403E+02  0.51100000000E-03 0. -1.
        -11    1    3    3    0    0 -0.81388441965E+01  0.92249476298E+01  0.13028042473E+02  0.17918435606E+02  0.51100000000E-03 0.  1.
        -12    1    3    3    0    0  0.42582243302E+01 -0.12157925736E+02 -0.68824203968E+01  0.14605319003E+02  0.00000000000E+00 0.  1.
</event>
<event>
 7    1  0.6065977E-013  0.5930194E+02  0.7816164E-02  0.1266605E+00
        -11   -1    0    0    0    0  0.00000000000E+00  0.00000000000E+00  0.45593999997E+02  0.45594000000E+02  0.51100000000E-03 0. -1.
         11   -1    0    0    0    0 -0.00000000000E+00 -0.00000000000E+00 -0.45593999997E+02  0.45594000000E+02  0.51100000000E-03 0.  1.
    9900012    2    1    2    0    0 -0.30958923854E+02  0.31607812748E+01  0.69480570046E+01  0.59301937204E+02  0.49999987556E+02 0.  0.
        -12    1    1    2    0    0  0.30958923854E+02 -0.31607812748E+01 -0.69480570046E+01  0.31886062796E+02  0.00000000000E+00 0.  1.
         11    1    3    3    0    0 -0.14361780780E+02  0.10885614433E+02  0.25549702086E+02  0.31265710062E+02  0.51100000000E-03 0. -1.
        -11    1    3    3    0    0 -0.74198840354E+01 -0.53883321073E+00 -0.19153407149E+01  0.76820277690E+01  0.51100000000E-03 0.  1.
         12    1    3    3    0    0 -0.91772590390E+01 -0.71859999473E+01 -0.16686304367E+02  0.20354199373E+02  0.00000000000E+00 0. -1.
</event>
<event>
 7    1  0.6065977E-013  0.5930193E+02  0.7816164E-02  0.1266605E+00
        -11   -1    0    0    0    0  0.00000000000E+00  0.00000000000E+00  0.45593999997E+02  0.45594000000E+02  0.51100000000E-03 0.  1.
         11   -1    0    0    0    0 -0.00000000000E+00 -0.00000000000E+00 -0.45593999997E+02  0.45594000000E+02  0.51100000000E-03 0. -1.
    9900012    2    1    2    0    0 -0.14803907042E+02  0.25229821886E+02 -0.12689430489E+02  0.59301933729E+02  0.49999981218E+02 0.  0.
        -12    1    1    2    0    0  0.14803907042E+02 -0.25229821886E+02  0.12689430489E+02  0.31886066271E+02  0.00000000000E+00 0.  1.
         11    1    3    3    0    0 -0.15100607322E+02  0.11296014130E+02 -0.16655131067E+02  0.25159921857E+02  0.51100000000E-03 0. -1.
        -11    1    3    3    0    0  0.12893723687E+01  0.33828081756E+01  0.16978303571E+02  0.17359973061E+02  0.51100000000E-03 0.  1.
        -12    1    3    3    0    0 -0.99267208827E+00  0.10550999581E+02 -0.13012602993E+02  0.16782038812E+02  0.00000000000E+00 0.  1.
</event>
<event>
 7    1  0.6065977E-013  0.5930194E+02  0.7816164E-02  0.1266605E+00
        -11   -1    0    0    0    0  0.00000000000E+00  0.00000000000E+00  0.45593999997E+02  0.45594000000E+02  0.51100000000E-03 0. -1.
         11   -1    0    0    0    0 -0.00000000000E+00 -0.00000000000E+00 -0.45593999997E+02  0.45594000000E+02  0.51100000000E-03 0.  1.
    9900012    2    1    2    0    0  0.15009262970E+02 -0.27393692834E+02 -0.64053403982E+01  0.59301940858E+02  0.49999994219E+02 0.  0.
        -12    1    1    2    0    0 -0.15009262970E+02  0.27393692834E+02  0.64053403982E+01  0.31886059142E+02  0.00000000000E+00 0.  1.
         11    1    3    3    0    0  0.40280292176E+01 -0.24122988263E+02  0.14156173030E+02  0.28258464524E+02  0.51100000000E-03 0. -1.
        -11    1    3    3    0    0  0.33011804972E+01 -0.71977242735E+01 -0.20962556692E+02  0.22408342435E+02  0.51100000000E-03 0.  1.
         12    1    3    3    0    0  0.76800532553E+01  0.39270197027E+01  0.40104326388E+00  0.86351338987E+01  0.00000000000E+00 0. -1.
</event>
<event>
 7    1  0.6065977E-013  0.5930194E+02  0.7816164E-02  0.1266605E+00
        -11   -1    0    0    0    0  0.00000000000E+00  0.00000000000E+00  0.45593999997E+02  0.45594000000E+02  0.51100000000E-03 0. -1.
         11   -1    0    0    0    0 -0.00000000000E+00 -0.00000000000E+00 -0.45593999997E+02  0.45594000000E+02  0.51100000000E-03 0.  1.
    9900012    2    1    2    0    0 -0.79264445679E+01  0.27914256483E+02  0.13216900072E+02  0.59301942138E+02  0.49999996553E+02 0.  0.
        -12    1    1    2    0    0  0.79264445679E+01 -0.27914256483E+02 -0.13216900072E+02  0.31886057862E+02  0.00000000000E+00 0.  1.
         11    1    3    3    0    0  0.16466154323E+02  0.31517913607E+01  0.45072232384E+01  0.17360388491E+02  0.51100000000E-03 0. -1.
        -11    1    3    3    0    0 -0.23848407527E+02  0.97583486284E+01  0.77005968330E+01  0.26893700031E+02  0.51100000000E-03 0.  1.
        -12    1    3    3    0    0 -0.54419136393E+00  0.15004116494E+02  0.10090800010E+01  0.15047853616E+02  0.00000000000E+00 0.  1.
</event>
<event>
 7    1  0.6065977E-013  0.5930179E+02  0.7816164E-02  0.1266605E+00
        -11   -1    0    0    0    0  0.00000000000E+00  0.00000000000E+00  0.45593999997E+02  0.45594000000E+02  0.51100000000E-03 0. -1.
         11   -1    0    0    0    0 -0.00000000000E+00 -0.00000000000E+00 -0.45593999997E+02  0.45594000000E+02  0.51100000000E-03 0.  1.
    9900012    2    1    2    0    0 -0.63732782308E+01 -0.25740696073E+02 -0.17706733362E+02  0.59301787994E+02  0.49999715432E+02 0.  0.
        -12    1    1    2    0    0  0.63732782308E+01  0.25740696073E+02  0.17706733362E+02  0.31886212006E+02  0.00000000000E+00 0.  1.
         11    1    3    3    0    0 -0.26103934807E+02 -0.13752145077E+02 -0.20660419921E+02  0.36019298413E+02  0.51100000000E-03 0. -1.
        -11    1    3    3    0    0  0.12649870966E+02 -0.78648883244E+01  0.21336164360E+01  0.15047525483E+02  0.51100000000E-03 0.  1.
         12    1    3    3    0    0  0.70807856103E+01 -0.41236626716E+01  0.82007012289E+00  0.82349640980E+01  0.00000000000E+00 0. -1.
</event>
<event>
 7    1  0.6065977E-013  0.5930199E+02  0.7816164E-02  0.1266605E+00
        -11   -1    0    0    0    0  0.00000000000E+00  0.00000000000E+00  0.45593999997E+02  0.45594000000E+02  0.51100000000E-03 0.  1.
         11   -1    0    0    0    0 -0.00000000000E+00 -0.00000000000E+00 -0.45593999997E+02  0.45594000000E+02  0.51100000000E-03 0. -1.
    9900012    2    1    2    0    0  0.26325331049E+02 -0.16013967774E+02 -0.82004509437E+01  0.59301990303E+02  0.50000084395E+02 0.  0.
        -12    1    1    2    0    0 -0.26325331049E+02  0.16013967774E+02  0.82004509437E+01  0.31886009697E+02  0.00000000000E+00 0.  1.
         11    1    3    3    0    0  0.94660339175E+01 -0.29301435542E+02 -0.93612660390E+01  0.32184052340E+02  0.51100000000E-03 0. -1.
        -11    1    3    3    0    0  0.15905285379E+02  0.41151546026E+01  0.49342463326E+01  0.17153990426E+02  0.51100000000E-03 0.  1.
         12    1    3    3    0    0  0.95401175308E+00  0.91723131651E+01 -0.37734312373E+01  0.99639475373E+01  0.00000000000E+00 0. -1.
</event>
<event>
 7    1  0.6065977E-013  0.5930195E+02  0.7816164E-02  0.1266605E+00
        -11   -1    0    0    0    0  0.00000000000E+00  0.00000000000E+00  0.45593999997E+02  0.45594000000E+02  0.51100000000E-03 0. -1.
         11   -1    0    0    0    0 -0.00000000000E+00 -0.00000000000E+00 -0.45593999997E+02  0.45594000000E+02  0.51100000000E-03 0.  1.
    9900012    2    1    2    0    0  0.26748159552E+02  0.15592154980E+02  0.76250203565E+01  0.59301948633E+02  0.50000008399E+02 0.  0.
        -12    1    1    2    0    0 -0.26748159552E+02 -0.15592154980E+02 -0.76250203565E+01  0.31886051367E+02  0.00000000000E+00 0.  1.
         11    1    3    3    0    0  0.11652912485E+02  0.19892687175E+02  0.65630478281E+01  0.23970460352E+02  0.51100000000E-03 0. -1.
        -11    1    3    3    0    0  0.14288531638E+02 -0.10730901702E+02 -0.11462388231E+02  0.21229713421E+02  0.51100000000E-03 0.  1.
        -12    1    3    3    0    0  0.80671542854E+00  0.64303695073E+01  0.12524360759E+02  0.14101774860E+02  0.00000000000E+00 0.  1.
</event>
<event>
 7    1  0.6065977E-013  0.5930195E+02  0.7816164E-02  0.1266605E+00
        -11   -1    0    0    0    0  0.00000000000E+00  0.00000000000E+00  0.45593999997E+02  0.45594000000E+02  0.51100000000E-03 0. -1.
         11   -1    0    0    0    0 -0.00000000000E+00 -0.00000000000E+00 -0.45593999997E+02  0.45594000000E+02  0.51100000000E-03 0.  1.
    9900012    2    1    2    0    0 -0.34846923715E+01  0.26909066759E+02  0.16747521260E+02  0.59301946260E+02  0.50000004071E+02 0.  0.
        -12    1    1    2    0    0  0.34846923715E+01 -0.26909066759E+02 -0.16747521260E+02  0.31886053740E+02  0.00000000000E+00 0.  1.
         11    1    3    3    0    0  0.62922935380E+01 -0.12118003921E+02  0.30690919499E+01  0.13994938466E+02  0.51100000000E-03 0. -1.
        -11    1    3    3    0    0 -0.12918541940E+02  0.19919266999E+02  0.89598128396E+01  0.25376055052E+02  0.51100000000E-03 0.  1.
         12    1    3    3    0    0  0.31415560305E+01  0.19107803681E+02  0.47186164702E+01  0.19930952742E+02  0.00000000000E+00 0. -1.
</event>
<event>
 7    1  0.6065977E-013  0.5930195E+02  0.7816164E-02  0.1266605E+00
        -11   -1    0    0    0    0  0.00000000000E+00  0.00000000000E+00  0.45593999997E+02  0.45594000000E+02  0.51100000000E-03 0. -1.
         11   -1    0    0    0    0 -0.00000000000E+00 -0.00000000000E+00 -0.45593999997E+02  0.45594000000E+02  0.51100000000E-03 0.  1.
    9900012    2    1    2    0    0  0.25761077952E+02 -0.17655930204E+02  0.64307852718E+01  0.59301952772E+02  0.50000015948E+02 0.  0.
        -12    1    1    2    0    0 -0.25761077952E+02  0.17655930204E+02 -0.64307852718E+01  0.31886047228E+02  0.00000000000E+00 0.  1.
         11    1    3    3    0    0  0.93178771331E+01 -0.47428681178E+00  0.29962779984E+00  0.93347500945E+01  0.51100000000E-03 0. -1.
        -11    1    3    3    0    0 -0.43790523229E+01 -0.24813396525E+02 -0.41273830503E+01  0.25532646503E+02  0.51100000000E-03 0.  1.
        -12    1    3    3    0    0  0.20822253142E+02  0.76317531331E+01  0.10258540522E+02  0.24434556174E+02  0.00000000000E+00 0.  1.
</event>
<event>
 7    1  0.6065977E-013  0.5930190E+02  0.7816164E-02  0.1266605E+00
        -11   -1    0    0    0    0  0.00000000000E+00  0.00000000000E+00  0.45593999997E+02  0.45594000000E+02  0.51100000000E-03 0. -1.
         11   -1    0    0    0    0 -0.00000000000E+00 -0.00000000000E+00 -0.45593999997E+02  0.45594000000E+02  0.51100000000E-03 0.  1.
    9900012    2    1    2    0    0  0.29574472001E+01 -0.16934803628E+02  0.26854964328E+02  0.59301903078E+02  0.49999925318E+02 0.  0.
        -12    1    1    2    0    0 -0.29574472001E+01  0.16934803628E+02 -0.26854964328E+02  0.31886096922E+02  0.00000000000E+00 0.  1.
         11    1    3    3    0    0 -0.99791046901E+01 -0.10333960602E+02 -0.46357971179E+01  0.15095161057E+02  0.51100000000E-03 0.  1.
        -11    1    3    3    0    0  0.83530648099E+01 -0.12016226189E+02  0.33729332211E+02  0.36767257652E+02  0.51100000000E-03 0. -1.
        -12    1    3    3    0    0  0.45834870802E+01  0.54153831638E+01 -0.22385707656E+01  0.74394843704E+01  0.00000000000E+00 0.  1.
</event>
<event>
 7    1  0.6065977E-013  0.5930183E+02  0.7816164E-02  0.1266605E+00
        -11   -1    0    0    0    0  0.00000000000E+00  0.00000000000E+00  0.45593999997E+02  0.45594000000E+02  0.51100000000E-03 0.  1.
         11   -1    0    0    0    0 -0.00000000000E+00 -0.00000000000E+00 -0.45593999997E+02  0.45594000000E+02  0.51100000000E-03 0. -1.
    9900012    2    1    2    0    0 -0.20675734405E+02 -0.22584002259E+02 -0.88997008463E+01  0.59301830171E+02  0.49999792352E+02 0.  0.
        -12    1    1    2    0    0  0.20675734405E+02  0.22584002259E+02  0.88997008463E+01  0.31886169829E+02  0.00000000000E+00 0.  1.
         11    1    3    3    0    0  0.59979126427E+01 -0.70408658970E+01 -0.42352189104E+01  0.10172798441E+02  0.51100000000E-03 0. -1.
        -11    1    3    3    0    0 -0.20963939826E+02 -0.23348410107E+02  0.87648449323E+01  0.32580017411E+02  0.51100000000E-03 0.  1.
        -12    1    3    3    0    0 -0.57097072211E+01  0.78052737450E+01 -0.13429326868E+02  0.16549014319E+02  0.00000000000E+00 0.  1.
</event>
<event>
 7    1  0.6065977E-013  0.5930197E+02  0.7816164E-02  0.1266605E+00
        -11   -1    0    0    0    0  0.00000000000E+00  0.00000000000E+00  0.45593999997E+02  0.45594000000E+02  0.51100000000E-03 0.  1.
         11   -1    0    0    0    0 -0.00000000000E+00 -0.00000000000E+00 -0.45593999997E+02  0.45594000000E+02  0.51100000000E-03 0. -1.
    9900012    2    1    2    0    0 -0.66671841841E+01  0.15655507205E+02 -0.26966138256E+02  0.59301970720E+02  0.50000048680E+02 0.  0.
        -12    1    1    2    0    0  0.66671841841E+01 -0.15655507205E+02  0.26966138256E+02  0.31886029280E+02  0.00000000000E+00 0.  1.
         11    1    3    3    0    0  0.93053336259E+01  0.44990216915E+01  0.10612595934E+02  0.14814102160E+02  0.51100000000E-03 0. -1.
        -11    1    3    3    0    0  0.33304796409E+00 -0.22579723149E+01 -0.67194028874E+01  0.70964593528E+01  0.51100000000E-03 0.  1.
         12    1    3    3    0    0 -0.16305565774E+02  0.13414457829E+02 -0.30859331303E+02  0.37391409207E+02  0.00000000000E+00 0. -1.
</event>
<event>
 7    1  0.6065977E-013  0.5930191E+02  0.7816164E-02  0.1266605E+00
        -11   -1    0    0    0    0  0.00000000000E+00  0.00000000000E+00  0.45593999997E+02  0.45594000000E+02  0.51100000000E-03 0.  1.
         11   -1    0    0    0    0 -0.00000000000E+00 -0.00000000000E+00 -0.45593999997E+02  0.45594000000E+02  0.51100000000E-03 0. -1.
    9900012    2    1    2    0    0  0.21773074134E+02 -0.12683580029E+02 -0.19539255012E+02  0.59301914539E+02  0.49999946220E+02 0.  0.
        -12    1    1    2    0    0 -0.21773074134E+02  0.12683580029E+02  0.19539255012E+02  0.31886085461E+02  0.00000000000E+00 0.  1.
         11    1    3    3    0    0  0.13043707343E+01 -0.24862436927E+02 -0.15392203754E+02  0.29270498623E+02  0.51100000000E-03 0. -1.
        -11    1    3    3    0    0  0.87533579040E+01 -0.29713338628E+01  0.28003596864E+01  0.96587843000E+01  0.51100000000E-03 0.  1.
         12    1    3    3    0    0  0.11715345496E+02  0.15150190760E+02 -0.69474109443E+01  0.20372631617E+02  0.00000000000E+00 0. -1.
</event>
<event>
 7    1  0.6065977E-013  0.5930210E+02  0.7816164E-02  0.1266604E+00
        -11   -1    0    0    0    0  0.00000000000E+00  0.00000000000E+00  0.45593999997E+02  0.45594000000E+02  0.51100000000E-03 0.  1.
         11   -1    0    0    0    0 -0.00000000000E+00 -0.00000000000E+00 -0.45593999997E+02  0.45594000000E+02  0.51100000000E-03 0. -1.
    9900012    2    1    2    0    0 -0.89405175875E+01  0.79961344001E+01 -0.29543864145E+02  0.59302095141E+02  0.50000275593E+02 0.  0.
        -12    1    1    2    0    0  0.89405175875E+01 -0.79961344001E+01  0.29543864145E+02  0.31885904859E+02  0.00000000000E+00 0.  1.
         11    1    3    3    0    0 -0.14847036468E+02  0.75063917470E+01 -0.15521205711E+02  0.22752763259E+02  0.51100000000E-03 0. -1.
        -11    1    3    3    0    0  0.72813025667E+01 -0.15547422791E+02 -0.10326644274E+02  0.20034452943E+02  0.51100000000E-03 0.  1.
        -12    1    3    3    0    0 -0.13747836858E+01  0.16037165444E+02 -0.36960141608E+01  0.16514878938E+02  0.00000000000E+00 0.  1.
</event>
<event>
 7    1  0.6065977E-013  0.5930186E+02  0.7816164E-02  0.1266605E+00
        -11   -1    0    0    0    0  0.00000000000E+00  0.00000000000E+00  0.45593999997E+02  0.45594000000E+02  0.51100000000E-03 0.  1.
         11   -1    0    0    0    0 -0.00000000000E+00 -0.00000000000E+00 -0.45593999997E+02  0.45594000000E+02  0.51100000000E-03 0. -1.
    9900012    2    1    2    0    0  0.18944708450E+01  0.11928752925E+00 -0.31829591335E+02  0.59301856711E+02  0.49999840754E+02 0.  0.
        -12    1    1    2    0    0 -0.18944708450E+01 -0.11928752925E+00  0.31829591335E+02  0.31886143289E+02  0.00000000000E+00 0.  1.
         11    1    3    3    0    0  0.80201138591E+01  0.77369807624E+01 -0.35882617847E+02  0.37573200043E+02  0.51100000000E-03 0. -1.
        -11    1    3    3    0    0  0.31019866641E+01  0.48318837505E+01  0.20801870564E+01  0.61070942594E+01  0.51100000000E-03 0.  1.
         12    1    3    3    0    0 -0.92276296782E+01 -0.12449576984E+02  0.19728394556E+01  0.15621562408E+02  0.00000000000E+00 0. -1.
</event>
<event>
 7    1  0.6065977E-013  0.5930206E+02  0.7816164E-02  0.1266604E+00
        -11   -1    0    0    0    0  0.00000000000E+00  0.00000000000E+00  0.45593999997E+02  0.45594000000E+02  0.51100000000E-03 0. -1.
         11   -1    0    0    0    0 -0.00000000000E+00 -0.00000000000E+00 -0.45593999997E+02  0.45594000000E+02  0.51100000000E-03 0.  1.
    9900012    2    1    2    0    0 -0.10493369996E+01 -0.31441418722E+02  0.52008609062E+01  0.59302064644E+02  0.50000219974E+02 0.  0.
        -12    1    1    2    0    0  0.10493369996E+01  0.31441418722E+02 -0.52008609062E+01  0.31885935356E+02  0.00000000000E+00 0.  1.
         11    1    3    3    0    0  0.16611128572E+02 -0.17427323607E+02  0.15101722039E+02  0.28420119798E+02  0.51100000000E-03 0. -1.
        -11    1    3    3    0    0 -0.96042465405E+01 -0.17768983432E+02 -0.83641710960E+01  0.21861785888E+02  0.51100000000E-03 0.  1.
         12    1    3    3    0    0 -0.80562190310E+01  0.37548883173E+01 -0.15366900371E+01  0.90201589576E+01  0.00000000000E+00 0. -1.
</event>
<event>
 7    1  0.6065977E-013  0.5930193E+02  0.7816164E-02  0.1266605E+00
        -11   -1    0    0    0    0  0.00000000000E+00  0.00000000000E+00  0.45593999997E+02  0.45594000000E+02  0.51100000000E-03 0. -1.
         11   -1    0    0    0    0 -0.00000000000E+00 -0.00000000000E+00 -0.45593999997E+02  0.45594000000E+02  0.51100000000E-03 0.  1.
    9900012    2    1    2    0    0  0.25608548093E+02 -0.67528046491E+01  0.17757337613E+02  0.59301934937E+02  0.49999983422E+02 0.  0.
        -12    1    1    2    0    0 -0.25608548093E+02  0.67528046491E+01 -0.17757337613E+02  0.31886065063E+02  0.00000000000E+00 0.  1.
         11    1    3    3    0    0  0.14811158963E+02  0.14628726336E+02  0.23852221850E+02  0.31659099032E+02  0.51100000000E-03 0. -1.
        -11    1    3    3    0    0  0.72372322467E+01 -0.33620787822E+01  0.80784836472E+00  0.80208306036E+01  0.51100000000E-03 0.  1.
         12    1    3    3    0    0  0.35601568829E+01 -0.18019452203E+02 -0.69027326017E+01  0.19622005302E+02  0.00000000000E+00 0. -1.
</event>
<event>
 7    1  0.6065977E-013  0.5930192E+02  0.7816164E-02  0.1266605E+00
        -11   -1    0    0    0    0  0.00000000000E+00  0.00000000000E+00  0.45593999997E+02  0.45594000000E+02  0.51100000000E-03 0. -1.
         11   -1    0    0    0    0 -0.00000000000E+00 -0.00000000000E+00 -0.45593999997E+02  0.45594000000E+02  0.51100000000E-03 0.  1.
    9900012    2    1    2    0    0 -0.14854911878E+02  0.26570728289E+02 -0.94894597521E+01  0.59301923805E+02  0.49999963119E+02 0.  0.
        -12    1    1    2    0    0  0.14854911878E+02 -0.26570728289E+02  0.94894597521E+01  0.31886076195E+02  0.00000000000E+00 0.  1.
         11    1    3    3    0    0 -0.74472806768E+01  0.39631441184E+01  0.64662125068E+01  0.10629224112E+02  0.51100000000E-03 0. -1.
        -11    1    3    3    0    0 -0.16801094527E+00  0.31907170698E+02 -0.18114854352E+02  0.36691194013E+02  0.51100000000E-03 0.  1.
        -12    1    3    3    0    0 -0.72396202561E+01 -0.92995865280E+01  0.21591820933E+01  0.11981505680E+02  0.00000000000E+00 0.  1.
</event>
<event>
 7    1  0.6065977E-013  0.5930195E+02  0.7816164E-02  0.1266605E+00
        -11   -1    0    0    0    0  0.00000000000E+00  0.00000000000E+00  0.45593999997E+02  0.45594000000E+02  0.51100000000E-03 0.  1.
         11   -1    0    0    0    0 -0.00000000000E+00 -0.00000000000E+00 -0.45593999997E+02  0.45594000000E+02  0.51100000000E-03 0. -1.
    9900012    2    1    2    0    0 -0.28249870038E+01 -0.31266861177E+02 -0.55787975130E+01  0.59301950682E+02  0.50000012135E+02 0.  0.
        -12    1    1    2    0    0  0.28249870038E+01  0.31266861177E+02  0.55787975130E+01  0.31886049318E+02  0.00000000000E+00 0.  1.
         11    1    3    3    0    0 -0.10077141360E+02 -0.18853050338E+01 -0.68633182573E+01  0.12337272422E+02  0.51100000000E-03 0. -1.
        -11    1    3    3    0    0  0.14980359520E+02 -0.28454936005E+02 -0.96215989813E+01  0.33565901174E+02  0.51100000000E-03 0.  1.
        -12    1    3    3    0    0 -0.77282051641E+01 -0.92662013864E+00  0.10906119726E+02  0.13398777086E+02  0.00000000000E+00 0.  1.
</event>
<event>
 7    1  0.6065977E-013  0.5930204E+02  0.7816164E-02  0.1266604E+00
        -11   -1    0    0    0    0  0.00000000000E+00  0.00000000000E+00  0.45593999997E+02  0.45594000000E+02  0.51100000000E-03 0.  1.
         11   -1    0    0    0    0 -0.00000000000E+00 -0.00000000000E+00 -0.45593999997E+02  0.45594000000E+02  0.51100000000E-03 0. -1.
    9900012    2    1    2    0    0  0.27246827069E+02  0.16484617899E+02  0.16068590307E+01  0.59302043709E+02  0.50000181795E+02 0.  0.
        -12    1    1    2    0    0 -0.27246827069E+02 -0.16484617899E+02 -0.16068590307E+01  0.31885956291E+02  0.00000000000E+00 0.  1.
         11    1    3    3    0    0  0.29031423081E+02 -0.46366980262E+01  0.37237546122E+01  0.29634251186E+02  0.51100000000E-03 0. -1.
        -11    1    3    3    0    0 -0.91445298368E+01  0.24746938513E+01  0.28558811774E+00  0.94777685364E+01  0.51100000000E-03 0.  1.
         12    1    3    3    0    0  0.73599338257E+01  0.18646622074E+02 -0.24024836992E+01  0.20190023987E+02  0.00000000000E+00 0. -1.
</event>
<event>
 7    1  0.6065977E-013  0.5930200E+02  0.7816164E-02  0.1266605E+00
        -11   -1    0    0    0    0  0.00000000000E+00  0.00000000000E+00  0.45593999997E+02  0.45594000000E+02  0.51100000000E-03 0.  1.
         11   -1    0    0    0    0 -0.00000000000E+00 -0.00000000000E+00 -0.45593999997E+02  0.45594000000E+02  0.51100000000E-03 0. -1.
    9900012    2    1    2    0    0  0.21945740125E+02  0.56338880526E+01 -0.22435707904E+02  0.59301996905E+02  0.50000096436E+02 0.  0.
        -12    1    1    2    0    0 -0.21945740125E+02 -0.56338880526E+01  0.22435707904E+02  0.31886003095E+02  0.00000000000E+00 0.  1.
         11    1    3    3    0    0 -0.11665139444E+02  0.11526968160E+02  0.25029945495E+01  0.16589498341E+02  0.51100000000E-03 0. -1.
        -11    1    3    3    0    0  0.27579282672E+02 -0.29918051362E+01 -0.17984881292E+02  0.33060908730E+02  0.51100000000E-03 0.  1.
         12    1    3    3    0    0  0.60315968966E+01 -0.29012749715E+01 -0.69538211622E+01  0.96515898348E+01  0.00000000000E+00 0. -1.
</event>
<event>
 7    1  0.6065977E-013  0.5930193E+02  0.7816164E-02  0.1266605E+00
        -11   -1    0    0    0    0  0.00000000000E+00  0.00000000000E+00  0.45593999997E+02  0.45594000000E+02  0.51100000000E-03 0.  1.
         11   -1    0    0    0    0 -0.00000000000E+00 -0.00000000000E+00 -0.45593999997E+02  0.45594000000E+02  0.51100000000E-03 0. -1.
    9900012    2    1    2    0    0  0.17547085474E+02  0.48061387678E+00 -0.26619355726E+02  0.59301932547E+02  0.49999979063E+02 0.  0.
        -12    1    1    2    0    0 -0.17547085474E+02 -0.48061387678E+00  0.26619355726E+02  0.31886067453E+02  0.00000000000E+00 0.  1.
         11    1    3    3    0    0  0.11464852161E+02  0.11988872053E+00 -0.31535667608E+02  0.33555260990E+02  0.51100000000E-03 0. -1.
        -11    1    3    3    0    0 -0.95115131681E+01  0.34285151380E+00  0.32812671045E+01  0.10067429860E+02  0.51100000000E-03 0.  1.
        -12    1    3    3    0    0  0.15593746481E+02  0.17873642454E-01  0.16350447776E+01  0.15679241698E+02  0.00000000000E+00 0.  1.
</event>
<event>
 7    1  0.6065977E-013  0.5930195E+02  0.7816164E-02  0.1266605E+00
        -11   -1    0    0    0    0  0.00000000000E+00  0.00000000000E+00  0.45593999997E+02  0.45594000000E+02  0.51100000000E-03 0.  1.
         11   -1    0    0    0    0 -0.00000000000E+00 -0.00000000000E+00 -0.45593999997E+02  0.45594000000E+02  0.51100000000E-03 0. -1.
    9900012    2    1    2    0    0  0.21856596817E+02 -0.76627626864E+00 -0.23203928012E+02  0.59301948521E+02  0.50000008194E+02 0.  0.
        -12    1    1    2    0    0 -0.21856596817E+02  0.76627626864E+00  0.23203928012E+02  0.31886051479E+02  0.00000000000E+00 0.  1.
         11    1    3    3    0    0 -0.85670610289E+01  0.29748695515E+01 -0.82502297610E+01  0.12260125403E+02  0.51100000000E-03 0. -1.
        -11    1    3    3    0    0  0.25356530259E+02  0.91531772162E+01 -0.41787547530E+00  0.26961248118E+02  0.51100000000E-03 0.  1.
         12    1    3    3    0    0  0.50671275869E+01 -0.12894323036E+02 -0.14535822776E+02  0.20080575000E+02  0.00000000000E+00 0. -1.
</event>
<event>
 7    1  0.6065977E-013  0.5930196E+02  0.7816164E-02  0.1266605E+00
        -11   -1    0    0    0    0  0.00000000000E+00  0.00000000000E+00  0.45593999997E+02  0.45594000000E+02  0.51100000000E-03 0.  1.
         11   -1    0    0    0    0 -0.00000000000E+00 -0.00000000000E+00 -0.45593999997E+02  0.45594000000E+02  0.51100000000E-03 0. -1.
    9900012    2    1    2    0    0  0.19001530200E+02  0.16005067770E+02 -0.19987482690E+02  0.59301955896E+02  0.50000021646E+02 0.  0.
        -12    1    1    2    0    0 -0.19001530200E+02 -0.16005067770E+02  0.19987482690E+02  0.31886044104E+02  0.00000000000E+00 0.  1.
         11    1    3    3    0    0  0.43451516229E+01  0.24777133819E+02  0.28033445748E+01  0.25310974773E+02  0.51100000000E-03 0.  1.
        -11    1    3    3    0    0  0.59947362791E+01 -0.34722091216E+01  0.19920792263E+01  0.72084311154E+01  0.51100000000E-03 0. -1.
         12    1    3    3    0    0  0.86616422985E+01 -0.52998569275E+01 -0.24782906491E+02  0.26782550008E+02  0.00000000000E+00 0. -1.
</event>
<event>
 7    1  0.6065977E-013  0.5930195E+02  0.7816164E-02  0.1266605E+00
        -11   -1    0    0    0    0  0.00000000000E+00  0.00000000000E+00  0.45593999997E+02  0.45594000000E+02  0.51100000000E-03 0.  1.
         11   -1    0    0    0    0 -0.00000000000E+00 -0.00000000000E+00 -0.45593999997E+02  0.45594000000E+02  0.51100000000E-03 0. -1.
    9900012    2    1    2    0    0  0.16791573262E+02  0.18007142913E+02  0.20260946942E+02  0.59301951335E+02  0.50000013327E+02 0.  0.
        -12    1    1    2    0    0 -0.16791573262E+02 -0.18007142913E+02 -0.20260946942E+02  0.31886048665E+02  0.00000000000E+00 0.  1.
         11    1    3    3    0    0  0.13854611411E+02  0.10387084049E+02  0.27065507646E+01  0.17526185828E+02  0.51100000000E-03 0. -1.
        -11    1    3    3    0    0 -0.16968236270E+02  0.12919422063E+01  0.81947138894E+01  0.18887654507E+02  0.51100000000E-03 0.  1.
        -12    1    3    3    0    0  0.19905198120E+02  0.63281166575E+01  0.93596822879E+01  0.22888111001E+02  0.00000000000E+00 0.  1.
</event>
<event>
 7    1  0.6065977E-013  0.5930204E+02  0.7816164E-02  0.1266604E+00
        -11   -1    0    0    0    0  0.00000000000E+00  0.00000000000E+00  0.45593999997E+02  0.45594000000E+02  0.51100000000E-03 0. -1.
         11   -1    0    0    0    0 -0.00000000000E+00 -0.00000000000E+00 -0.45593999997E+02  0.45594000000E+02  0.51100000000E-03 0.  1.
    9900012    2    1    2    0    0  0.17643727680E+02 -0.13922641046E+02  0.22617994292E+02  0.59302035597E+02  0.50000166999E+02 0.  0.
        -12    1    1    2    0    0 -0.17643727680E+02  0.13922641046E+02 -0.22617994292E+02  0.31885964403E+02  0.00000000000E+00 0.  1.
         11    1    3    3    0    0 -0.35451713033E+01  0.12257802083E+02  0.11966614378E+02  0.17493479111E+02  0.51100000000E-03 0. -1.
        -11    1    3    3    0    0  0.21844700077E+02 -0.17368300411E+02 -0.79055778844E-01  0.27907974321E+02  0.51100000000E-03 0.  1.
         12    1    3    3    0    0 -0.65580109409E+00 -0.88121427183E+01  0.10730435694E+02  0.13900582165E+02  0.00000000000E+00 0. -1.
</event>
<event>
 7    1  0.6065977E-013  0.5930194E+02  0.7816164E-02  0.1266605E+00
        -11   -1    0    0    0    0  0.00000000000E+00  0.00000000000E+00  0.45593999997E+02  0.45594000000E+02  0.51100000000E-03 0. -1.
         11   -1    0    0    0    0 -0.00000000000E+00 -0.00000000000E+00 -0.45593999997E+02  0.45594000000E+02  0.51100000000E-03 0.  1.
    9900012    2    1    2    0    0 -0.17209370110E+02  0.20625094685E+02  0.17180332437E+02  0.59301940773E+02  0.49999994064E+02 0.  0.
        -12    1    1    2    0    0  0.17209370110E+02 -0.20625094685E+02 -0.17180332437E+02  0.31886059227E+02  0.00000000000E+00 0.  1.
         11    1    3    3    0    0 -0.89018470909E+01  0.31074508958E+02  0.16000000544E+02  0.36067547828E+02  0.51100000000E-03 0. -1.
        -11    1    3    3    0    0 -0.35520706222E+01 -0.10266876761E+02 -0.75923404912E+01  0.13254040838E+02  0.51100000000E-03 0.  1.
         12    1    3    3    0    0 -0.47554523973E+01 -0.18253751157E+00  0.87726723837E+01  0.99803521079E+01  0.00000000000E+00 0. -1.
</event>
<event>
 7    1  0.6065977E-013  0.5930193E+02  0.7816164E-02  0.1266605E+00
        -11   -1    0    0    0    0  0.00000000000E+00  0.00000000000E+00  0.45593999997E+02  0.45594000000E+02  0.51100000000E-03 0. -1.
         11   -1    0    0    0    0 -0.00000000000E+00 -0.00000000000E+00 -0.45593999997E+02  0.45594000000E+02  0.51100000000E-03 0.  1.
    9900012    2    1    2    0    0  0.23992294119E+02  0.11155036076E+02  0.17794848942E+02  0.59301926930E+02  0.49999968819E+02 0.  0.
        -12    1    1    2    0    0 -0.23992294119E+02 -0.11155036076E+02 -0.17794848942E+02  0.31886073070E+02  0.00000000000E+00 0.  1.
         11    1    3    3    0    0  0.19243601722E+02  0.26313451856E+02  0.16058281872E+02  0.36339818006E+02  0.51100000000E-03 0. -1.
        -11    1    3    3    0    0 -0.57020398974E+01 -0.19644759226E+01  0.10103048074E+01  0.61149931077E+01  0.51100000000E-03 0.  1.
         12    1    3    3    0    0  0.10450732295E+02 -0.13193939858E+02  0.72626226223E+00  0.16847115816E+02  0.00000000000E+00 0. -1.
</event>
<event>
 7    1  0.6065977E-013  0.5930194E+02  0.7816164E-02  0.1266605E+00
        -11   -1    0    0    0    0  0.00000000000E+00  0.00000000000E+00  0.45593999997E+02  0.45594000000E+02  0.51100000000E-03 0. -1.
         11   -1    0    0    0    0 -0.00000000000E+00 -0.00000000000E+00 -0.45593999997E+02  0.45594000000E+02  0.51100000000E-03 0.  1.
    9900012    2    1    2    0    0 -0.15777154593E+02  0.19387310134E+02 -0.19797330033E+02  0.59301942268E+02  0.49999996790E+02 0.  0.
        -12    1    1    2    0    0  0.15777154593E+02 -0.19387310134E+02  0.19797330033E+02  0.31886057732E+02  0.00000000000E+00 0.  1.
         11    1    3    3    0    0 -0.44130258451E+01  0.32188680486E+02 -0.10816124568E+02  0.34242875164E+02  0.51100000000E-03 0.  1.
        -11    1    3    3    0    0 -0.82606998881E+01 -0.13705353508E+02 -0.12481600173E+02  0.20294487443E+02  0.51100000000E-03 0. -1.
         12    1    3    3    0    0 -0.31034288593E+01  0.90398315639E+00  0.35003947081E+01  0.47645796608E+01  0.00000000000E+00 0. -1.
</event>
<event>
 7    1  0.6065977E-013  0.5930189E+02  0.7816164E-02  0.1266605E+00
        -11   -1    0    0    0    0  0.00000000000E+00  0.00000000000E+00  0.45593999997E+02  0.45594000000E+02  0.51100000000E-03 0.  1.
         11   -1    0    0    0    0 -0.00000000000E+00 -0.00000000000E+00 -0.45593999997E+02  0.45594000000E+02  0.51100000000E-03 0. -1.
    9900012    2    1    2    0    0 -0.11326320319E+02 -0.89275310455E+01 -0.28438307906E+02  0.59301894890E+02  0.49999910384E+02 0.  0.
        -12    1    1    2    0    0  0.11326320319E+02  0.89275310455E+01  0.28438307906E+02  0.31886105110E+02  0.00000000000E+00 0.  1.
         11    1    3    3    0    0 -0.17170307427E+02  0.10017217637E+02 -0.21545724192E+02  0.29315223648E+02  0.51100000000E-03 0. -1.
        -11    1    3    3    0    0  0.59254305496E-01 -0.17597602003E+02 -0.12682846181E+02  0.21691788650E+02  0.51100000000E-03 0.  1.
         12    1    3    3    0    0  0.57847328027E+01 -0.13471466798E+01  0.57902624673E+01  0.82948825920E+01  0.00000000000E+00 0. -1.
</event>
<event>
 7    1  0.6065977E-013  0.5930204E+02  0.7816164E-02  0.1266604E+00
        -11   -1    0    0    0    0  0.00000000000E+00  0.00000000000E+00  0.45593999997E+02  0.45594000000E+02  0.51100000000E-03 0. -1.
         11   -1    0    0    0    0 -0.00000000000E+00 -0.00000000000E+00 -0.45593999997E+02  0.45594000000E+02  0.51100000000E-03 0.  1.
    9900012    2    1    2    0    0  0.21254490372E+02 -0.21851599464E+02 -0.93524753311E+01  0.59302038278E+02  0.50000171889E+02 0.  0.
        -12    1    1    2    0    0 -0.21254490372E+02  0.21851599464E+02  0.93524753311E+01  0.31885961722E+02  0.00000000000E+00 0.  1.
         11    1    3    3    0    0 -0.77730615305E+01  0.53724754686E+01 -0.95902444744E+01  0.13463163356E+02  0.51100000000E-03 0. -1.
        -11    1    3    3    0    0  0.14770626982E+02 -0.26779930759E+02 -0.42694976748E+01  0.30879843322E+02  0.51100000000E-03 0.  1.
         12    1    3    3    0    0  0.14256924921E+02 -0.44414417386E+00  0.45072668181E+01  0.14959031600E+02  0.00000000000E+00 0. -1.
</event>
<event>
 7    1  0.6065977E-013  0.5930195E+02  0.7816164E-02  0.1266605E+00
        -11   -1    0    0    0    0  0.00000000000E+00  0.00000000000E+00  0.45593999997E+02  0.45594000000E+02  0.51100000000E-03 0.  1.
         11   -1    0    0    0    0 -0.00000000000E+00 -0.00000000000E+00 -0.45593999997E+02  0.45594000000E+02  0.51100000000E-03 0. -1.
    9900012    2    1    2    0    0 -0.46928262238E+00 -0.18804190270E+02 -0.25746890703E+02  0.59301950091E+02  0.50000011059E+02 0.  0.
        -12    1    1    2    0    0  0.46928262238E+00  0.18804190270E+02  0.25746890703E+02  0.31886049909E+02  0.00000000000E+00 0.  1.
         11    1    3    3    0    0 -0.12169376708E+01 -0.68826184531E+00 -0.24119752087E+02  0.24160237636E+02  0.51100000000E-03 0. -1.
        -11    1    3    3    0    0 -0.20333876984E+01 -0.21279248361E+02  0.93894151039E+01  0.23347423682E+02  0.51100000000E-03 0.  1.
        -12    1    3    3    0    0  0.27810427469E+01  0.31633199366E+01 -0.11016553721E+02  0.11794288773E+02  0.00000000000E+00 0.  1.
</event>
<event>
 7    1  0.6065977E-013  0.5930195E+02  0.7816164E-02  0.1266605E+00
        -11   -1    0    0    0    0  0.00000000000E+00  0.00000000000E+00  0.45593999997E+02  0.45594000000E+02  0.51100000000E-03 0.  1.
         11   -1    0    0    0    0 -0.00000000000E+00 -0.00000000000E+00 -0.45593999997E+02  0.45594000000E+02  0.51100000000E-03 0. -1.
    9900012    2    1    2    0    0  0.17578877937E+02 -0.15254046978E+02 -0.21794898456E+02  0.59301945095E+02  0.50000001946E+02 0.  0.
        -12    1    1    2    0    0 -0.17578877937E+02  0.15254046978E+02  0.21794898456E+02  0.31886054905E+02  0.00000000000E+00 0.  1.
         11    1    3    3    0    0  0.17776171058E+01 -0.10225508257E+01 -0.34418730955E+02  0.34479770497E+02  0.51100000000E-03 0. -1.
        -11    1    3    3    0    0  0.92940063778E+01 -0.92565595950E+01  0.86964724682E+01  0.15738204591E+02  0.51100000000E-03 0.  1.
         12    1    3    3    0    0  0.65072544536E+01 -0.49749365572E+01  0.39273600307E+01  0.90839700067E+01  0.00000000000E+00 0. -1.
</event>
<event>
 7    1  0.6065977E-013  0.5930197E+02  0.7816164E-02  0.1266605E+00
        -11   -1    0    0    0    0  0.00000000000E+00  0.00000000000E+00  0.45593999997E+02  0.45594000000E+02  0.51100000000E-03 0. -1.
         11   -1    0    0    0    0 -0.00000000000E+00 -0.00000000000E+00 -0.45593999997E+02  0.45594000000E+02  0.51100000000E-03 0.  1.
    9900012    2    1    2    0    0 -0.70258288839E+01  0.25140008956E+02  0.18312204401E+02  0.59301966195E+02  0.50000040427E+02 0.  0.
        -12    1    1    2    0    0  0.70258288839E+01 -0.25140008956E+02 -0.18312204401E+02  0.31886033805E+02  0.00000000000E+00 0.  1.
         11    1    3    3    0    0  0.85792563358E+01  0.25483645987E+02 -0.50320446329E+01  0.27355827999E+02  0.51100000000E-03 0. -1.
        -11    1    3    3    0    0 -0.12974297218E+02  0.83994179485E+00  0.59219334833E+01  0.14286608658E+02  0.51100000000E-03 0.  1.
         12    1    3    3    0    0 -0.26307880020E+01 -0.11835788255E+01  0.17422315550E+02  0.17659529537E+02  0.00000000000E+00 0. -1.
</event>
<event>
 7    1  0.6065977E-013  0.5930204E+02  0.7816164E-02  0.1266604E+00
        -11   -1    0    0    0    0  0.00000000000E+00  0.00000000000E+00  0.45593999997E+02  0.45594000000E+02  0.51100000000E-03 0. -1.
         11   -1    0    0    0    0 -0.00000000000E+00 -0.00000000000E+00 -0.45593999997E+02  0.45594000000E+02  0.51100000000E-03 0.  1.
    9900012    2    1    2    0    0 -0.27403143554E+02  0.12083235467E+02  0.10944293891E+02  0.59302040320E+02  0.50000175613E+02 0.  0.
        -12    1    1    2    0    0  0.27403143554E+02 -0.12083235467E+02 -0.10944293891E+02  0.31885959680E+02  0.00000000000E+00 0.  1.
         11    1    3    3    0    0  0.12108411558E+02  0.21427852183E+01  0.72082301886E+01  0.14253551896E+02  0.51100000000E-03 0. -1.
        -11    1    3    3    0    0 -0.28460292865E+02  0.97390439678E+01 -0.55792175685E+01  0.30593543703E+02  0.51100000000E-03 0.  1.
        -12    1    3    3    0    0 -0.11051262246E+02  0.20140628105E+00  0.93152812707E+01  0.14454944720E+02  0.00000000000E+00 0.  1.
</event>
<event>
 7    1  0.6065977E-013  0.5930195E+02  0.7816164E-02  0.1266605E+00
        -11   -1    0    0    0    0  0.00000000000E+00  0.00000000000E+00  0.45593999997E+02  0.45594000000E+02  0.51100000000E-03 0.  1.
         11   -1    0    0    0    0 -0.00000000000E+00 -0.00000000000E+00 -0.45593999997E+02  0.45594000000E+02  0.51100000000E-03 0. -1.
    9900012    2    1    2    0    0 -0.47478482050E+01 -0.55594425655E+01 -0.31036605267E+02  0.59301947709E+02  0.50000006713E+02 0.  0.
        -12    1    1    2    0    0  0.47478482050E+01  0.55594425655E+01  0.31036605267E+02  0.31886052291E+02  0.00000000000E+00 0.  1.
         11    1    3    3    0    0  0.10280343329E+02 -0.53293660339E+01 -0.10381937041E+02  0.15552241583E+02  0.51100000000E-03 0. -1.
        -11    1    3    3    0    0 -0.64264505731E+01  0.10711247741E+02  0.58651900456E+01  0.13799657592E+02  0.51100000000E-03 0.  1.
        -12    1    3    3    0    0 -0.86017409607E+01 -0.10941324272E+02 -0.26519858272E+02  0.29950048533E+02  0.00000000000E+00 0.  1.
</event>
<event>
 7    1  0.6065977E-013  0.5930194E+02  0.7816164E-02  0.1266605E+00
        -11   -1    0    0    0    0  0.00000000000E+00  0.00000000000E+00  0.45593999997E+02  0.45594000000E+02  0.51100000000E-03 0.  1.
         11   -1    0    0    0    0 -0.00000000000E+00 -0.00000000000E+00 -0.45593999997E+02  0.45594000000E+02  0.51100000000E-03 0. -1.
    9900012    2    1    2    0    0  0.38698029005E+01 -0.28894827057E+02 -0.12916445548E+02  0.59301937673E+02  0.49999988410E+02 0.  0.
        -12    1    1    2    0    0 -0.38698029005E+01  0.28894827057E+02  0.12916445548E+02  0.31886062327E+02  0.00000000000E+00 0.  1.
         11    1    3    3    0    0  0.67787119203E+01 -0.64130158936E+01 -0.13391006563E+02  0.16321665515E+02  0.51100000000E-03 0. -1.
        -11    1    3    3    0    0 -0.74647533709E+01 -0.28984218743E+02  0.90747831297E+01  0.31275536257E+02  0.51100000000E-03 0.  1.
         12    1    3    3    0    0  0.45558443511E+01  0.65024075801E+01 -0.86002221152E+01  0.11704735901E+02  0.00000000000E+00 0. -1.
</event>
<event>
 7    1  0.6065977E-013  0.5930198E+02  0.7816164E-02  0.1266605E+00
        -11   -1    0    0    0    0  0.00000000000E+00  0.00000000000E+00  0.45593999997E+02  0.45594000000E+02  0.51100000000E-03 0. -1.
         11   -1    0    0    0    0 -0.00000000000E+00 -0.00000000000E+00 -0.45593999997E+02  0.45594000000E+02  0.51100000000E-03 0.  1.
    9900012    2    1    2    0    0 -0.30431717867E+02  0.84333686466E+01  0.44167061914E+01  0.59301977159E+02  0.50000060423E+02 0.  0.
        -12    1    1    2    0    0  0.30431717867E+02 -0.84333686466E+01 -0.44167061914E+01  0.31886022841E+02  0.00000000000E+00 0.  1.
         11    1    3    3    0    0 -0.16924265160E+02 -0.11240536326E+01  0.24542254111E+02  0.29833144066E+02  0.51100000000E-03 0. -1.
        -11    1    3    3    0    0 -0.18551727123E+01  0.93243537412E+01 -0.11762100786E+02  0.15123896774E+02  0.51100000000E-03 0.  1.
         12    1    3    3    0    0 -0.11652279994E+02  0.23306853802E+00 -0.83634471334E+01  0.14344936318E+02  0.00000000000E+00 0. -1.
</event>
<event>
 7    1  0.6065977E-013  0.5930194E+02  0.7816164E-02  0.1266605E+00
        -11   -1    0    0    0    0  0.00000000000E+00  0.00000000000E+00  0.45593999997E+02  0.45594000000E+02  0.51100000000E-03 0. -1.
         11   -1    0    0    0    0 -0.00000000000E+00 -0.00000000000E+00 -0.45593999997E+02  0.45594000000E+02  0.51100000000E-03 0.  1.
    9900012    2    1    2    0    0 -0.19719106327E+02  0.19722237780E+02  0.15456741606E+02  0.59301942256E+02  0.49999996768E+02 0.  0.
        -12    1    1    2    0    0  0.19719106327E+02 -0.19722237780E+02 -0.15456741606E+02  0.31886057744E+02  0.00000000000E+00 0.  1.
         11    1    3    3    0    0 -0.18615623513E+01  0.34868186436E+01  0.22595317668E+02  0.22938432802E+02  0.51100000000E-03 0. -1.
        -11    1    3    3    0    0 -0.10363361748E+02  0.23169233886E+02 -0.40940202034E+01  0.25709408147E+02  0.51100000000E-03 0.  1.
        -12    1    3    3    0    0 -0.74941822282E+01 -0.69338147500E+01 -0.30445558593E+01  0.10654101306E+02  0.00000000000E+00 0.  1.
</event>
<event>
 7    1  0.6065977E-013  0.5930194E+02  0.7816164E-02  0.1266605E+00
        -11   -1    0    0    0    0  0.00000000000E+00  0.00000000000E+00  0.45593999997E+02  0.45594000000E+02  0.51100000000E-03 0. -1.
         11   -1    0    0    0    0 -0.00000000000E+00 -0.00000000000E+00 -0.45593999997E+02  0.45594000000E+02  0.51100000000E-03 0.  1.
    9900012    2    1    2    0    0 -0.24482635467E+02 -0.13159403994E+02 -0.15625347743E+02  0.59301939645E+02  0.49999992007E+02 0.  0.
        -12    1    1    2    0    0  0.24482635467E+02  0.13159403994E+02  0.15625347743E+02  0.31886060355E+02  0.00000000000E+00 0.  1.
         11    1    3    3    0    0 -0.39327344931E+01 -0.20038532197E+02 -0.14192102139E+01  0.20470059382E+02  0.51100000000E-03 0. -1.
        -11    1    3    3    0    0 -0.18657841394E+02  0.16744649116E+02 -0.14147725290E+02  0.28786393499E+02  0.51100000000E-03 0.  1.
        -12    1    3    3    0    0 -0.18920595798E+01 -0.98655209132E+01 -0.58412238674E-01  0.10045486764E+02  0.00000000000E+00 0.  1.
</event>
<event>
 7    1  0.6065977E-013  0.5930193E+02  0.7816164E-02  0.1266605E+00
        -11   -1    0    0    0    0  0.00000000000E+00  0.00000000000E+00  0.45593999997E+02  0.45594000000E+02  0.51100000000E-03 0.  1.
         11   -1    0    0    0    0 -0.00000000000E+00 -0.00000000000E+00 -0.45593999997E+02  0.45594000000E+02  0.51100000000E-03 0. -1.
    9900012    2    1    2    0    0  0.21226167500E+02  0.23183192233E+02  0.53582605449E+01  0.59301928670E+02  0.49999971991E+02 0.  0.
        -12    1    1    2    0    0 -0.21226167500E+02 -0.23183192233E+02 -0.53582605449E+01  0.31886071330E+02  0.00000000000E+00 0.  1.
         11    1    3    3    0    0  0.14106028825E+02  0.42449961008E+01 -0.11792535719E+02  0.18869656596E+02  0.51100000000E-03 0. -1.
        -11    1    3    3    0    0  0.38130159943E+01 -0.54229998388E+01  0.14199901922E+02  0.15671159277E+02  0.51100000000E-03 0.  1.
        -12    1    3    3    0    0  0.33071226806E+01  0.24361195971E+02  0.29508943420E+01  0.24761112797E+02  0.00000000000E+00 0.  1.
</event>
<event>
 7    1  0.6065977E-013  0.5930195E+02  0.7816164E-02  0.1266605E+00
        -11   -1    0    0    0    0  0.00000000000E+00  0.00000000000E+00  0.45593999997E+02  0.45594000000E+02  0.51100000000E-03 0.  1.
         11   -1    0    0    0    0 -0.00000000000E+00 -0.00000000000E+00 -0.45593999997E+02  0.45594000000E+02  0.51100000000E-03 0. -1.
    9900012    2    1    2    0    0 -0.14537787893E+02  0.17348448364E+01 -0.28326019915E+02  0.59301947129E+02  0.50000005656E+02 0.  0.
        -12    1    1    2    0    0  0.14537787893E+02 -0.17348448364E+01  0.28326019915E+02  0.31886052871E+02  0.00000000000E+00 0.  1.
         11    1    3    3    0    0 -0.44235421462E-01 -0.35091243455E+01 -0.30167300854E+02  0.30370741702E+02  0.51100000000E-03 0. -1.
        -11    1    3    3    0    0 -0.84720732720E+01 -0.93693795447E+01  0.33087257341E+01  0.13057908133E+02  0.51100000000E-03 0.  1.
         12    1    3    3    0    0 -0.60214791999E+01  0.14613348727E+02 -0.14674447957E+01  0.15873297294E+02  0.00000000000E+00 0. -1.
</event>
<event>
 7    1  0.6065977E-013  0.5930210E+02  0.7816164E-02  0.1266604E+00
        -11   -1    0    0    0    0  0.00000000000E+00  0.00000000000E+00  0.45593999997E+02  0.45594000000E+02  0.51100000000E-03 0.  1.
         11   -1    0    0    0    0 -0.00000000000E+00 -0.00000000000E+00 -0.45593999997E+02  0.45594000000E+02  0.51100000000E-03 0. -1.
    9900012    2    1    2    0    0  0.28209593856E+02 -0.15472490101E+01 -0.14782941213E+02  0.59302101613E+02  0.50000287398E+02 0.  0.
        -12    1    1    2    0    0 -0.28209593856E+02  0.15472490101E+01  0.14782941213E+02  0.31885898387E+02  0.00000000000E+00 0.  1.
         11    1    3    3    0    0  0.23783484549E+02 -0.69801518404E+01  0.10900914561E+02  0.27077787863E+02  0.51100000000E-03 0. -1.
        -11    1    3    3    0    0 -0.88922973425E+00  0.10225698509E+02 -0.75880591656E+01  0.12764571347E+02  0.51100000000E-03 0.  1.
         12    1    3    3    0    0  0.53153390410E+01 -0.47927956784E+01 -0.18095796608E+02  0.19459742404E+02  0.00000000000E+00 0. -1.
</event>
<event>
 7    1  0.6065977E-013  0.5930193E+02  0.7816164E-02  0.1266605E+00
        -11   -1    0    0    0    0  0.00000000000E+00  0.00000000000E+00  0.45593999997E+02  0.45594000000E+02  0.51100000000E-03 0.  1.
         11   -1    0    0    0    0 -0.00000000000E+00 -0.00000000000E+00 -0.45593999997E+02  0.45594000000E+02  0.51100000000E-03 0. -1.
    9900012    2    1    2    0    0  0.28324863111E+02  0.14624465419E+02 -0.74056255638E+00  0.59301932636E+02  0.49999979224E+02 0.  0.
        -12    1    1    2    0    0 -0.28324863111E+02 -0.14624465419E+02  0.74056255638E+00  0.31886067364E+02  0.00000000000E+00 0.  1.
         11    1    3    3    0    0  0.19584086290E+02 -0.13247141616E+01  0.19994397539E+02  0.28019051316E+02  0.51100000000E-03 0.  1.
        -11    1    3    3    0    0  0.15128843903E+01  0.14729000353E+02 -0.86483223938E+01  0.17147179100E+02  0.51100000000E-03 0. -1.
        -12    1    3    3    0    0  0.72278924306E+01  0.12201792277E+01 -0.12086637702E+02  0.14135702221E+02  0.00000000000E+00 0.  1.
</event>
<event>
 7    1  0.6065977E-013  0.5930190E+02  0.7816164E-02  0.1266605E+00
        -11   -1    0    0    0    0  0.00000000000E+00  0.00000000000E+00  0.45593999997E+02  0.45594000000E+02  0.51100000000E-03 0.  1.
         11   -1    0    0    0    0 -0.00000000000E+00 -0.00000000000E+00 -0.45593999997E+02  0.45594000000E+02  0.51100000000E-03 0. -1.
    9900012    2    1    2    0    0 -0.92466619365E-01  0.31377778453E+02 -0.56700584194E+01  0.59301904390E+02  0.49999927711E+02 0.  0.
        -12    1    1    2    0    0  0.92466619365E-01 -0.31377778453E+02  0.56700584194E+01  0.31886095610E+02  0.00000000000E+00 0.  1.
         11    1    3    3    0    0 -0.37198451378E+00 -0.55940977184E-01 -0.34880596078E+01  0.35082847604E+01  0.51100000000E-03 0. -1.
        -11    1    3    3    0    0  0.20859625149E+01  0.34095531396E+01  0.19757113841E+02  0.20157376808E+02  0.51100000000E-03 0.  1.
        -12    1    3    3    0    0 -0.18064446204E+01  0.28024166291E+02 -0.21939112652E+02  0.35636242822E+02  0.00000000000E+00 0.  1.
</event>
<event>
 7    1  0.6065977E-013  0.5930195E+02  0.7816164E-02  0.1266605E+00
        -11   -1    0    0    0    0  0.00000000000E+00  0.00000000000E+00  0.45593999997E+02  0.45594000000E+02  0.51100000000E-03 0.  1.
         11   -1    0    0    0    0 -0.00000000000E+00 -0.00000000000E+00 -0.45593999997E+02  0.45594000000E+02  0.51100000000E-03 0. -1.
    9900012    2    1    2    0    0  0.47940021561E+01 -0.23309348715E+02 -0.21222905557E+02  0.59301954236E+02  0.50000018618E+02 0.  0.
        -12    1    1    2    0    0 -0.47940021561E+01  0.23309348715E+02  0.21222905557E+02  0.31886045764E+02  0.00000000000E+00 0.  1.
         11    1    3    3    0    0  0.45835138735E+01  0.57473670995E+01  0.28612570742E+01  0.78884485364E+01  0.51100000000E-03 0. -1.
        -11    1    3    3    0    0 -0.10861467307E+02 -0.19964532123E+02 -0.28471069426E+02  0.36430149731E+02  0.51100000000E-03 0.  1.
         12    1    3    3    0    0  0.11071955590E+02 -0.90921836919E+01  0.43869067947E+01  0.14983355969E+02  0.00000000000E+00 0. -1.
</event>
<event>
 7    1  0.6065977E-013  0.5930194E+02  0.7816164E-02  0.1266605E+00
        -11   -1    0    0    0    0  0.00000000000E+00  0.00000000000E+00  0.45593999997E+02  0.45594000000E+02  0.51100000000E-03 0. -1.
         11   -1    0    0    0    0 -0.00000000000E+00 -0.00000000000E+00 -0.45593999997E+02  0.45594000000E+02  0.51100000000E-03 0.  1.
    9900012    2    1    2    0    0  0.57827210796E+01 -0.23525025257E+02 -0.20732918401E+02  0.59301943770E+02  0.49999999531E+02 0.  0.
        -12    1    1    2    0    0 -0.57827210796E+01  0.23525025257E+02  0.20732918401E+02  0.31886056230E+02  0.00000000000E+00 0.  1.
         11    1    3    3    0    0 -0.13420282842E+02  0.21713259258E+01 -0.11333440312E+02  0.17699308387E+02  0.51100000000E-03 0.  1.
        -11    1    3    3    0    0  0.23914518703E+02 -0.16169925693E+02 -0.25981955572E+01  0.28984846423E+02  0.51100000000E-03 0. -1.
        -12    1    3    3    0    0 -0.47115147823E+01 -0.95264254903E+01 -0.68012825317E+01  0.12617788960E+02  0.00000000000E+00 0.  1.
</event>
<event>
 7    1  0.6065977E-013  0.5930200E+02  0.7816164E-02  0.1266605E+00
        -11   -1    0    0    0    0  0.00000000000E+00  0.00000000000E+00  0.45593999997E+02  0.45594000000E+02  0.51100000000E-03 0.  1.
         11   -1    0    0    0    0 -0.00000000000E+00 -0.00000000000E+00 -0.45593999997E+02  0.45594000000E+02  0.51100000000E-03 0. -1.
    9900012    2    1    2    0    0 -0.18921177492E+01  0.96304001286E+01 -0.30337971361E+02  0.59301996448E+02  0.50000095602E+02 0.  0.
        -12    1    1    2    0    0  0.18921177492E+01 -0.96304001286E+01  0.30337971361E+02  0.31886003552E+02  0.00000000000E+00 0.  1.
         11    1    3    3    0    0 -0.13066709467E+02 -0.40508354093E+01 -0.37344567513E+01  0.14180773297E+02  0.51100000000E-03 0. -1.
        -11    1    3    3    0    0  0.91837713921E+01  0.24071980276E+02 -0.17309905095E+02  0.31039244612E+02  0.51100000000E-03 0.  1.
         12    1    3    3    0    0  0.19908203260E+01 -0.10390744738E+02 -0.92936095143E+01  0.14081978539E+02  0.00000000000E+00 0. -1.
</event>
<event>
 7    1  0.6065977E-013  0.5930198E+02  0.7816164E-02  0.1266605E+00
        -11   -1    0    0    0    0  0.00000000000E+00  0.00000000000E+00  0.45593999997E+02  0.45594000000E+02  0.51100000000E-03 0. -1.
         11   -1    0    0    0    0 -0.00000000000E+00 -0.00000000000E+00 -0.45593999997E+02  0.45594000000E+02  0.51100000000E-03 0.  1.
    9900012    2    1    2    0    0  0.16473183124E+02  0.20041552823E+02  0.18538845749E+02  0.59301977929E+02  0.50000061828E+02 0.  0.
        -12    1    1    2    0    0 -0.16473183124E+02 -0.20041552823E+02 -0.18538845749E+02  0.31886022071E+02  0.00000000000E+00 0.  1.
         11    1    3    3    0    0 -0.14763126465E+02 -0.32024459526E+01  0.29605250392E+01  0.15393838764E+02  0.51100000000E-03 0. -1.
        -11    1    3    3    0    0  0.98962337367E+01  0.77109354734E+00  0.22805506290E+01  0.10184838676E+02  0.51100000000E-03 0.  1.
         12    1    3    3    0    0  0.21340075852E+02  0.22472905228E+02  0.13297770081E+02  0.33723300490E+02  0.00000000000E+00 0. -1.
</event>
<event>
 7    1  0.6065977E-013  0.5930194E+02  0.7816164E-02  0.1266605E+00
        -11   -1    0    0    0    0  0.00000000000E+00  0.00000000000E+00  0.45593999997E+02  0.45594000000E+02  0.51100000000E-03 0. -1.
         11   -1    0    0    0    0 -0.00000000000E+00 -0.00000000000E+00 -0.45593999997E+02  0.45594000000E+02  0.51100000000E-03 0.  1.
    9900012    2    1    2    0    0 -0.23418638512E+02  0.12681390416E+02  0.17534834556E+02  0.59301941674E+02  0.49999995708E+02 0.  0.
        -12    1    1    2    0    0  0.23418638512E+02 -0.12681390416E+02 -0.17534834556E+02  0.31886058326E+02  0.00000000000E+00 0.  1.
         11    1    3    3    0    0 -0.44821217934E+01 -0.93555042605E+01  0.15610038401E+02  0.18742683236E+02  0.51100000000E-03 0. -1.
        -11    1    3    3    0    0 -0.97102625803E+01  0.26506153263E+02  0.70527975774E+01  0.29096517217E+02  0.51100000000E-03 0.  1.
        -12    1    3    3    0    0 -0.92262541382E+01 -0.44692585866E+01 -0.51280014225E+01  0.11462741222E+02  0.00000000000E+00 0.  1.
</event>
<event>
 7    1  0.6065977E-013  0.5930193E+02  0.7816164E-02  0.1266605E+00
        -11   -1    0    0    0    0  0.00000000000E+00  0.00000000000E+00  0.45593999997E+02  0.45594000000E+02  0.51100000000E-03 0.  1.
         11   -1    0    0    0    0 -0.00000000000E+00 -0.00000000000E+00 -0.45593999997E+02  0.45594000000E+02  0.51100000000E-03 0. -1.
    9900012    2    1    2    0    0  0.15836880829E+02  0.11115454446E+02 -0.25344842659E+02  0.59301934527E+02  0.49999982672E+02 0.  0.
        -12    1    1    2    0    0 -0.15836880829E+02 -0.11115454446E+02  0.25344842659E+02  0.31886065473E+02  0.00000000000E+00 0.  1.
         11    1    3    3    0    0  0.16919503585E+01 -0.16745159355E+01 -0.86741415654E+01  0.89948558516E+01  0.51100000000E-03 0. -1.
        -11    1    3    3    0    0  0.19423507927E+02  0.25833515553E+02 -0.65595628508E+01  0.32979858264E+02  0.51100000000E-03 0.  1.
        -12    1    3    3    0    0 -0.52785774563E+01 -0.13043545172E+02 -0.10111138243E+02  0.17327220411E+02  0.00000000000E+00 0.  1.
</event>
<event>
 7    1  0.6065977E-013  0.5930189E+02  0.7816164E-02  0.1266605E+00
        -11   -1    0    0    0    0  0.00000000000E+00  0.00000000000E+00  0.45593999997E+02  0.45594000000E+02  0.51100000000E-03 0.  1.
         11   -1    0    0    0    0 -0.00000000000E+00 -0.00000000000E+00 -0.45593999997E+02  0.45594000000E+02  0.51100000000E-03 0. -1.
    9900012    2    1    2    0    0  0.25514225431E+02 -0.97144899458E+01  0.16473517335E+02  0.59301893501E+02  0.49999907852E+02 0.  0.
        -12    1    1    2    0    0 -0.25514225431E+02  0.97144899458E+01 -0.16473517335E+02  0.31886106499E+02  0.00000000000E+00 0.  1.
         11    1    3    3    0    0  0.71869736679E+01  0.65028078419E+01  0.12897763571E+02  0.16133549074E+02  0.51100000000E-03 0. -1.
        -11    1    3    3    0    0  0.19217237019E+02 -0.16404504605E+02 -0.11715037323E+02  0.27850530870E+02  0.51100000000E-03 0.  1.
        -12    1    3    3    0    0 -0.88998525570E+00  0.18720681747E+00  0.15290791086E+02  0.15317813558E+02  0.00000000000E+00 0.  1.
</event>
<event>
 7    1  0.6065977E-013  0.5930195E+02  0.7816164E-02  0.1266605E+00
        -11   -1    0    0    0    0  0.00000000000E+00  0.00000000000E+00  0.45593999997E+02  0.45594000000E+02  0.51100000000E-03 0.  1.
         11   -1    0    0    0    0 -0.00000000000E+00 -0.00000000000E+00 -0.45593999997E+02  0.45594000000E+02  0.51100000000E-03 0. -1.
    9900012    2    1    2    0    0 -0.22998561395E+02  0.16742877149E+02 -0.14403559530E+02  0.59301948370E+02  0.50000007918E+02 0.  0.
        -12    1    1    2    0    0  0.22998561395E+02 -0.16742877149E+02  0.14403559530E+02  0.31886051630E+02  0.00000000000E+00 0.  1.
         11    1    3    3    0    0 -0.13346258708E+01  0.29498374102E+01  0.16542978808E+00  0.32419337188E+01  0.51100000000E-03 0. -1.
        -11    1    3    3    0    0 -0.16158638393E+02 -0.13282756358E+02  0.58314257437E+01  0.21714942727E+02  0.51100000000E-03 0.  1.
        -12    1    3    3    0    0 -0.55052971308E+01  0.27075796096E+02 -0.20400415062E+02  0.34345071923E+02  0.00000000000E+00 0.  1.
</event>
<event>
 7    1  0.6065977E-013  0.5930193E+02  0.7816164E-02  0.1266605E+00
        -11   -1    0    0    0    0  0.00000000000E+00  0.00000000000E+00  0.45593999997E+02  0.45594000000E+02  0.51100000000E-03 0. -1.
         11   -1    0    0    0    0 -0.00000000000E+00 -0.00000000000E+00 -0.45593999997E+02  0.45594000000E+02  0.51100000000E-03 0.  1.
    9900012    2    1    2    0    0  0.18880396790E+02  0.24052188613E+02  0.90412617542E+01  0.59301928210E+02  0.49999971153E+02 0.  0.
        -12    1    1    2    0    0 -0.18880396790E+02 -0.24052188613E+02 -0.90412617542E+01  0.31886071790E+02  0.00000000000E+00 0.  1.
         11    1    3    3    0    0  0.26274379423E+02  0.74681545476E+01  0.21126820465E+02  0.34531998055E+02  0.51100000000E-03 0. -1.
        -11    1    3    3    0    0 -0.13816715947E+00  0.33550781701E+00 -0.59289253781E+01  0.59400178501E+01  0.51100000000E-03 0.  1.
         12    1    3    3    0    0 -0.72558154734E+01  0.16248526249E+02 -0.61566333328E+01  0.18829912306E+02  0.00000000000E+00 0. -1.
</event>
<event>
 7    1  0.6065977E-013  0.5930194E+02  0.7816164E-02  0.1266605E+00
        -11   -1    0    0    0    0  0.00000000000E+00  0.00000000000E+00  0.45593999997E+02  0.45594000000E+02  0.51100000000E-03 0. -1.
         11   -1    0    0    0    0 -0.00000000000E+00 -0.00000000000E+00 -0.45593999997E+02  0.45594000000E+02  0.51100000000E-03 0.  1.
    9900012    2    1    2    0    0  0.12228073479E+02  0.14881295530E+02  0.25411456699E+02  0.59301939264E+02  0.49999991313E+02 0.  0.
        -12    1    1    2    0    0 -0.12228073479E+02 -0.14881295530E+02 -0.25411456699E+02  0.31886060736E+02  0.00000000000E+00 0.  1.
         11    1    3    3    0    0  0.29163022063E+01 -0.92074736624E+01  0.23966508569E+02  0.25839425749E+02  0.51100000000E-03 0. -1.
        -11    1    3    3    0    0 -0.45524017944E+01  0.16931403274E+02  0.29812573188E+01  0.17784394125E+02  0.51100000000E-03 0.  1.
         12    1    3    3    0    0  0.13864173067E+02  0.71573659186E+01 -0.15363091879E+01  0.15678119391E+02  0.00000000000E+00 0. -1.
</event>
<event>
 7    1  0.6065977E-013  0.5930195E+02  0.7816164E-02  0.1266605E+00
        -11   -1    0    0    0    0  0.00000000000E+00  0.00000000000E+00  0.45593999997E+02  0.45594000000E+02  0.51100000000E-03 0.  1.
         11   -1    0    0    0    0 -0.00000000000E+00 -0.00000000000E+00 -0.45593999997E+02  0.45594000000E+02  0.51100000000E-03 0. -1.
    9900012    2    1    2    0    0  0.26823789231E+02 -0.15618190259E+02  0.72990942728E+01  0.59301947989E+02  0.50000007224E+02 0.  0.
        -12    1    1    2    0    0 -0.26823789231E+02  0.15618190259E+02 -0.72990942728E+01  0.31886052011E+02  0.00000000000E+00 0.  1.
         11    1    3    3    0    0  0.39928980624E+02 -0.16477566489E+02  0.12506030519E+01  0.43213397220E+02  0.51100000000E-03 0. -1.
        -11    1    3    3    0    0 -0.53131248810E+01 -0.15853981187E+01  0.56441331986E+01  0.79119544375E+01  0.51100000000E-03 0.  1.
         12    1    3    3    0    0 -0.77920665122E+01  0.24447743490E+01  0.40435802219E+00  0.81765963309E+01  0.00000000000E+00 0. -1.
</event>
<event>
 7    1  0.6065977E-013  0.5930202E+02  0.7816164E-02  0.1266604E+00
        -11   -1    0    0    0    0  0.00000000000E+00  0.00000000000E+00  0.45593999997E+02  0.45594000000E+02  0.51100000000E-03 0.  1.
         11   -1    0    0    0    0 -0.00000000000E+00 -0.00000000000E+00 -0.45593999997E+02  0.45594000000E+02  0.51100000000E-03 0. -1.
    9900012    2    1    2    0    0 -0.17695455555E+02  0.90027160330E+01 -0.24950699528E+02  0.59302024239E+02  0.50000146287E+02 0.  0.
        -12    1    1    2    0    0  0.17695455555E+02 -0.90027160330E+01  0.24950699528E+02  0.31885975761E+02  0.00000000000E+00 0.  1.
         11    1    3    3    0    0  0.28972963484E+01  0.90433663537E+01 -0.30296700556E+02  0.31750068756E+02  0.51100000000E-03 0. -1.
        -11    1    3    3    0    0 -0.67720725161E+01 -0.63075452676E+01  0.78945467077E+01  0.12164290421E+02  0.51100000000E-03 0.  1.
        -12    1    3    3    0    0 -0.13820679387E+02  0.62668949469E+01 -0.25485456792E+01  0.15387665063E+02  0.00000000000E+00 0.  1.
</event>
<event>
 7    1  0.6065977E-013  0.5930193E+02  0.7816164E-02  0.1266605E+00
        -11   -1    0    0    0    0  0.00000000000E+00  0.00000000000E+00  0.45593999997E+02  0.45594000000E+02  0.51100000000E-03 0.  1.
         11   -1    0    0    0    0 -0.00000000000E+00 -0.00000000000E+00 -0.45593999997E+02  0.45594000000E+02  0.51100000000E-03 0. -1.
    9900012    2    1    2    0    0 -0.10295567447E+02  0.36227384033E+01 -0.29959949866E+02  0.59301928769E+02  0.49999972172E+02 0.  0.
        -12    1    1    2    0    0  0.10295567447E+02 -0.36227384033E+01  0.29959949866E+02  0.31886071231E+02  0.00000000000E+00 0.  1.
         11    1    3    3    0    0 -0.25422545632E+01 -0.18347779324E+02 -0.79388536275E+01  0.20152653958E+02  0.51100000000E-03 0.  1.
        -11    1    3    3    0    0  0.15489385485E+01  0.22144552790E+02 -0.11153609265E+02  0.24843176705E+02  0.51100000000E-03 0. -1.
         12    1    3    3    0    0 -0.93022514323E+01 -0.17403506269E+00 -0.10867486973E+02  0.14306098106E+02  0.00000000000E+00 0. -1.
</event>
<event>
 7    1  0.6065977E-013  0.5930198E+02  0.7816164E-02  0.1266605E+00
        -11   -1    0    0    0    0  0.00000000000E+00  0.00000000000E+00  0.45593999997E+02  0.45594000000E+02  0.51100000000E-03 0. -1.
         11   -1    0    0    0    0 -0.00000000000E+00 -0.00000000000E+00 -0.45593999997E+02  0.45594000000E+02  0.51100000000E-03 0.  1.
    9900012    2    1    2    0    0  0.12263017942E+02 -0.29379723851E+02  0.17800964976E+01  0.59301976006E+02  0.50000058320E+02 0.  0.
        -12    1    1    2    0    0 -0.12263017942E+02  0.29379723851E+02 -0.17800964976E+01  0.31886023994E+02  0.00000000000E+00 0.  1.
         11    1    3    3    0    0 -0.26336475118E+01 -0.32467207868E+01  0.16158347512E+02  0.16690401123E+02  0.51100000000E-03 0. -1.
        -11    1    3    3    0    0  0.11282655448E+02 -0.13684184774E+02 -0.21460077108E+02  0.27840440669E+02  0.51100000000E-03 0.  1.
        -12    1    3    3    0    0  0.36140100057E+01 -0.12448818290E+02  0.70818260939E+01  0.14771134214E+02  0.00000000000E+00 0.  1.
</event>
<event>
 7    1  0.6065977E-013  0.5930188E+02  0.7816164E-02  0.1266605E+00
        -11   -1    0    0    0    0  0.00000000000E+00  0.00000000000E+00  0.45593999997E+02  0.45594000000E+02  0.51100000000E-03 0.  1.
         11   -1    0    0    0    0 -0.00000000000E+00 -0.00000000000E+00 -0.45593999997E+02  0.45594000000E+02  0.51100000000E-03 0. -1.
    9900012    2    1    2    0    0 -0.68154960141E+01 -0.50529212780E+01 -0.30736654303E+02  0.59301875790E+02  0.49999875551E+02 0.  0.
        -12    1    1    2    0    0  0.68154960141E+01  0.50529212780E+01  0.30736654303E+02  0.31886124210E+02  0.00000000000E+00 0.  1.
         11    1    3    3    0    0  0.11273249766E+02  0.10488935251E+02 -0.98346284741E+01  0.18270846736E+02  0.51100000000E-03 0. -1.
        -11    1    3    3    0    0 -0.64649656956E+01 -0.17183304920E+02 -0.15860382418E+01  0.18427622391E+02  0.51100000000E-03 0.  1.
         12    1    3    3    0    0 -0.11623780084E+02  0.16414483914E+01 -0.19315987587E+02  0.22603406662E+02  0.00000000000E+00 0. -1.
</event>
<event>
 7    1  0.6065977E-013  0.5930198E+02  0.7816164E-02  0.1266605E+00
        -11   -1    0    0    0    0  0.00000000000E+00  0.00000000000E+00  0.45593999997E+02  0.45594000000E+02  0.51100000000E-03 0.  1.
         11   -1    0    0    0    0 -0.00000000000E+00 -0.00000000000E+00 -0.45593999997E+02  0.45594000000E+02  0.51100000000E-03 0. -1.
    9900012    2    1    2    0    0  0.31366307499E+02 -0.57258772036E+01 -0.29539969948E+00  0.59301981483E+02  0.50000068309E+02 0.  0.
        -12    1    1    2    0    0 -0.31366307499E+02  0.57258772036E+01  0.29539969948E+00  0.31886018517E+02  0.00000000000E+00 0.  1.
         11    1    3    3    0    0  0.11606251623E+02  0.12008657169E+02 -0.15837866359E+02  0.23016318881E+02  0.51100000000E-03 0.  1.
        -11    1    3    3    0    0  0.65975995957E+01 -0.15504008507E+02  0.15560729091E+02  0.22935537716E+02  0.51100000000E-03 0. -1.
        -12    1    3    3    0    0  0.13162456280E+02 -0.22305258654E+01 -0.18262430754E-01  0.13350124887E+02  0.00000000000E+00 0.  1.
</event>
<event>
 7    1  0.6065977E-013  0.5930194E+02  0.7816164E-02  0.1266605E+00
        -11   -1    0    0    0    0  0.00000000000E+00  0.00000000000E+00  0.45593999997E+02  0.45594000000E+02  0.51100000000E-03 0. -1.
         11   -1    0    0    0    0 -0.00000000000E+00 -0.00000000000E+00 -0.45593999997E+02  0.45594000000E+02  0.51100000000E-03 0.  1.
    9900012    2    1    2    0    0 -0.71490047038E+01 -0.23710446019E+02 -0.20085499760E+02  0.59301940047E+02  0.49999992741E+02 0.  0.
        -12    1    1    2    0    0  0.71490047038E+01  0.23710446019E+02  0.20085499760E+02  0.31886059953E+02  0.00000000000E+00 0.  1.
         11    1    3    3    0    0 -0.76686022448E+01 -0.19835831962E+02  0.16703796857E+01  0.21332085191E+02  0.51100000000E-03 0. -1.
        -11    1    3    3    0    0 -0.95913837563E+01  0.70893384653E+01 -0.19538937404E+02  0.22891558212E+02  0.51100000000E-03 0.  1.
        -12    1    3    3    0    0  0.10110981297E+02 -0.10963952522E+02 -0.22169420423E+01  0.15078296645E+02  0.00000000000E+00 0.  1.
</event>
<event>
 7    1  0.6065977E-013  0.5930189E+02  0.7816164E-02  0.1266605E+00
        -11   -1    0    0    0    0  0.00000000000E+00  0.00000000000E+00  0.45593999997E+02  0.45594000000E+02  0.51100000000E-03 0. -1.
         11   -1    0    0    0    0 -0.00000000000E+00 -0.00000000000E+00 -0.45593999997E+02  0.45594000000E+02  0.51100000000E-03 0.  1.
    9900012    2    1    2    0    0 -0.17724405879E+02 -0.26442433480E+02  0.18349104221E+01  0.59301894117E+02  0.49999908975E+02 0.  0.
        -12    1    1    2    0    0  0.17724405879E+02  0.26442433480E+02 -0.18349104221E+01  0.31886105883E+02  0.00000000000E+00 0.  1.
         11    1    3    3    0    0 -0.46981665999E+01 -0.20589405224E+02  0.21965398397E+02  0.30470889450E+02  0.51100000000E-03 0. -1.
        -11    1    3    3    0    0 -0.11276663101E+02 -0.89947728675E+01 -0.20658823415E+02  0.25196350029E+02  0.51100000000E-03 0.  1.
         12    1    3    3    0    0 -0.17495761780E+01  0.31417446109E+01  0.52833543980E+00  0.36346546383E+01  0.00000000000E+00 0. -1.
</event>
<event>
 7    1  0.6065977E-013  0.5930203E+02  0.7816164E-02  0.1266604E+00
        -11   -1    0    0    0    0  0.00000000000E+00  0.00000000000E+00  0.45593999997E+02  0.45594000000E+02  0.51100000000E-03 0. -1.
         11   -1    0    0    0    0 -0.00000000000E+00 -0.00000000000E+00 -0.45593999997E+02  0.45594000000E+02  0.51100000000E-03 0.  1.
    9900012    2    1    2    0    0 -0.14034772713E+02 -0.24755501261E+02  0.14384215689E+02  0.59302025830E+02  0.50000149187E+02 0.  0.
        -12    1    1    2    0    0  0.14034772713E+02  0.24755501261E+02 -0.14384215689E+02  0.31885974170E+02  0.00000000000E+00 0.  1.
         11    1    3    3    0    0 -0.54040932340E+01 -0.23945438297E+02  0.28369516835E+02  0.37515566431E+02  0.51100000000E-03 0. -1.
        -11    1    3    3    0    0  0.31697144310E+01  0.29384857681E+01 -0.37431819454E+01  0.57177967366E+01  0.51100000000E-03 0.  1.
         12    1    3    3    0    0 -0.11800393910E+02 -0.37485487319E+01 -0.10242119201E+02  0.16068662662E+02  0.00000000000E+00 0. -1.
</event>
<event>
 7    1  0.6065977E-013  0.5930198E+02  0.7816164E-02  0.1266605E+00
        -11   -1    0    0    0    0  0.00000000000E+00  0.00000000000E+00  0.45593999997E+02  0.45594000000E+02  0.51100000000E-03 0.  1.
         11   -1    0    0    0    0 -0.00000000000E+00 -0.00000000000E+00 -0.45593999997E+02  0.45594000000E+02  0.51100000000E-03 0. -1.
    9900012    2    1    2    0    0  0.14783564283E+00  0.18104096365E+02 -0.26247625267E+02  0.59301984370E+02  0.50000073575E+02 0.  0.
        -12    1    1    2    0    0 -0.14783564283E+00 -0.18104096365E+02  0.26247625267E+02  0.31886015630E+02  0.00000000000E+00 0.  1.
         11    1    3    3    0    0 -0.24741331169E+01  0.29629801010E+01 -0.11479053536E+02  0.12110708324E+02  0.51100000000E-03 0. -1.
        -11    1    3    3    0    0  0.21578971052E+02  0.19786749312E+01 -0.84962280190E+01  0.23275588864E+02  0.51100000000E-03 0.  1.
        -12    1    3    3    0    0 -0.18957002292E+02  0.13162441333E+02 -0.62723437121E+01  0.23915687182E+02  0.00000000000E+00 0.  1.
</event>
<event>
 7    1  0.6065977E-013  0.5930197E+02  0.7816164E-02  0.1266605E+00
        -11   -1    0    0    0    0  0.00000000000E+00  0.00000000000E+00  0.45593999997E+02  0.45594000000E+02  0.51100000000E-03 0.  1.
         11   -1    0    0    0    0 -0.00000000000E+00 -0.00000000000E+00 -0.45593999997E+02  0.45594000000E+02  0.51100000000E-03 0. -1.
    9900012    2    1    2    0    0  0.17029108738E+01  0.18699453232E+02 -0.25771100890E+02  0.59301967044E+02  0.50000041975E+02 0.  0.
        -12    1    1    2    0    0 -0.17029108738E+01 -0.18699453232E+02  0.25771100890E+02  0.31886032956E+02  0.00000000000E+00 0.  1.
         11    1    3    3    0    0 -0.24941355288E+01 -0.14308597943E+02 -0.20806378809E+02  0.25374437659E+02  0.51100000000E-03 0. -1.
        -11    1    3    3    0    0  0.42480539899E+01  0.30891274969E+02 -0.35554768224E+01  0.31384044475E+02  0.51100000000E-03 0.  1.
         12    1    3    3    0    0 -0.51007587319E-01  0.21167762068E+01 -0.14092452587E+01  0.25434849091E+01  0.00000000000E+00 0. -1.
</event>
<event>
 7    1  0.6065977E-013  0.5930195E+02  0.7816164E-02  0.1266605E+00
        -11   -1    0    0    0    0  0.00000000000E+00  0.00000000000E+00  0.45593999997E+02  0.45594000000E+02  0.51100000000E-03 0. -1.
         11   -1    0    0    0    0 -0.00000000000E+00 -0.00000000000E+00 -0.45593999997E+02  0.45594000000E+02  0.51100000000E-03 0.  1.
    9900012    2    1    2    0    0  0.30648415090E+02  0.86736382419E+01  0.14706361807E+01  0.59301951034E+02  0.50000012778E+02 0.  0.
        -12    1    1    2    0    0 -0.30648415090E+02 -0.86736382419E+01 -0.14706361807E+01  0.31886048966E+02  0.00000000000E+00 0.  1.
         11    1    3    3    0    0  0.11090858854E+02 -0.94755151520E+01 -0.54233128496E+01  0.15562932244E+02  0.51100000000E-03 0. -1.
        -11    1    3    3    0    0  0.18531358792E+02  0.23105773794E+01  0.16724796043E+02  0.25069280593E+02  0.51100000000E-03 0.  1.
        -12    1    3    3    0    0  0.10261974439E+01  0.15838576015E+02 -0.98308470129E+01  0.18669738197E+02  0.00000000000E+00 0.  1.
</event>
<event>
 7    1  0.6065977E-013  0.5930200E+02  0.7816164E-02  0.1266605E+00
        -11   -1    0    0    0    0  0.00000000000E+00  0.00000000000E+00  0.45593999997E+02  0.45594000000E+02  0.51100000000E-03 0. -1.
         11   -1    0    0    0    0 -0.00000000000E+00 -0.00000000000E+00 -0.45593999997E+02  0.45594000000E+02  0.51100000000E-03 0.  1.
    9900012    2    1    2    0    0 -0.18165772747E+02 -0.22525406970E+02  0.13391329394E+02  0.59302000539E+02  0.50000103063E+02 0.  0.
        -12    1    1    2    0    0  0.18165772747E+02  0.22525406970E+02 -0.13391329394E+02  0.31885999461E+02  0.00000000000E+00 0.  1.
         11    1    3    3    0    0 -0.58269489693E+01 -0.26017657695E+01  0.12662200619E+02  0.14179345690E+02  0.51100000000E-03 0. -1.
        -11    1    3    3    0    0 -0.12055655889E+02  0.55826300226E+01 -0.10808488616E+02  0.17126821751E+02  0.51100000000E-03 0.  1.
        -12    1    3    3    0    0 -0.28316788946E+00 -0.25506271223E+02  0.11537617391E+02  0.27995833098E+02  0.00000000000E+00 0.  1.
</event>
<event>
 7    1  0.6065977E-013  0.5930192E+02  0.7816164E-02  0.1266605E+00
        -11   -1    0    0    0    0  0.00000000000E+00  0.00000000000E+00  0.45593999997E+02  0.45594000000E+02  0.51100000000E-03 0.  1.
         11   -1    0    0    0    0 -0.00000000000E+00 -0.00000000000E+00 -0.45593999997E+02  0.45594000000E+02  0.51100000000E-03 0. -1.
    9900012    2    1    2    0    0  0.11556634487E+02 -0.26960337817E+02 -0.12502249360E+02  0.59301923808E+02  0.49999963125E+02 0.  0.
        -12    1    1    2    0    0 -0.11556634487E+02  0.26960337817E+02  0.12502249360E+02  0.31886076192E+02  0.00000000000E+00 0.  1.
         11    1    3    3    0    0  0.19317234567E+02 -0.19727189892E+02 -0.11196477958E+02  0.29793937156E+02  0.51100000000E-03 0. -1.
        -11    1    3    3    0    0 -0.99371203467E+01  0.87403360474E+01  0.75586624503E+00  0.13255608966E+02  0.51100000000E-03 0.  1.
        -12    1    3    3    0    0  0.21765202673E+01 -0.15973483972E+02 -0.20616376463E+01  0.16252377687E+02  0.00000000000E+00 0.  1.
</event>
<event>
 7    1  0.6065977E-013  0.5930188E+02  0.7816164E-02  0.1266605E+00
        -11   -1    0    0    0    0  0.00000000000E+00  0.00000000000E+00  0.45593999997E+02  0.45594000000E+02  0.51100000000E-03 0.  1.
         11   -1    0    0    0    0 -0.00000000000E+00 -0.00000000000E+00 -0.45593999997E+02  0.45594000000E+02  0.51100000000E-03 0. -1.
    9900012    2    1    2    0    0  0.21644033816E+01 -0.31707025689E+02  0.25893123245E+01  0.59301879848E+02  0.49999882952E+02 0.  0.
        -12    1    1    2    0    0 -0.21644033816E+01  0.31707025689E+02 -0.25893123245E+01  0.31886120152E+02  0.00000000000E+00 0.  1.
         11    1    3    3    0    0 -0.20209449596E+02 -0.10536982004E+02  0.14170099897E+01  0.22835449641E+02  0.51100000000E-03 0. -1.
        -11    1    3    3    0    0  0.69864232142E+01  0.63642623093E+00  0.61356891888E+01  0.93199694075E+01  0.51100000000E-03 0.  1.
         12    1    3    3    0    0  0.15387429763E+02 -0.21806469915E+02 -0.49633868540E+01  0.27146460800E+02  0.00000000000E+00 0. -1.
</event>
<event>
 7    1  0.6065977E-013  0.5930188E+02  0.7816164E-02  0.1266605E+00
        -11   -1    0    0    0    0  0.00000000000E+00  0.00000000000E+00  0.45593999997E+02  0.45594000000E+02  0.51100000000E-03 0.  1.
         11   -1    0    0    0    0 -0.00000000000E+00 -0.00000000000E+00 -0.45593999997E+02  0.45594000000E+02  0.51100000000E-03 0. -1.
    9900012    2    1    2    0    0  0.30003475187E+02 -0.10721268358E+02 -0.12531984563E+01  0.59301880373E+02  0.49999883908E+02 0.  0.
        -12    1    1    2    0    0 -0.30003475187E+02  0.10721268358E+02  0.12531984563E+01  0.31886119627E+02  0.00000000000E+00 0.  1.
         11    1    3    3    0    0 -0.41953168543E+01 -0.15456242561E+02  0.87752370040E+01  0.18262007074E+02  0.51100000000E-03 0. -1.
        -11    1    3    3    0    0  0.11913649176E+02  0.56806468213E+01 -0.13014165227E+02  0.18535729870E+02  0.51100000000E-03 0.  1.
         12    1    3    3    0    0  0.22285142866E+02 -0.94567261827E+00  0.29857297665E+01  0.22504143429E+02  0.00000000000E+00 0. -1.
</event>
<event>
 7    1  0.6065977E-013  0.5930194E+02  0.7816164E-02  0.1266605E+00
        -11   -1    0    0    0    0  0.00000000000E+00  0.00000000000E+00  0.45593999997E+02  0.45594000000E+02  0.51100000000E-03 0.  1.
         11   -1    0    0    0    0 -0.00000000000E+00 -0.00000000000E+00 -0.45593999997E+02  0.45594000000E+02  0.51100000000E-03 0. -1.
    9900012    2    1    2    0    0 -0.10836963662E+01 -0.29199396537E+02 -0.12764861120E+02  0.59301939796E+02  0.49999992282E+02 0.  0.
        -12    1    1    2    0    0  0.10836963662E+01  0.29199396537E+02  0.12764861120E+02  0.31886060204E+02  0.00000000000E+00 0.  1.
         11    1    3    3    0    0  0.70996194423E+01 -0.10374435634E+02 -0.97226315314E+01  0.15892233169E+02  0.51100000000E-03 0. -1.
        -11    1    3    3    0    0 -0.14077513149E+02 -0.66247773248E+01  0.14483966247E+02  0.21256747860E+02  0.51100000000E-03 0.  1.
        -12    1    3    3    0    0  0.58941973403E+01 -0.12200183578E+02 -0.17526195836E+02  0.22152958766E+02  0.00000000000E+00 0.  1.
</event>
<event>
 7    1  0.6065977E-013  0.5930191E+02  0.7816164E-02  0.1266605E+00
        -11   -1    0    0    0    0  0.00000000000E+00  0.00000000000E+00  0.45593999997E+02  0.45594000000E+02  0.51100000000E-03 0. -1.
         11   -1    0    0    0    0 -0.00000000000E+00 -0.00000000000E+00 -0.45593999997E+02  0.45594000000E+02  0.51100000000E-03 0.  1.
    9900012    2    1    2    0    0  0.15806327154E+01  0.66397939129E+00  0.31839961942E+02  0.59301914557E+02  0.49999946252E+02 0.  0.
        -12    1    1    2    0    0 -0.15806327154E+01 -0.66397939129E+00 -0.31839961942E+02  0.31886085443E+02  0.00000000000E+00 0.  1.
         11    1    3    3    0    0  0.12842869250E+02 -0.16269537899E+02  0.26224107802E+02  0.33426650809E+02  0.51100000000E-03 0. -1.
        -11    1    3    3    0    0 -0.49081418296E+01  0.11279505366E+02 -0.40963391073E+01  0.12965226256E+02  0.51100000000E-03 0.  1.
         12    1    3    3    0    0 -0.63540947053E+01  0.56540119250E+01  0.97121932479E+01  0.12910037492E+02  0.00000000000E+00 0. -1.
</event>
<event>
 7    1  0.6065977E-013  0.5930192E+02  0.7816164E-02  0.1266605E+00
        -11   -1    0    0    0    0  0.00000000000E+00  0.00000000000E+00  0.45593999997E+02  0.45594000000E+02  0.51100000000E-03 0. -1.
         11   -1    0    0    0    0 -0.00000000000E+00 -0.00000000000E+00 -0.45593999997E+02  0.45594000000E+02  0.51100000000E-03 0.  1.
    9900012    2    1    2    0    0 -0.31731315736E+02 -0.18612982440E+01 -0.25260923707E+01  0.59301921970E+02  0.49999959772E+02 0.  0.
        -12    1    1    2    0    0  0.31731315736E+02  0.18612982440E+01  0.25260923707E+01  0.31886078030E+02  0.00000000000E+00 0.  1.
         11    1    3    3    0    0 -0.16649490186E+02 -0.17763769153E+02  0.14358556331E+02  0.28265264162E+02  0.51100000000E-03 0. -1.
        -11    1    3    3    0    0  0.18928098105E+01  0.26668025650E+01 -0.61913082675E+01  0.70019185388E+01  0.51100000000E-03 0.  1.
         12    1    3    3    0    0 -0.16974635360E+02  0.13235668344E+02 -0.10693340434E+02  0.24034739269E+02  0.00000000000E+00 0. -1.
</event>
<event>
 7    1  0.6065977E-013  0.5930195E+02  0.7816164E-02  0.1266605E+00
        -11   -1    0    0    0    0  0.00000000000E+00  0.00000000000E+00  0.45593999997E+02  0.45594000000E+02  0.51100000000E-03 0.  1.
         11   -1    0    0    0    0 -0.00000000000E+00 -0.00000000000E+00 -0.45593999997E+02  0.45594000000E+02  0.51100000000E-03 0. -1.
    9900012    2    1    2    0    0 -0.10840084033E+02 -0.10537435016E+02 -0.28074459448E+02  0.59301949259E+02  0.50000009541E+02 0.  0.
        -12    1    1    2    0    0  0.10840084033E+02  0.10537435016E+02  0.28074459448E+02  0.31886050741E+02  0.00000000000E+00 0.  1.
         11    1    3    3    0    0 -0.51404477263E+01 -0.14537143127E+02  0.35555376408E+01  0.15823861137E+02  0.51100000000E-03 0. -1.
        -11    1    3    3    0    0 -0.49703908565E+01  0.16512950219E+02 -0.17044201115E+02  0.24246383279E+02  0.51100000000E-03 0.  1.
        -12    1    3    3    0    0 -0.72924545038E+00 -0.12513242108E+02 -0.14585795974E+02  0.19231704843E+02  0.00000000000E+00 0.  1.
</event>
<event>
 7    1  0.6065977E-013  0.5930193E+02  0.7816164E-02  0.1266605E+00
        -11   -1    0    0    0    0  0.00000000000E+00  0.00000000000E+00  0.45593999997E+02  0.45594000000E+02  0.51100000000E-03 0.  1.
         11   -1    0    0    0    0 -0.00000000000E+00 -0.00000000000E+00 -0.45593999997E+02  0.45594000000E+02  0.51100000000E-03 0. -1.
    9900012    2    1    2    0    0 -0.57247693829E+01  0.30205382156E+02 -0.84606907345E+01  0.59301931202E+02  0.49999976609E+02 0.  0.
        -12    1    1    2    0    0  0.57247693829E+01 -0.30205382156E+02  0.84606907345E+01  0.31886068798E+02  0.00000000000E+00 0.  1.
         11    1    3    3    0    0 -0.13577460421E+02  0.16301887337E+02 -0.24487074039E+02  0.32399317238E+02  0.51100000000E-03 0. -1.
        -11    1    3    3    0    0  0.61534215999E+01  0.35287666196E+01 -0.71992384799E+00  0.71298724988E+01  0.51100000000E-03 0.  1.
         12    1    3    3    0    0  0.16992694383E+01  0.10374728199E+02  0.16746307152E+02  0.19772741465E+02  0.00000000000E+00 0. -1.
</event>
<event>
 7    1  0.6065977E-013  0.5930194E+02  0.7816164E-02  0.1266605E+00
        -11   -1    0    0    0    0  0.00000000000E+00  0.00000000000E+00  0.45593999997E+02  0.45594000000E+02  0.51100000000E-03 0. -1.
         11   -1    0    0    0    0 -0.00000000000E+00 -0.00000000000E+00 -0.45593999997E+02  0.45594000000E+02  0.51100000000E-03 0.  1.
    9900012    2    1    2    0    0  0.84376496566E+01  0.28614792011E+02 -0.11257033937E+02  0.59301936170E+02  0.49999985669E+02 0.  0.
        -12    1    1    2    0    0 -0.84376496566E+01 -0.28614792011E+02  0.11257033937E+02  0.31886063830E+02  0.00000000000E+00 0.  1.
         11    1    3    3    0    0 -0.14681937963E+02  0.19554373048E+01 -0.65663063885E+01  0.16201833762E+02  0.51100000000E-03 0. -1.
        -11    1    3    3    0    0  0.15079241774E+02  0.43639122458E+01 -0.10260129929E+02  0.18753600427E+02  0.51100000000E-03 0.  1.
        -12    1    3    3    0    0  0.80403458454E+01  0.22295442460E+02  0.55694023810E+01  0.24346501980E+02  0.00000000000E+00 0.  1.
</event>
<event>
 7    1  0.6065977E-013  0.5930195E+02  0.7816164E-02  0.1266605E+00
        -11   -1    0    0    0    0  0.00000000000E+00  0.00000000000E+00  0.45593999997E+02  0.45594000000E+02  0.51100000000E-03 0.  1.
         11   -1    0    0    0    0 -0.00000000000E+00 -0.00000000000E+00 -0.45593999997E+02  0.45594000000E+02  0.51100000000E-03 0. -1.
    9900012    2    1    2    0    0 -0.12366816608E+02 -0.16652928939E+02 -0.24216970931E+02  0.59301954834E+02  0.50000019708E+02 0.  0.
        -12    1    1    2    0    0  0.12366816608E+02  0.16652928939E+02  0.24216970931E+02  0.31886045166E+02  0.00000000000E+00 0.  1.
         11    1    3    3    0    0 -0.85160393054E+01 -0.29322282637E+01 -0.74739516385E+01  0.11703881467E+02  0.51100000000E-03 0. -1.
        -11    1    3    3    0    0  0.99218916817E+01 -0.24714242006E+02 -0.73421630935E+01  0.27625080120E+02  0.51100000000E-03 0.  1.
        -12    1    3    3    0    0 -0.13772668984E+02  0.10993541331E+02 -0.94008561990E+01  0.19972993247E+02  0.00000000000E+00 0.  1.
</event>
<event>
 7    1  0.6065977E-013  0.5930175E+02  0.7816164E-02  0.1266605E+00
        -11   -1    0    0    0    0  0.00000000000E+00  0.00000000000E+00  0.45593999997E+02  0.45594000000E+02  0.51100000000E-03 0.  1.
         11   -1    0    0    0    0 -0.00000000000E+00 -0.00000000000E+00 -0.45593999997E+02  0.45594000000E+02  0.51100000000E-03 0. -1.
    9900012    2    1    2    0    0 -0.19417079354E+01  0.10935775465E+02 -0.29889321758E+02  0.59301749517E+02  0.49999645257E+02 0.  0.
        -12    1    1    2    0    0  0.19417079354E+01 -0.10935775465E+02  0.29889321758E+02  0.31886250483E+02  0.00000000000E+00 0.  1.
         11    1    3    3    0    0  0.37529670300E+01  0.76985453869E+01  0.28806682859E-01  0.85646478438E+01  0.51100000000E-03 0. -1.
        -11    1    3    3    0    0 -0.21400893389E+02  0.10112403025E+02 -0.15101992652E+02  0.28077199203E+02  0.51100000000E-03 0.  1.
        -12    1    3    3    0    0  0.15706218423E+02 -0.68751729472E+01 -0.14816135789E+02  0.22659902470E+02  0.00000000000E+00 0.  1.
</event>
<event>
 7    1  0.6065977E-013  0.5930194E+02  0.7816164E-02  0.1266605E+00
        -11   -1    0    0    0    0  0.00000000000E+00  0.00000000000E+00  0.45593999997E+02  0.45594000000E+02  0.51100000000E-03 0.  1.
         11   -1    0    0    0    0 -0.00000000000E+00 -0.00000000000E+00 -0.45593999997E+02  0.45594000000E+02  0.51100000000E-03 0. -1.
    9900012    2    1    2    0    0  0.75111473350E+01 -0.27053113654E+02 -0.15113982090E+02  0.59301941177E+02  0.49999994801E+02 0.  0.
        -12    1    1    2    0    0 -0.75111473350E+01  0.27053113654E+02  0.15113982090E+02  0.31886058823E+02  0.00000000000E+00 0.  1.
         11    1    3    3    0    0  0.56284652139E+01 -0.19454415573E+02 -0.13845874636E+02  0.24532878972E+02  0.51100000000E-03 0. -1.
        -11    1    3    3    0    0 -0.15453129250E+02  0.20333469016E+00  0.16247545457E+01  0.15539638870E+02  0.51100000000E-03 0.  1.
        -12    1    3    3    0    0  0.17335811371E+02 -0.78020327706E+01 -0.28928620000E+01  0.19229423335E+02  0.00000000000E+00 0.  1.
</event>
<event>
 7    1  0.6065977E-013  0.5930196E+02  0.7816164E-02  0.1266605E+00
        -11   -1    0    0    0    0  0.00000000000E+00  0.00000000000E+00  0.45593999997E+02  0.45594000000E+02  0.51100000000E-03 0. -1.
         11   -1    0    0    0    0 -0.00000000000E+00 -0.00000000000E+00 -0.45593999997E+02  0.45594000000E+02  0.51100000000E-03 0.  1.
    9900012    2    1    2    0    0  0.44962334691E+01 -0.27502608824E+02  0.15495482646E+02  0.59301959325E+02  0.50000027898E+02 0.  0.
        -12    1    1    2    0    0 -0.44962334691E+01  0.27502608824E+02 -0.15495482646E+02  0.31886040675E+02  0.00000000000E+00 0.  1.
         11    1    3    3    0    0  0.60718484290E+01 -0.78524987097E+01  0.13073106118E+02  0.16414480899E+02  0.51100000000E-03 0. -1.
        -11    1    3    3    0    0 -0.15883940305E+02 -0.16009347109E+02 -0.89376792491E+01  0.24258624551E+02  0.51100000000E-03 0.  1.
        -12    1    3    3    0    0  0.14308325345E+02 -0.36407630045E+01  0.11360055777E+02  0.18628853875E+02  0.00000000000E+00 0.  1.
</event>
<event>
 7    1  0.6065977E-013  0.5930184E+02  0.7816164E-02  0.1266605E+00
        -11   -1    0    0    0    0  0.00000000000E+00  0.00000000000E+00  0.45593999997E+02  0.45594000000E+02  0.51100000000E-03 0. -1.
         11   -1    0    0    0    0 -0.00000000000E+00 -0.00000000000E+00 -0.45593999997E+02  0.45594000000E+02  0.51100000000E-03 0.  1.
    9900012    2    1    2    0    0  0.23806187961E+02 -0.18805784422E+02  0.98150324933E+01  0.59301843509E+02  0.49999816677E+02 0.  0.
        -12    1    1    2    0    0 -0.23806187961E+02  0.18805784422E+02 -0.98150324933E+01  0.31886156491E+02  0.00000000000E+00 0.  1.
         11    1    3    3    0    0  0.71193149251E+01 -0.23379836929E+02  0.59357310674E+01  0.25150235056E+02  0.51100000000E-03 0. -1.
        -11    1    3    3    0    0 -0.59940445365E+01  0.68377313131E+00 -0.65338498670E+01  0.88931046292E+01  0.51100000000E-03 0.  1.
         12    1    3    3    0    0  0.22680917572E+02  0.38902793756E+01  0.10413151293E+02  0.25258503823E+02  0.00000000000E+00 0. -1.
</event>
<event>
 7    1  0.6065977E-013  0.5930194E+02  0.7816164E-02  0.1266605E+00
        -11   -1    0    0    0    0  0.00000000000E+00  0.00000000000E+00  0.45593999997E+02  0.45594000000E+02  0.51100000000E-03 0.  1.
         11   -1    0    0    0    0 -0.00000000000E+00 -0.00000000000E+00 -0.45593999997E+02  0.45594000000E+02  0.51100000000E-03 0. -1.
    9900012    2    1    2    0    0  0.17140371539E+02 -0.39034598151E+00 -0.26884490200E+02  0.59301944744E+02  0.50000001306E+02 0.  0.
        -12    1    1    2    0    0 -0.17140371539E+02  0.39034598151E+00  0.26884490200E+02  0.31886055256E+02  0.00000000000E+00 0.  1.
         11    1    3    3    0    0  0.23754489436E+02  0.15363176840E+02 -0.22560357690E+02  0.36183873623E+02  0.51100000000E-03 0. -1.
        -11    1    3    3    0    0  0.37457414307E+01 -0.44227645532E+01 -0.51355185535E+01  0.77437055879E+01  0.51100000000E-03 0.  1.
         12    1    3    3    0    0 -0.10359859328E+02 -0.11330758268E+02  0.81138604337E+00  0.15374365533E+02  0.00000000000E+00 0. -1.
</event>
<event>
 7    1  0.6065977E-013  0.5930197E+02  0.7816164E-02  0.1266605E+00
        -11   -1    0    0    0    0  0.00000000000E+00  0.00000000000E+00  0.45593999997E+02  0.45594000000E+02  0.51100000000E-03 0. -1.
         11   -1    0    0    0    0 -0.00000000000E+00 -0.00000000000E+00 -0.45593999997E+02  0.45594000000E+02  0.51100000000E-03 0.  1.
    9900012    2    1    2    0    0  0.17606750760E+02 -0.22476774053E+02  0.14195627879E+02  0.59301970222E+02  0.50000047772E+02 0.  0.
        -12    1    1    2    0    0 -0.17606750760E+02  0.22476774053E+02 -0.14195627879E+02  0.31886029778E+02  0.00000000000E+00 0.  1.
         11    1    3    3    0    0  0.14415055298E+02 -0.33406162303E+01  0.74579927528E+01  0.16570310565E+02  0.51100000000E-03 0. -1.
        -11    1    3    3    0    0 -0.15272450028E+02 -0.10098056276E+01  0.70589945829E+01  0.16855172561E+02  0.51100000000E-03 0.  1.
        -12    1    3    3    0    0  0.18464145490E+02 -0.18126352195E+02 -0.32135945684E+00  0.25876487096E+02  0.00000000000E+00 0.  1.
</event>
<event>
 7    1  0.6065977E-013  0.5930188E+02  0.7816164E-02  0.1266605E+00
        -11   -1    0    0    0    0  0.00000000000E+00  0.00000000000E+00  0.45593999997E+02  0.45594000000E+02  0.51100000000E-03 0. -1.
         11   -1    0    0    0    0 -0.00000000000E+00 -0.00000000000E+00 -0.45593999997E+02  0.45594000000E+02  0.51100000000E-03 0.  1.
    9900012    2    1    2    0    0 -0.18357379184E+02 -0.11009842716E+02  0.23632912010E+02  0.59301881747E+02  0.49999886415E+02 0.  0.
        -12    1    1    2    0    0  0.18357379184E+02  0.11009842716E+02 -0.23632912010E+02  0.31886118253E+02  0.00000000000E+00 0.  1.
         11    1    3    3    0    0  0.98769169946E+01 -0.10538579810E+02  0.25729563411E+02  0.29506365200E+02  0.51100000000E-03 0. -1.
        -11    1    3    3    0    0 -0.14619833474E+02 -0.37367644415E+01 -0.41378872032E+01  0.15646886274E+02  0.51100000000E-03 0.  1.
         12    1    3    3    0    0 -0.13614462705E+02  0.32655015354E+01  0.20412358026E+01  0.14148630274E+02  0.00000000000E+00 0. -1.
</event>
<event>
 7    1  0.6065977E-013  0.5930191E+02  0.7816164E-02  0.1266605E+00
        -11   -1    0    0    0    0  0.00000000000E+00  0.00000000000E+00  0.45593999997E+02  0.45594000000E+02  0.51100000000E-03 0. -1.
         11   -1    0    0    0    0 -0.00000000000E+00 -0.00000000000E+00 -0.45593999997E+02  0.45594000000E+02  0.51100000000E-03 0.  1.
    9900012    2    1    2    0    0  0.24682023276E+02  0.98503590335E+01 -0.17620756764E+02  0.59301907185E+02  0.49999932808E+02 0.  0.
        -12    1    1    2    0    0 -0.24682023276E+02 -0.98503590335E+01  0.17620756764E+02  0.31886092815E+02  0.00000000000E+00 0.  1.
         11    1    3    3    0    0  0.53856769845E+01  0.30636732299E+01  0.32951972204E+01  0.70178298087E+01  0.51100000000E-03 0. -1.
        -11    1    3    3    0    0 -0.61676732444E+01 -0.13837363551E+02 -0.65746034059E+01  0.16514788327E+02  0.51100000000E-03 0.  1.
        -12    1    3    3    0    0  0.25464019536E+02  0.20624049354E+02 -0.14341350578E+02  0.35769289049E+02  0.00000000000E+00 0.  1.
</event>
<event>
 7    1  0.6065977E-013  0.5930194E+02  0.7816164E-02  0.1266605E+00
        -11   -1    0    0    0    0  0.00000000000E+00  0.00000000000E+00  0.45593999997E+02  0.45594000000E+02  0.51100000000E-03 0. -1.
         11   -1    0    0    0    0 -0.00000000000E+00 -0.00000000000E+00 -0.45593999997E+02  0.45594000000E+02  0.51100000000E-03 0.  1.
    9900012    2    1    2    0    0  0.21626439312E+02 -0.17746517716E+02  0.15299643695E+02  0.59301939322E+02  0.49999991418E+02 0.  0.
        -12    1    1    2    0    0 -0.21626439312E+02  0.17746517716E+02 -0.15299643695E+02  0.31886060678E+02  0.00000000000E+00 0.  1.
         11    1    3    3    0    0  0.13614370472E+02 -0.17599365168E+01  0.14909103374E+02  0.20266470427E+02  0.51100000000E-03 0. -1.
        -11    1    3    3    0    0  0.23485417403E+01 -0.29062196878E+01 -0.16509486945E+02  0.16927047014E+02  0.51100000000E-03 0.  1.
        -12    1    3    3    0    0  0.56635270999E+01 -0.13080361512E+02  0.16900027265E+02  0.22108421881E+02  0.00000000000E+00 0.  1.
</event>
<event>
 7    1  0.6065977E-013  0.5930193E+02  0.7816164E-02  0.1266605E+00
        -11   -1    0    0    0    0  0.00000000000E+00  0.00000000000E+00  0.45593999997E+02  0.45594000000E+02  0.51100000000E-03 0.  1.
         11   -1    0    0    0    0 -0.00000000000E+00 -0.00000000000E+00 -0.45593999997E+02  0.45594000000E+02  0.51100000000E-03 0. -1.
    9900012    2    1    2    0    0 -0.13416953865E+02 -0.13576760685E+02 -0.25541699504E+02  0.59301929448E+02  0.49999973410E+02 0.  0.
        -12    1    1    2    0    0  0.13416953865E+02  0.13576760685E+02  0.25541699504E+02  0.31886070552E+02  0.00000000000E+00 0.  1.
         11    1    3    3    0    0  0.15500412310E+01  0.14098250698E+02 -0.12637995019E+02  0.18996900245E+02  0.51100000000E-03 0. -1.
        -11    1    3    3    0    0 -0.14899862194E+01 -0.77102242205E+01  0.58378222047E+01  0.97850797042E+01  0.51100000000E-03 0.  1.
         12    1    3    3    0    0 -0.13477008877E+02 -0.19964787163E+02 -0.18741526689E+02  0.30519949498E+02  0.00000000000E+00 0. -1.
</event>
<event>
 7    1  0.6065977E-013  0.5930195E+02  0.7816164E-02  0.1266605E+00
        -11   -1    0    0    0    0  0.00000000000E+00  0.00000000000E+00  0.45593999997E+02  0.45594000000E+02  0.51100000000E-03 0.  1.
         11   -1    0    0    0    0 -0.00000000000E+00 -0.00000000000E+00 -0.45593999997E+02  0.45594000000E+02  0.51100000000E-03 0. -1.
    9900012    2    1    2    0    0  0.28576003941E+01  0.18861250126E+02 -0.25550102478E+02  0.59301947047E+02  0.50000005506E+02 0.  0.
        -12    1    1    2    0    0 -0.28576003941E+01 -0.18861250126E+02  0.25550102478E+02  0.31886052953E+02  0.00000000000E+00 0.  1.
         11    1    3    3    0    0 -0.10915495054E+02  0.15310796624E+02  0.50572810043E+01  0.19471636216E+02  0.51100000000E-03 0.  1.
        -11    1    3    3    0    0 -0.30638523496E+01 -0.18992967359E+01 -0.17344148109E+02  0.17714795883E+02  0.51100000000E-03 0. -1.
         12    1    3    3    0    0  0.16836947798E+02  0.54497502380E+01 -0.13263235373E+02  0.22115514947E+02  0.00000000000E+00 0. -1.
</event>
<event>
 7    1  0.6065977E-013  0.5930194E+02  0.7816164E-02  0.1266605E+00
        -11   -1    0    0    0    0  0.00000000000E+00  0.00000000000E+00  0.45593999997E+02  0.45594000000E+02  0.51100000000E-03 0.  1.
         11   -1    0    0    0    0 -0.00000000000E+00 -0.00000000000E+00 -0.45593999997E+02  0.45594000000E+02  0.51100000000E-03 0. -1.
    9900012    2    1    2    0    0  0.14041892401E+02  0.28601645387E+02 -0.12215351163E+01  0.59301937071E+02  0.49999987313E+02 0.  0.
        -12    1    1    2    0    0 -0.14041892401E+02 -0.28601645387E+02  0.12215351163E+01  0.31886062929E+02  0.00000000000E+00 0.  1.
         11    1    3    3    0    0 -0.30221861786E+01  0.64051524455E+01 -0.57664931481E+01  0.91330187033E+01  0.51100000000E-03 0.  1.
        -11    1    3    3    0    0  0.29187596039E+02  0.22826617308E+02 -0.41229401292E+00  0.37055906505E+02  0.51100000000E-03 0. -1.
        -12    1    3    3    0    0 -0.12123517459E+02 -0.63012436651E+00  0.49572520447E+01  0.13113011864E+02  0.00000000000E+00 0.  1.
</event>
<event>
 7    1  0.6065977E-013  0.5930197E+02  0.7816164E-02  0.1266605E+00
        -11   -1    0    0    0    0  0.00000000000E+00  0.00000000000E+00  0.45593999997E+02  0.45594000000E+02  0.51100000000E-03 0. -1.
         11   -1    0    0    0    0 -0.00000000000E+00 -0.00000000000E+00 -0.45593999997E+02  0.45594000000E+02  0.51100000000E-03 0.  1.
    9900012    2    1    2    0    0  0.47454174136E+01 -0.30002415894E+02  0.96982060759E+01  0.59301966271E+02  0.50000040566E+02 0.  0.
        -12    1    1    2    0    0 -0.47454174136E+01  0.30002415894E+02 -0.96982060759E+01  0.31886033729E+02  0.00000000000E+00 0.  1.
         11    1    3    3    0    0  0.32168671109E+01 -0.10492525782E+02  0.16945689721E+02  0.20189049796E+02  0.51100000000E-03 0. -1.
        -11    1    3    3    0    0 -0.42294673978E+01 -0.27922473523E+02 -0.52724088236E+01  0.28728926488E+02  0.51100000000E-03 0.  1.
        -12    1    3    3    0    0  0.57580177006E+01  0.84125834110E+01 -0.19750748213E+01  0.10383989986E+02  0.00000000000E+00 0.  1.
</event>
<event>
 7    1  0.6065977E-013  0.5930195E+02  0.7816164E-02  0.1266605E+00
        -11   -1    0    0    0    0  0.00000000000E+00  0.00000000000E+00  0.45593999997E+02  0.45594000000E+02  0.51100000000E-03 0.  1.
         11   -1    0    0    0    0 -0.00000000000E+00 -0.00000000000E+00 -0.45593999997E+02  0.45594000000E+02  0.51100000000E-03 0. -1.
    9900012    2    1    2    0    0  0.11297366415E+02 -0.29707779778E+02  0.25568847276E+01  0.59301947771E+02  0.50000006826E+02 0.  0.
        -12    1    1    2    0    0 -0.11297366415E+02  0.29707779778E+02 -0.25568847276E+01  0.31886052229E+02  0.00000000000E+00 0.  1.
         11    1    3    3    0    0  0.61100893441E+01 -0.41573227473E+02  0.10121540001E+02  0.43221661312E+02  0.51100000000E-03 0. -1.
        -11    1    3    3    0    0 -0.11508924827E+01  0.29484011327E+01 -0.24558543170E+01  0.40061007768E+01  0.51100000000E-03 0.  1.
         12    1    3    3    0    0  0.63381695535E+01  0.89170465619E+01 -0.51088009561E+01  0.12074185682E+02  0.00000000000E+00 0. -1.
</event>
<event>
 7    1  0.6065977E-013  0.5930190E+02  0.7816164E-02  0.1266605E+00
        -11   -1    0    0    0    0  0.00000000000E+00  0.00000000000E+00  0.45593999997E+02  0.45594000000E+02  0.51100000000E-03 0.  1.
         11   -1    0    0    0    0 -0.00000000000E+00 -0.00000000000E+00 -0.45593999997E+02  0.45594000000E+02  0.51100000000E-03 0. -1.
    9900012    2    1    2    0    0 -0.34798309026E+01 -0.30198241659E+02 -0.96270526700E+01  0.59301903257E+02  0.49999925644E+02 0.  0.
        -12    1    1    2    0    0  0.34798309026E+01  0.30198241659E+02  0.96270526700E+01  0.31886096743E+02  0.00000000000E+00 0.  1.
         11    1    3    3    0    0  0.69773622124E+01 -0.20387572607E+02 -0.20728582877E+02  0.29900014191E+02  0.51100000000E-03 0. -1.
        -11    1    3    3    0    0 -0.24338258579E+01 -0.15856417004E+02  0.10823375027E+02  0.19351871118E+02  0.51100000000E-03 0.  1.
        -12    1    3    3    0    0 -0.80233672571E+01  0.60457479533E+01  0.27815518055E+00  0.10050017948E+02  0.00000000000E+00 0.  1.
</event>
<event>
 7    1  0.6065977E-013  0.5930195E+02  0.7816164E-02  0.1266605E+00
        -11   -1    0    0    0    0  0.00000000000E+00  0.00000000000E+00  0.45593999997E+02  0.45594000000E+02  0.51100000000E-03 0.  1.
         11   -1    0    0    0    0 -0.00000000000E+00 -0.00000000000E+00 -0.45593999997E+02  0.45594000000E+02  0.51100000000E-03 0. -1.
    9900012    2    1    2    0    0  0.30163888592E+01  0.33869356379E+01 -0.31561849969E+02  0.59301948062E+02  0.50000007357E+02 0.  0.
        -12    1    1    2    0    0 -0.30163888592E+01 -0.33869356379E+01  0.31561849969E+02  0.31886051938E+02  0.00000000000E+00 0.  1.
         11    1    3    3    0    0  0.63005201458E+01 -0.65426154395E+01 -0.18664882668E+02  0.20757654400E+02  0.51100000000E-03 0. -1.
        -11    1    3    3    0    0 -0.50560862426E+01  0.14821933652E+02  0.75927999946E+01  0.17404147129E+02  0.51100000000E-03 0.  1.
        -12    1    3    3    0    0  0.17719549560E+01 -0.48923825745E+01 -0.20489767295E+02  0.21140146533E+02  0.00000000000E+00 0.  1.
</event>
<event>
 7    1  0.6065977E-013  0.5930184E+02  0.7816164E-02  0.1266605E+00
        -11   -1    0    0    0    0  0.00000000000E+00  0.00000000000E+00  0.45593999997E+02  0.45594000000E+02  0.51100000000E-03 0.  1.
         11   -1    0    0    0    0 -0.00000000000E+00 -0.00000000000E+00 -0.45593999997E+02  0.45594000000E+02  0.51100000000E-03 0. -1.
    9900012    2    1    2    0    0  0.18768854337E+02 -0.20568471449E+02  0.15536892393E+02  0.59301844131E+02  0.49999817812E+02 0.  0.
        -12    1    1    2    0    0 -0.18768854337E+02  0.20568471449E+02 -0.15536892393E+02  0.31886155869E+02  0.00000000000E+00 0.  1.
         11    1    3    3    0    0 -0.39151285590E+01  0.94136025298E+01  0.18620081086E+02  0.21228555394E+02  0.51100000000E-03 0.  1.
        -11    1    3    3    0    0  0.12635295291E+02 -0.20653953436E+02 -0.26315702847E+01  0.24354910019E+02  0.51100000000E-03 0. -1.
        -12    1    3    3    0    0  0.10048687605E+02 -0.93281205436E+01 -0.45161840834E+00  0.13718378718E+02  0.00000000000E+00 0.  1.
</event>
<event>
 7    1  0.6065977E-013  0.5930195E+02  0.7816164E-02  0.1266605E+00
        -11   -1    0    0    0    0  0.00000000000E+00  0.00000000000E+00  0.45593999997E+02  0.45594000000E+02  0.51100000000E-03 0.  1.
         11   -1    0    0    0    0 -0.00000000000E+00 -0.00000000000E+00 -0.45593999997E+02  0.45594000000E+02  0.51100000000E-03 0. -1.
    9900012    2    1    2    0    0  0.19344995020E+02  0.17157057854E+02 -0.18658154150E+02  0.59301950028E+02  0.50000010942E+02 0.  0.
        -12    1    1    2    0    0 -0.19344995020E+02 -0.17157057854E+02  0.18658154150E+02  0.31886049972E+02  0.00000000000E+00 0.  1.
         11    1    3    3    0    0  0.27608076001E+02  0.27256697197E+02 -0.20683854612E+02  0.43965386890E+02  0.51100000000E-03 0. -1.
        -11    1    3    3    0    0 -0.82827907525E+01 -0.52566282323E+01 -0.59844567933E+00  0.98282704742E+01  0.51100000000E-03 0.  1.
        -12    1    3    3    0    0  0.19709772150E-01 -0.48430111106E+01  0.26241461409E+01  0.55082926630E+01  0.00000000000E+00 0.  1.
</event>
<event>
 7    1  0.6065977E-013  0.5930195E+02  0.7816164E-02  0.1266605E+00
        -11   -1    0    0    0    0  0.00000000000E+00  0.00000000000E+00  0.45593999997E+02  0.45594000000E+02  0.51100000000E-03 0.  1.
         11   -1    0    0    0    0 -0.00000000000E+00 -0.00000000000E+00 -0.45593999997E+02  0.45594000000E+02  0.51100000000E-03 0. -1.
    9900012    2    1    2    0    0  0.16797192098E+01 -0.26469438064E+02 -0.17699375519E+02  0.59301945026E+02  0.50000001821E+02 0.  0.
        -12    1    1    2    0    0 -0.16797192098E+01  0.26469438064E+02  0.17699375519E+02  0.31886054974E+02  0.00000000000E+00 0.  1.
         11    1    3    3    0    0 -0.16681130354E+02 -0.13586578579E+02 -0.19782409752E+02  0.29226682384E+02  0.51100000000E-03 0. -1.
        -11    1    3    3    0    0  0.16390134448E+02 -0.12723663162E+02  0.91937573012E+01  0.22694785416E+02  0.51100000000E-03 0.  1.
        -12    1    3    3    0    0  0.19707151154E+01 -0.15919632222E+00 -0.71107230684E+01  0.73804772265E+01  0.00000000000E+00 0.  1.
</event>
<event>
 7    1  0.6065977E-013  0.5930195E+02  0.7816164E-02  0.1266605E+00
        -11   -1    0    0    0    0  0.00000000000E+00  0.00000000000E+00  0.45593999997E+02  0.45594000000E+02  0.51100000000E-03 0. -1.
         11   -1    0    0    0    0 -0.00000000000E+00 -0.00000000000E+00 -0.45593999997E+02  0.45594000000E+02  0.51100000000E-03 0.  1.
    9900012    2    1    2    0    0  0.31071653628E+02  0.64422362833E+01 -0.31257650563E+01  0.59301945451E+02  0.50000002596E+02 0.  0.
        -12    1    1    2    0    0 -0.31071653628E+02 -0.64422362833E+01  0.31257650563E+01  0.31886054549E+02  0.00000000000E+00 0.  1.
         11    1    3    3    0    0  0.17779080174E+02 -0.19266016915E+02  0.58816813714E+01  0.26867625047E+02  0.51100000000E-03 0. -1.
        -11    1    3    3    0    0 -0.19407451489E+01  0.11803269976E+01 -0.90969546958E+00  0.24468775333E+01  0.51100000000E-03 0.  1.
         12    1    3    3    0    0  0.15233318603E+02  0.24527926201E+02 -0.80977509581E+01  0.29987442871E+02  0.00000000000E+00 0. -1.
</event>
<event>
 7    1  0.6065977E-013  0.5930195E+02  0.7816164E-02  0.1266605E+00
        -11   -1    0    0    0    0  0.00000000000E+00  0.00000000000E+00  0.45593999997E+02  0.45594000000E+02  0.51100000000E-03 0. -1.
         11   -1    0    0    0    0 -0.00000000000E+00 -0.00000000000E+00 -0.45593999997E+02  0.45594000000E+02  0.51100000000E-03 0.  1.
    9900012    2    1    2    0    0 -0.28769004903E+02  0.99472146686E+01  0.94930299950E+01  0.59301947544E+02  0.50000006412E+02 0.  0.
        -12    1    1    2    0    0  0.28769004903E+02 -0.99472146686E+01 -0.94930299950E+01  0.31886052456E+02  0.00000000000E+00 0.  1.
         11    1    3    3    0    0 -0.15411127907E+02 -0.11993142490E+02  0.16463919861E+02  0.25542102255E+02  0.51100000000E-03 0. -1.
        -11    1    3    3    0    0 -0.16525072354E+02  0.12334806541E+02 -0.10380500669E+02  0.23086365307E+02  0.51100000000E-03 0.  1.
         12    1    3    3    0    0  0.31671953574E+01  0.96055506169E+01  0.34096108036E+01  0.10673479982E+02  0.00000000000E+00 0. -1.
</event>
<event>
 7    1  0.6065977E-013  0.5930194E+02  0.7816164E-02  0.1266605E+00
        -11   -1    0    0    0    0  0.00000000000E+00  0.00000000000E+00  0.45593999997E+02  0.45594000000E+02  0.51100000000E-03 0. -1.
         11   -1    0    0    0    0 -0.00000000000E+00 -0.00000000000E+00 -0.45593999997E+02  0.45594000000E+02  0.51100000000E-03 0.  1.
    9900012    2    1    2    0    0 -0.12922076676E+02 -0.83442135212E+01  0.27930534213E+02  0.59301941819E+02  0.49999995971E+02 0.  0.
        -12    1    1    2    0    0  0.12922076676E+02  0.83442135212E+01 -0.27930534213E+02  0.31886058181E+02  0.00000000000E+00 0.  1.
         11    1    3    3    0    0  0.99856341860E+01  0.35837801879E+01  0.12574686655E+02  0.16452328567E+02  0.51100000000E-03 0. -1.
        -11    1    3    3    0    0 -0.27251960652E+02 -0.58291459444E+00  0.13949138490E+02  0.30620052477E+02  0.51100000000E-03 0.  1.
        -12    1    3    3    0    0  0.43442497900E+01 -0.11345079115E+02  0.14067090683E+01  0.12229560775E+02  0.00000000000E+00 0.  1.
</event>
<event>
 7    1  0.6065977E-013  0.5930195E+02  0.7816164E-02  0.1266605E+00
        -11   -1    0    0    0    0  0.00000000000E+00  0.00000000000E+00  0.45593999997E+02  0.45594000000E+02  0.51100000000E-03 0.  1.
         11   -1    0    0    0    0 -0.00000000000E+00 -0.00000000000E+00 -0.45593999997E+02  0.45594000000E+02  0.51100000000E-03 0. -1.
    9900012    2    1    2    0    0  0.18419043265E+01  0.21146371737E+02 -0.23794082685E+02  0.59301952581E+02  0.50000015599E+02 0.  0.
        -12    1    1    2    0    0 -0.18419043265E+01 -0.21146371737E+02  0.23794082685E+02  0.31886047419E+02  0.00000000000E+00 0.  1.
         11    1    3    3    0    0  0.62570889008E+01  0.38875014402E+01  0.83735904364E+01  0.11152616106E+02  0.51100000000E-03 0. -1.
        -11    1    3    3    0    0 -0.17445620294E+02  0.13102209485E+02 -0.22889578177E+02  0.31621991560E+02  0.51100000000E-03 0.  1.
         12    1    3    3    0    0  0.13030435719E+02  0.41566608116E+01 -0.92780949444E+01  0.16527344915E+02  0.00000000000E+00 0. -1.
</event>
<event>
 7    1  0.6065977E-013  0.5930194E+02  0.7816164E-02  0.1266605E+00
        -11   -1    0    0    0    0  0.00000000000E+00  0.00000000000E+00  0.45593999997E+02  0.45594000000E+02  0.51100000000E-03 0. -1.
         11   -1    0    0    0    0 -0.00000000000E+00 -0.00000000000E+00 -0.45593999997E+02  0.45594000000E+02  0.51100000000E-03 0.  1.
    9900012    2    1    2    0    0 -0.11670805458E+02 -0.29162320403E+02  0.54837962677E+01  0.59301942658E+02  0.49999997502E+02 0.  0.
        -12    1    1    2    0    0  0.11670805458E+02  0.29162320403E+02 -0.54837962677E+01  0.31886057342E+02  0.00000000000E+00 0.  1.
         11    1    3    3    0    0 -0.78656148232E+01  0.43827139020E+01 -0.95229906209E+01  0.13105854734E+02  0.51100000000E-03 0. -1.
        -11    1    3    3    0    0 -0.15604833023E+02 -0.23350472984E+02  0.91233923857E+01  0.29529505433E+02  0.51100000000E-03 0.  1.
        -12    1    3    3    0    0  0.11799642388E+02 -0.10194561321E+02  0.58833945029E+01  0.16666582490E+02  0.00000000000E+00 0.  1.
</event>
<event>
 7    1  0.6065977E-013  0.5930198E+02  0.7816164E-02  0.1266605E+00
        -11   -1    0    0    0    0  0.00000000000E+00  0.00000000000E+00  0.45593999997E+02  0.45594000000E+02  0.51100000000E-03 0.  1.
         11   -1    0    0    0    0 -0.00000000000E+00 -0.00000000000E+00 -0.45593999997E+02  0.45594000000E+02  0.51100000000E-03 0. -1.
    9900012    2    1    2    0    0  0.26710268962E+02  0.12196806018E+02 -0.12430503677E+02  0.59301984778E+02  0.50000074319E+02 0.  0.
        -12    1    1    2    0    0 -0.26710268962E+02 -0.12196806018E+02  0.12430503677E+02  0.31886015222E+02  0.00000000000E+00 0.  1.
         11    1    3    3    0    0  0.11607384487E+02  0.20561256912E+02 -0.16923406596E+02  0.29049928597E+02  0.51100000000E-03 0. -1.
        -11    1    3    3    0    0  0.18901032881E+02 -0.61175068131E+01 -0.43789419399E+01  0.20343256041E+02  0.51100000000E-03 0.  1.
         12    1    3    3    0    0 -0.37981484052E+01 -0.22469440809E+01  0.88718448593E+01  0.99088001402E+01  0.00000000000E+00 0. -1.
</event>
<event>
 7    1  0.6065977E-013  0.5930194E+02  0.7816164E-02  0.1266605E+00
        -11   -1    0    0    0    0  0.00000000000E+00  0.00000000000E+00  0.45593999997E+02  0.45594000000E+02  0.51100000000E-03 0. -1.
         11   -1    0    0    0    0 -0.00000000000E+00 -0.00000000000E+00 -0.45593999997E+02  0.45594000000E+02  0.51100000000E-03 0.  1.
    9900012    2    1    2    0    0  0.27874879919E+02  0.15008351499E+02  0.38027692294E+01  0.59301943501E+02  0.49999999040E+02 0.  0.
        -12    1    1    2    0    0 -0.27874879919E+02 -0.15008351499E+02 -0.38027692294E+01  0.31886056499E+02  0.00000000000E+00 0.  1.
         11    1    3    3    0    0  0.39497077526E+01 -0.11474940530E+02  0.44800932544E+01  0.12936216114E+02  0.51100000000E-03 0.  1.
        -11    1    3    3    0    0  0.30567521007E+02  0.25019587740E+02 -0.13973645737E+01  0.39526013450E+02  0.51100000000E-03 0. -1.
        -12    1    3    3    0    0 -0.66423488405E+01  0.14637042889E+01  0.72004054860E+00  0.68397139382E+01  0.00000000000E+00 0.  1.
</event>
<event>
 7    1  0.6065977E-013  0.5930195E+02  0.7816164E-02  0.1266605E+00
        -11   -1    0    0    0    0  0.00000000000E+00  0.00000000000E+00  0.45593999997E+02  0.45594000000E+02  0.51100000000E-03 0.  1.
         11   -1    0    0    0    0 -0.00000000000E+00 -0.00000000000E+00 -0.45593999997E+02  0.45594000000E+02  0.51100000000E-03 0. -1.
    9900012    2    1    2    0    0 -0.14389872848E+02 -0.26967510947E+01 -0.28326302984E+02  0.59301947441E+02  0.50000006225E+02 0.  0.
        -12    1    1    2    0    0  0.14389872848E+02  0.26967510947E+01  0.28326302984E+02  0.31886052559E+02  0.00000000000E+00 0.  1.
         11    1    3    3    0    0  0.23752947272E+01  0.17560945996E+02 -0.19448283286E+02  0.26310921161E+02  0.51100000000E-03 0. -1.
        -11    1    3    3    0    0 -0.41326892337E+01 -0.12631322843E+02  0.34860085951E+01  0.13739785052E+02  0.51100000000E-03 0.  1.
         12    1    3    3    0    0 -0.12632478342E+02 -0.76263742472E+01 -0.12364028293E+02  0.19251241229E+02  0.00000000000E+00 0. -1.
</event>
<event>
 7    1  0.6065977E-013  0.5930195E+02  0.7816164E-02  0.1266605E+00
        -11   -1    0    0    0    0  0.00000000000E+00  0.00000000000E+00  0.45593999997E+02  0.45594000000E+02  0.51100000000E-03 0.  1.
         11   -1    0    0    0    0 -0.00000000000E+00 -0.00000000000E+00 -0.45593999997E+02  0.45594000000E+02  0.51100000000E-03 0. -1.
    9900012    2    1    2    0    0 -0.13278406977E+02  0.18621961537E+02 -0.22217706591E+02  0.59301952432E+02  0.50000015328E+02 0.  0.
        -12    1    1    2    0    0  0.13278406977E+02 -0.18621961537E+02  0.22217706591E+02  0.31886047568E+02  0.00000000000E+00 0.  1.
         11    1    3    3    0    0  0.11222172961E+02  0.78834842946E+01 -0.11564730600E+02  0.17939606593E+02  0.51100000000E-03 0. -1.
        -11    1    3    3    0    0 -0.21489988028E+02  0.81923843704E+01 -0.20466372601E+02  0.30786476817E+02  0.51100000000E-03 0.  1.
        -12    1    3    3    0    0 -0.30105919108E+01  0.25460928718E+01  0.98133966096E+01  0.10575869023E+02  0.00000000000E+00 0.  1.
</event>
<event>
 7    1  0.6065977E-013  0.5930195E+02  0.7816164E-02  0.1266605E+00
        -11   -1    0    0    0    0  0.00000000000E+00  0.00000000000E+00  0.45593999997E+02  0.45594000000E+02  0.51100000000E-03 0. -1.
         11   -1    0    0    0    0 -0.00000000000E+00 -0.00000000000E+00 -0.45593999997E+02  0.45594000000E+02  0.51100000000E-03 0.  1.
    9900012    2    1    2    0    0  0.81247626391E+01  0.30146450582E+02 -0.64729932049E+01  0.59301954594E+02  0.50000019270E+02 0.  0.
        -12    1    1    2    0    0 -0.81247626391E+01 -0.30146450582E+02  0.64729932049E+01  0.31886045406E+02  0.00000000000E+00 0.  1.
         11    1    3    3    0    0 -0.91117726744E+01 -0.95385844145E+00  0.86378251195E+01  0.12591515804E+02  0.51100000000E-03 0. -1.
        -11    1    3    3    0    0  0.14639869359E+02  0.21716083066E+02 -0.22467746766E+02  0.34506719398E+02  0.51100000000E-03 0.  1.
         12    1    3    3    0    0  0.25966659540E+01  0.93842259574E+01  0.73569284414E+01  0.12203719392E+02  0.00000000000E+00 0. -1.
</event>
<event>
 7    1  0.6065977E-013  0.5930181E+02  0.7816164E-02  0.1266605E+00
        -11   -1    0    0    0    0  0.00000000000E+00  0.00000000000E+00  0.45593999997E+02  0.45594000000E+02  0.51100000000E-03 0.  1.
         11   -1    0    0    0    0 -0.00000000000E+00 -0.00000000000E+00 -0.45593999997E+02  0.45594000000E+02  0.51100000000E-03 0. -1.
    9900012    2    1    2    0    0  0.23980785339E+02 -0.17884297449E+02  0.11036442961E+02  0.59301808099E+02  0.49999752098E+02 0.  0.
        -12    1    1    2    0    0 -0.23980785339E+02  0.17884297449E+02 -0.11036442961E+02  0.31886191901E+02  0.00000000000E+00 0.  1.
         11    1    3    3    0    0  0.10485887146E+02 -0.49225193616E+00  0.57668774462E+01  0.11977187356E+02  0.51100000000E-03 0. -1.
        -11    1    3    3    0    0  0.78779625592E+01 -0.15315275417E+02 -0.17038547362E+02  0.24226680574E+02  0.51100000000E-03 0.  1.
        -12    1    3    3    0    0  0.56169356337E+01 -0.20767700964E+01  0.22308112876E+02  0.23097940169E+02  0.00000000000E+00 0.  1.
</event>
<event>
 7    1  0.6065977E-013  0.5930194E+02  0.7816164E-02  0.1266605E+00
        -11   -1    0    0    0    0  0.00000000000E+00  0.00000000000E+00  0.45593999997E+02  0.45594000000E+02  0.51100000000E-03 0. -1.
         11   -1    0    0    0    0 -0.00000000000E+00 -0.00000000000E+00 -0.45593999997E+02  0.45594000000E+02  0.51100000000E-03 0.  1.
    9900012    2    1    2    0    0 -0.17745099205E+01 -0.31431146718E+02  0.50651014286E+01  0.59301935302E+02  0.49999984086E+02 0.  0.
        -12    1    1    2    0    0  0.17745099205E+01  0.31431146718E+02 -0.50651014286E+01  0.31886064698E+02  0.00000000000E+00 0.  1.
         11    1    3    3    0    0  0.47646555902E+01 -0.32421735245E+02 -0.76463709266E+01  0.33650228050E+02  0.51100000000E-03 0. -1.
        -11    1    3    3    0    0 -0.10990238436E+02 -0.42249983494E+01  0.14389321274E+02  0.18592700689E+02  0.51100000000E-03 0.  1.
         12    1    3    3    0    0  0.44510729253E+01  0.52155868768E+01 -0.16778489185E+01  0.70590065625E+01  0.00000000000E+00 0. -1.
</event>
<event>
 7    1  0.6065977E-013  0.5930194E+02  0.7816164E-02  0.1266605E+00
        -11   -1    0    0    0    0  0.00000000000E+00  0.00000000000E+00  0.45593999997E+02  0.45594000000E+02  0.51100000000E-03 0.  1.
         11   -1    0    0    0    0 -0.00000000000E+00 -0.00000000000E+00 -0.45593999997E+02  0.45594000000E+02  0.51100000000E-03 0. -1.
    9900012    2    1    2    0    0 -0.12744215379E+02 -0.36131996724E+01 -0.29004316565E+02  0.59301943221E+02  0.49999998529E+02 0.  0.
        -12    1    1    2    0    0  0.12744215379E+02  0.36131996724E+01  0.29004316565E+02  0.31886056779E+02  0.00000000000E+00 0.  1.
         11    1    3    3    0    0 -0.77170422284E+00 -0.13037555452E+02 -0.30822769875E+01  0.13419158366E+02  0.51100000000E-03 0. -1.
        -11    1    3    3    0    0 -0.16670864943E+00  0.85917399671E+01 -0.31606087014E+02  0.32753481097E+02  0.51100000000E-03 0.  1.
        -12    1    3    3    0    0 -0.11805802506E+02  0.83261581216E+00  0.56840474356E+01  0.13129303758E+02  0.00000000000E+00 0.  1.
</event>
<event>
 7    1  0.6065977E-013  0.5930192E+02  0.7816164E-02  0.1266605E+00
        -11   -1    0    0    0    0  0.00000000000E+00  0.00000000000E+00  0.45593999997E+02  0.45594000000E+02  0.51100000000E-03 0. -1.
         11   -1    0    0    0    0 -0.00000000000E+00 -0.00000000000E+00 -0.45593999997E+02  0.45594000000E+02  0.51100000000E-03 0.  1.
    9900012    2    1    2    0    0 -0.24968656562E+02 -0.96650958276E+01  0.17316871428E+02  0.59301922726E+02  0.49999961150E+02 0.  0.
        -12    1    1    2    0    0  0.24968656562E+02  0.96650958276E+01 -0.17316871428E+02  0.31886077274E+02  0.00000000000E+00 0.  1.
         11    1    3    3    0    0 -0.10205987131E+02  0.38759398288E+01  0.12860105151E+02  0.16869125278E+02  0.51100000000E-03 0. -1.
        -11    1    3    3    0    0 -0.87392774422E+01 -0.80123672085E+01 -0.16281509301E+02  0.20141016456E+02  0.51100000000E-03 0.  1.
        -12    1    3    3    0    0 -0.60233919891E+01 -0.55286684479E+01  0.20738275578E+02  0.22291780992E+02  0.00000000000E+00 0.  1.
</event>
<event>
 7    1  0.6065977E-013  0.5930196E+02  0.7816164E-02  0.1266605E+00
        -11   -1    0    0    0    0  0.00000000000E+00  0.00000000000E+00  0.45593999997E+02  0.45594000000E+02  0.51100000000E-03 0.  1.
         11   -1    0    0    0    0 -0.00000000000E+00 -0.00000000000E+00 -0.45593999997E+02  0.45594000000E+02  0.51100000000E-03 0. -1.
    9900012    2    1    2    0    0  0.27245309136E+02  0.15045323175E+02 -0.69318773300E+01  0.59301960066E+02  0.50000029250E+02 0.  0.
        -12    1    1    2    0    0 -0.27245309136E+02 -0.15045323175E+02  0.69318773300E+01  0.31886039934E+02  0.00000000000E+00 0.  1.
         11    1    3    3    0    0  0.12004511994E+02  0.18614614273E+02 -0.42647439394E+01  0.22556600228E+02  0.51100000000E-03 0. -1.
        -11    1    3    3    0    0  0.20848498244E+00 -0.16036662969E+02 -0.56191352537E+01  0.16993902037E+02  0.51100000000E-03 0.  1.
        -12    1    3    3    0    0  0.15032312160E+02  0.12467371872E+02  0.29520018631E+01  0.19751457801E+02  0.00000000000E+00 0.  1.
</event>
<event>
 7    1  0.6065977E-013  0.5930194E+02  0.7816164E-02  0.1266605E+00
        -11   -1    0    0    0    0  0.00000000000E+00  0.00000000000E+00  0.45593999997E+02  0.45594000000E+02  0.51100000000E-03 0.  1.
         11   -1    0    0    0    0 -0.00000000000E+00 -0.00000000000E+00 -0.45593999997E+02  0.45594000000E+02  0.51100000000E-03 0. -1.
    9900012    2    1    2    0    0  0.13500007491E+02  0.27747587959E+02 -0.80337897441E+01  0.59301943212E+02  0.49999998512E+02 0.  0.
        -12    1    1    2    0    0 -0.13500007491E+02 -0.27747587959E+02  0.80337897441E+01  0.31886056788E+02  0.00000000000E+00 0.  1.
         11    1    3    3    0    0 -0.18230683453E+01  0.14859456930E+01  0.16279018400E+01  0.28603631685E+01  0.51100000000E-03 0. -1.
        -11    1    3    3    0    0  0.28693922501E+01  0.24263361983E+02 -0.26080706201E+02  0.35737198866E+02  0.51100000000E-03 0.  1.
        -12    1    3    3    0    0  0.12453683586E+02  0.19982802838E+01  0.16419014617E+02  0.20704381178E+02  0.00000000000E+00 0.  1.
</event>
<event>
 7    1  0.6065977E-013  0.5930194E+02  0.7816164E-02  0.1266605E+00
        -11   -1    0    0    0    0  0.00000000000E+00  0.00000000000E+00  0.45593999997E+02  0.45594000000E+02  0.51100000000E-03 0. -1.
         11   -1    0    0    0    0 -0.00000000000E+00 -0.00000000000E+00 -0.45593999997E+02  0.45594000000E+02  0.51100000000E-03 0.  1.
    9900012    2    1    2    0    0 -0.55143094492E+01  0.19484564489E+02  0.24630569299E+02  0.59301940255E+02  0.49999993120E+02 0.  0.
        -12    1    1    2    0    0  0.55143094492E+01 -0.19484564489E+02 -0.24630569299E+02  0.31886059745E+02  0.00000000000E+00 0.  1.
         11    1    3    3    0    0  0.17352885832E+02  0.16676166215E+02  0.23307452605E+02  0.33503052302E+02  0.51100000000E-03 0. -1.
        -11    1    3    3    0    0 -0.18982790465E+02 -0.23104258369E+01  0.24360561353E+01  0.19277416091E+02  0.51100000000E-03 0.  1.
        -12    1    3    3    0    0 -0.38844048165E+01  0.51188241106E+01 -0.11129394411E+01  0.65214718625E+01  0.00000000000E+00 0.  1.
</event>
<event>
 7    1  0.6065977E-013  0.5930195E+02  0.7816164E-02  0.1266605E+00
        -11   -1    0    0    0    0  0.00000000000E+00  0.00000000000E+00  0.45593999997E+02  0.45594000000E+02  0.51100000000E-03 0. -1.
         11   -1    0    0    0    0 -0.00000000000E+00 -0.00000000000E+00 -0.45593999997E+02  0.45594000000E+02  0.51100000000E-03 0.  1.
    9900012    2    1    2    0    0  0.17639975800E+02 -0.15248408835E+02  0.21749424315E+02  0.59301950131E+02  0.50000011131E+02 0.  0.
        -12    1    1    2    0    0 -0.17639975800E+02  0.15248408835E+02 -0.21749424315E+02  0.31886049869E+02  0.00000000000E+00 0.  1.
         11    1    3    3    0    0  0.18596478145E+02 -0.15839218826E+02  0.30348130830E+02  0.38957911874E+02  0.51100000000E-03 0. -1.
        -11    1    3    3    0    0  0.87103500859E+01 -0.35868204955E+00 -0.43352251699E+01  0.97361711656E+01  0.51100000000E-03 0.  1.
         12    1    3    3    0    0 -0.96668524304E+01  0.94949204129E+00 -0.42634813456E+01  0.10607867092E+02  0.00000000000E+00 0. -1.
</event>
<event>
 7    1  0.6065977E-013  0.5930195E+02  0.7816164E-02  0.1266605E+00
        -11   -1    0    0    0    0  0.00000000000E+00  0.00000000000E+00  0.45593999997E+02  0.45594000000E+02  0.51100000000E-03 0.  1.
         11   -1    0    0    0    0 -0.00000000000E+00 -0.00000000000E+00 -0.45593999997E+02  0.45594000000E+02  0.51100000000E-03 0. -1.
    9900012    2    1    2    0    0 -0.28022073291E+02 -0.12431519302E+02 -0.87716073354E+01  0.59301947266E+02  0.50000005907E+02 0.  0.
        -12    1    1    2    0    0  0.28022073291E+02  0.12431519302E+02  0.87716073354E+01  0.31886052734E+02  0.00000000000E+00 0.  1.
         11    1    3    3    0    0 -0.15187078123E+02 -0.20140321515E+01  0.30142140081E+01  0.15613748870E+02  0.51100000000E-03 0. -1.
        -11    1    3    3    0    0  0.78336882456E+01  0.47969207054E+01  0.72766697549E+01  0.11718662158E+02  0.51100000000E-03 0.  1.
        -12    1    3    3    0    0 -0.20668683414E+02 -0.15214407856E+02 -0.19062491098E+02  0.31969536239E+02  0.00000000000E+00 0.  1.
</event>
<event>
 7    1  0.6065977E-013  0.5930196E+02  0.7816164E-02  0.1266605E+00
        -11   -1    0    0    0    0  0.00000000000E+00  0.00000000000E+00  0.45593999997E+02  0.45594000000E+02  0.51100000000E-03 0. -1.
         11   -1    0    0    0    0 -0.00000000000E+00 -0.00000000000E+00 -0.45593999997E+02  0.45594000000E+02  0.51100000000E-03 0.  1.
    9900012    2    1    2    0    0 -0.10512705970E+02 -0.30079614146E+02 -0.11912802096E+01  0.59301963518E+02  0.50000035546E+02 0.  0.
        -12    1    1    2    0    0  0.10512705970E+02  0.30079614146E+02  0.11912802096E+01  0.31886036482E+02  0.00000000000E+00 0.  1.
         11    1    3    3    0    0 -0.18790954279E+02 -0.55394758012E+01  0.71918218046E+01  0.20868829770E+02  0.51100000000E-03 0. -1.
        -11    1    3    3    0    0  0.12760717509E+02 -0.63593040981E+01  0.53324829644E+01  0.15222090355E+02  0.51100000000E-03 0.  1.
        -12    1    3    3    0    0 -0.44824692002E+01 -0.18180834247E+02 -0.13715584979E+02  0.23211043392E+02  0.00000000000E+00 0.  1.
</event>
<event>
 7    1  0.6065977E-013  0.5930195E+02  0.7816164E-02  0.1266605E+00
        -11   -1    0    0    0    0  0.00000000000E+00  0.00000000000E+00  0.45593999997E+02  0.45594000000E+02  0.51100000000E-03 0.  1.
         11   -1    0    0    0    0 -0.00000000000E+00 -0.00000000000E+00 -0.45593999997E+02  0.45594000000E+02  0.51100000000E-03 0. -1.
    9900012    2    1    2    0    0  0.14289915382E+02  0.16199837655E+02 -0.23453864745E+02  0.59301949866E+02  0.50000010647E+02 0.  0.
        -12    1    1    2    0    0 -0.14289915382E+02 -0.16199837655E+02  0.23453864745E+02  0.31886050134E+02  0.00000000000E+00 0.  1.
         11    1    3    3    0    0 -0.52093895499E+01 -0.30029153077E+01 -0.57094515826E+01  0.82917475519E+01  0.51100000000E-03 0. -1.
        -11    1    3    3    0    0  0.31409617795E+02  0.11311895905E+02 -0.10535654746E+02  0.35007472062E+02  0.51100000000E-03 0.  1.
        -12    1    3    3    0    0 -0.11910312863E+02  0.78908570580E+01 -0.72087584170E+01  0.16002730252E+02  0.00000000000E+00 0.  1.
</event>
<event>
 7    1  0.6065977E-013  0.5930193E+02  0.7816164E-02  0.1266605E+00
        -11   -1    0    0    0    0  0.00000000000E+00  0.00000000000E+00  0.45593999997E+02  0.45594000000E+02  0.51100000000E-03 0.  1.
         11   -1    0    0    0    0 -0.00000000000E+00 -0.00000000000E+00 -0.45593999997E+02  0.45594000000E+02  0.51100000000E-03 0. -1.
    9900012    2    1    2    0    0 -0.46128088032E+01  0.26776570552E+02 -0.16687089369E+02  0.59301926438E+02  0.49999967920E+02 0.  0.
        -12    1    1    2    0    0  0.46128088032E+01 -0.26776570552E+02  0.16687089369E+02  0.31886073562E+02  0.00000000000E+00 0.  1.
         11    1    3    3    0    0  0.37709179201E+00 -0.42269963615E+01 -0.92288407391E+01  0.10157814633E+02  0.51100000000E-03 0. -1.
        -11    1    3    3    0    0 -0.11400164577E+01  0.21500021156E+02  0.13778416596E+02  0.25561598373E+02  0.51100000000E-03 0.  1.
        -12    1    3    3    0    0 -0.38498841375E+01  0.95035457579E+01 -0.21236665227E+02  0.23582513432E+02  0.00000000000E+00 0.  1.
</event>
<event>
 7    1  0.6065977E-013  0.5930194E+02  0.7816164E-02  0.1266605E+00
        -11   -1    0    0    0    0  0.00000000000E+00  0.00000000000E+00  0.45593999997E+02  0.45594000000E+02  0.51100000000E-03 0.  1.
         11   -1    0    0    0    0 -0.00000000000E+00 -0.00000000000E+00 -0.45593999997E+02  0.45594000000E+02  0.51100000000E-03 0. -1.
    9900012    2    1    2    0    0 -0.28035353186E+02 -0.15148765217E+02  0.11199974009E+01  0.59301944897E+02  0.50000001586E+02 0.  0.
        -12    1    1    2    0    0  0.28035353186E+02  0.15148765217E+02 -0.11199974009E+01  0.31886055103E+02  0.00000000000E+00 0.  1.
         11    1    3    3    0    0 -0.85945573138E+01 -0.57565107540E+01 -0.10999594551E+02  0.15099500390E+02  0.51100000000E-03 0. -1.
        -11    1    3    3    0    0 -0.27843318658E+02 -0.14988982334E+02  0.12731052040E+02  0.34088116281E+02  0.51100000000E-03 0.  1.
        -12    1    3    3    0    0  0.84025227857E+01  0.55967278711E+01 -0.61146008816E+00  0.10114328226E+02  0.00000000000E+00 0.  1.
</event>
<event>
 7    1  0.6065977E-013  0.5930194E+02  0.7816164E-02  0.1266605E+00
        -11   -1    0    0    0    0  0.00000000000E+00  0.00000000000E+00  0.45593999997E+02  0.45594000000E+02  0.51100000000E-03 0. -1.
         11   -1    0    0    0    0 -0.00000000000E+00 -0.00000000000E+00 -0.45593999997E+02  0.45594000000E+02  0.51100000000E-03 0.  1.
    9900012    2    1    2    0    0  0.14534508114E+02 -0.17326487070E+02  0.22478028180E+02  0.59301939861E+02  0.49999992401E+02 0.  0.
        -12    1    1    2    0    0 -0.14534508114E+02  0.17326487070E+02 -0.22478028180E+02  0.31886060139E+02  0.00000000000E+00 0.  1.
         11    1    3    3    0    0 -0.58922274570E+00 -0.25597390017E+01  0.28049060316E+02  0.28171780775E+02  0.51100000000E-03 0. -1.
        -11    1    3    3    0    0  0.78794706532E+01 -0.19413837708E+02 -0.75997022856E+01  0.22287633958E+02  0.51100000000E-03 0.  1.
         12    1    3    3    0    0  0.72442602068E+01  0.46470896397E+01  0.20286701504E+01  0.88425251282E+01  0.00000000000E+00 0. -1.
</event>
<event>
 7    1  0.6065977E-013  0.5930194E+02  0.7816164E-02  0.1266605E+00
        -11   -1    0    0    0    0  0.00000000000E+00  0.00000000000E+00  0.45593999997E+02  0.45594000000E+02  0.51100000000E-03 0. -1.
         11   -1    0    0    0    0 -0.00000000000E+00 -0.00000000000E+00 -0.45593999997E+02  0.45594000000E+02  0.51100000000E-03 0.  1.
    9900012    2    1    2    0    0  0.43016274143E+01 -0.31432352584E+02  0.31975238396E+01  0.59301938060E+02  0.49999989115E+02 0.  0.
        -12    1    1    2    0    0 -0.43016274143E+01  0.31432352584E+02 -0.31975238396E+01  0.31886061940E+02  0.00000000000E+00 0.  1.
         11    1    3    3    0    0  0.12733026630E+02 -0.21480668965E+02  0.13893071112E+02  0.28575628279E+02  0.51100000000E-03 0. -1.
        -11    1    3    3    0    0 -0.61766766185E+01 -0.10244956049E+02 -0.18814135702E+02  0.22295339445E+02  0.51100000000E-03 0.  1.
        -12    1    3    3    0    0 -0.22547225973E+01  0.29327242993E+00  0.81185884298E+01  0.84309703357E+01  0.00000000000E+00 0.  1.
</event>
<event>
 7    1  0.6065977E-013  0.5930191E+02  0.7816164E-02  0.1266605E+00
        -11   -1    0    0    0    0  0.00000000000E+00  0.00000000000E+00  0.45593999997E+02  0.45594000000E+02  0.51100000000E-03 0.  1.
         11   -1    0    0    0    0 -0.00000000000E+00 -0.00000000000E+00 -0.45593999997E+02  0.45594000000E+02  0.51100000000E-03 0. -1.
    9900012    2    1    2    0    0 -0.84564884520E+01  0.28109308637E+02 -0.12452997252E+02  0.59301912602E+02  0.49999942687E+02 0.  0.
        -12    1    1    2    0    0  0.84564884520E+01 -0.28109308637E+02  0.12452997252E+02  0.31886087398E+02  0.00000000000E+00 0.  1.
         11    1    3    3    0    0 -0.17907159033E+02  0.12430332125E+02 -0.30461386494E+00  0.21800740612E+02  0.51100000000E-03 0. -1.
        -11    1    3    3    0    0  0.51124598003E+01  0.12801706573E+02 -0.22228738475E+02  0.26156027047E+02  0.51100000000E-03 0.  1.
        -12    1    3    3    0    0  0.43382107806E+01  0.28772699388E+01  0.10080355089E+02  0.11345144944E+02  0.00000000000E+00 0.  1.
</event>
<event>
 7    1  0.6065977E-013  0.5930188E+02  0.7816164E-02  0.1266605E+00
        -11   -1    0    0    0    0  0.00000000000E+00  0.00000000000E+00  0.45593999997E+02  0.45594000000E+02  0.51100000000E-03 0.  1.
         11   -1    0    0    0    0 -0.00000000000E+00 -0.00000000000E+00 -0.45593999997E+02  0.45594000000E+02  0.51100000000E-03 0. -1.
    9900012    2    1    2    0    0 -0.80434929006E+01  0.29197453968E+02  0.99767418633E+01  0.59301882732E+02  0.49999888210E+02 0.  0.
        -12    1    1    2    0    0  0.80434929006E+01 -0.29197453968E+02 -0.99767418633E+01  0.31886117268E+02  0.00000000000E+00 0.  1.
         11    1    3    3    0    0 -0.22220219594E+02  0.70148698321E+01  0.72113319262E+01  0.24391594166E+02  0.51100000000E-03 0.  1.
        -11    1    3    3    0    0  0.19919716915E+02  0.18798315533E+02  0.50751385391E+01  0.27855498924E+02  0.51100000000E-03 0. -1.
         12    1    3    3    0    0 -0.57429902222E+01  0.33842686030E+01 -0.23097286020E+01  0.70547896414E+01  0.00000000000E+00 0. -1.
</event>
<event>
 7    1  0.6065977E-013  0.5930195E+02  0.7816164E-02  0.1266605E+00
        -11   -1    0    0    0    0  0.00000000000E+00  0.00000000000E+00  0.45593999997E+02  0.45594000000E+02  0.51100000000E-03 0. -1.
         11   -1    0    0    0    0 -0.00000000000E+00 -0.00000000000E+00 -0.45593999997E+02  0.45594000000E+02  0.51100000000E-03 0.  1.
    9900012    2    1    2    0    0  0.31412826882E+02  0.43474911112E+01 -0.33246884144E+01  0.59301954075E+02  0.50000018324E+02 0.  0.
        -12    1    1    2    0    0 -0.31412826882E+02 -0.43474911112E+01  0.33246884144E+01  0.31886045925E+02  0.00000000000E+00 0.  1.
         11    1    3    3    0    0  0.62175810089E+01 -0.43720500388E+01 -0.18897841549E+01  0.78322678425E+01  0.51100000000E-03 0. -1.
        -11    1    3    3    0    0 -0.10992343447E+02  0.85668858068E+01  0.48176144918E+01  0.14745594479E+02  0.51100000000E-03 0.  1.
        -12    1    3    3    0    0  0.36187589320E+02  0.15265534319E+00 -0.62525187513E+01  0.36724091754E+02  0.00000000000E+00 0.  1.
</event>
<event>
 7    1  0.6065977E-013  0.5930193E+02  0.7816164E-02  0.1266605E+00
        -11   -1    0    0    0    0  0.00000000000E+00  0.00000000000E+00  0.45593999997E+02  0.45594000000E+02  0.51100000000E-03 0. -1.
         11   -1    0    0    0    0 -0.00000000000E+00 -0.00000000000E+00 -0.45593999997E+02  0.45594000000E+02  0.51100000000E-03 0.  1.
    9900012    2    1    2    0    0  0.28580696668E+02  0.45633645208E-01  0.14137295454E+02  0.59301930515E+02  0.49999975356E+02 0.  0.
        -12    1    1    2    0    0 -0.28580696668E+02 -0.45633645208E-01 -0.14137295454E+02  0.31886069485E+02  0.00000000000E+00 0.  1.
         11    1    3    3    0    0 -0.11188572978E+02 -0.60212897960E+01  0.37243383475E-01  0.12705962515E+02  0.51100000000E-03 0. -1.
        -11    1    3    3    0    0  0.19197779798E+02  0.22783439474E+01 -0.30183902019E+01  0.19566713572E+02  0.51100000000E-03 0.  1.
         12    1    3    3    0    0  0.20571489848E+02  0.37885794938E+01  0.17118442272E+02  0.27029254428E+02  0.00000000000E+00 0. -1.
</event>
<event>
 7    1  0.6065977E-013  0.5930194E+02  0.7816164E-02  0.1266605E+00
        -11   -1    0    0    0    0  0.00000000000E+00  0.00000000000E+00  0.45593999997E+02  0.45594000000E+02  0.51100000000E-03 0. -1.
         11   -1    0    0    0    0 -0.00000000000E+00 -0.00000000000E+00 -0.45593999997E+02  0.45594000000E+02  0.51100000000E-03 0.  1.
    9900012    2    1    2    0    0  0.29241528888E+02  0.32279128813E+01  0.12297735178E+02  0.59301941545E+02  0.49999995472E+02 0.  0.
        -12    1    1    2    0    0 -0.29241528888E+02 -0.32279128813E+01 -0.12297735178E+02  0.31886058455E+02  0.00000000000E+00 0.  1.
         11    1    3    3    0    0  0.57510483398E+00 -0.10130187584E+02  0.13954570267E+02  0.17253448283E+02  0.51100000000E-03 0. -1.
        -11    1    3    3    0    0  0.33409462925E+01  0.14735895223E+02 -0.61083721038E+01  0.16297875327E+02  0.51100000000E-03 0.  1.
         12    1    3    3    0    0  0.25325477762E+02 -0.13777947578E+01  0.44515370148E+01  0.25750617935E+02  0.00000000000E+00 0. -1.
</event>
<event>
 7    1  0.6065977E-013  0.5930192E+02  0.7816164E-02  0.1266605E+00
        -11   -1    0    0    0    0  0.00000000000E+00  0.00000000000E+00  0.45593999997E+02  0.45594000000E+02  0.51100000000E-03 0.  1.
         11   -1    0    0    0    0 -0.00000000000E+00 -0.00000000000E+00 -0.45593999997E+02  0.45594000000E+02  0.51100000000E-03 0. -1.
    9900012    2    1    2    0    0 -0.26578843166E+02  0.65575754967E+01 -0.16348857801E+02  0.59301923856E+02  0.49999963212E+02 0.  0.
        -12    1    1    2    0    0  0.26578843166E+02 -0.65575754967E+01  0.16348857801E+02  0.31886076144E+02  0.00000000000E+00 0.  1.
         11    1    3    3    0    0 -0.12135126436E+02 -0.13167065881E+02  0.98632648421E-01  0.17906497318E+02  0.51100000000E-03 0. -1.
        -11    1    3    3    0    0 -0.17216087985E+02  0.23501966032E+02 -0.20150858589E+02  0.35423060215E+02  0.51100000000E-03 0.  1.
        -12    1    3    3    0    0  0.27723712553E+01 -0.37773246540E+01  0.37033681390E+01  0.59723663226E+01  0.00000000000E+00 0.  1.
</event>
<event>
 7    1  0.6065977E-013  0.5930199E+02  0.7816164E-02  0.1266605E+00
        -11   -1    0    0    0    0  0.00000000000E+00  0.00000000000E+00  0.45593999997E+02  0.45594000000E+02  0.51100000000E-03 0.  1.
         11   -1    0    0    0    0 -0.00000000000E+00 -0.00000000000E+00 -0.45593999997E+02  0.45594000000E+02  0.51100000000E-03 0. -1.
    9900012    2    1    2    0    0  0.35555883204E+01  0.28344084795E+02 -0.14166453500E+02  0.59301988084E+02  0.50000080348E+02 0.  0.
        -12    1    1    2    0    0 -0.35555883204E+01 -0.28344084795E+02  0.14166453500E+02  0.31886011916E+02  0.00000000000E+00 0.  1.
         11    1    3    3    0    0  0.36340438087E+01 -0.84504705892E+01  0.31364275231E+01  0.97187399107E+01  0.51100000000E-03 0.  1.
        -11    1    3    3    0    0  0.30842066737E+01  0.41031620117E+02 -0.15904746827E+02  0.44114251123E+02  0.51100000000E-03 0. -1.
         12    1    3    3    0    0 -0.31626621620E+01 -0.42370647334E+01 -0.13981341964E+01  0.54689970504E+01  0.00000000000E+00 0. -1.
</event>
<event>
 7    1  0.6065977E-013  0.5930196E+02  0.7816164E-02  0.1266605E+00
        -11   -1    0    0    0    0  0.00000000000E+00  0.00000000000E+00  0.45593999997E+02  0.45594000000E+02  0.51100000000E-03 0.  1.
         11   -1    0    0    0    0 -0.00000000000E+00 -0.00000000000E+00 -0.45593999997E+02  0.45594000000E+02  0.51100000000E-03 0. -1.
    9900012    2    1    2    0    0  0.17029332521E+02  0.19409409882E+02 -0.18708181581E+02  0.59301962050E+02  0.50000032868E+02 0.  0.
        -12    1    1    2    0    0 -0.17029332521E+02 -0.19409409882E+02  0.18708181581E+02  0.31886037950E+02  0.00000000000E+00 0.  1.
         11    1    3    3    0    0 -0.85276764890E+00  0.22575687948E+02 -0.20712227483E+02  0.30649392597E+02  0.51100000000E-03 0. -1.
        -11    1    3    3    0    0  0.21149581241E+02 -0.24886468413E+01 -0.41087448187E+01  0.21688244144E+02  0.51100000000E-03 0.  1.
         12    1    3    3    0    0 -0.32674810711E+01 -0.67763122516E+00  0.61127907204E+01  0.69643253096E+01  0.00000000000E+00 0. -1.
</event>
<event>
 7    1  0.6065977E-013  0.5930193E+02  0.7816164E-02  0.1266605E+00
        -11   -1    0    0    0    0  0.00000000000E+00  0.00000000000E+00  0.45593999997E+02  0.45594000000E+02  0.51100000000E-03 0. -1.
         11   -1    0    0    0    0 -0.00000000000E+00 -0.00000000000E+00 -0.45593999997E+02  0.45594000000E+02  0.51100000000E-03 0.  1.
    9900012    2    1    2    0    0 -0.23556602860E+02 -0.86228139725E+01  0.19683870409E+02  0.59301933868E+02  0.49999981471E+02 0.  0.
        -12    1    1    2    0    0  0.23556602860E+02  0.86228139725E+01 -0.19683870409E+02  0.31886066132E+02  0.00000000000E+00 0.  1.
         11    1    3    3    0    0 -0.14764783897E+02  0.85958386135E+01  0.20557080979E+02  0.26729774852E+02  0.51100000000E-03 0. -1.
        -11    1    3    3    0    0 -0.16459201004E+02 -0.17878612004E+02  0.19395372118E+01  0.24378512460E+02  0.51100000000E-03 0.  1.
        -12    1    3    3    0    0  0.76673820415E+01  0.65995941834E+00 -0.28127477815E+01  0.81936465561E+01  0.00000000000E+00 0.  1.
</event>
<event>
 7    1  0.6065977E-013  0.5930193E+02  0.7816164E-02  0.1266605E+00
        -11   -1    0    0    0    0  0.00000000000E+00  0.00000000000E+00  0.45593999997E+02  0.45594000000E+02  0.51100000000E-03 0.  1.
         11   -1    0    0    0    0 -0.00000000000E+00 -0.00000000000E+00 -0.45593999997E+02  0.45594000000E+02  0.51100000000E-03 0. -1.
    9900012    2    1    2    0    0 -0.12443637471E+01  0.31838783199E+02 -0.12102559402E+01  0.59301932884E+02  0.49999979676E+02 0.  0.
        -12    1    1    2    0    0  0.12443637471E+01 -0.31838783199E+02  0.12102559402E+01  0.31886067116E+02  0.00000000000E+00 0.  1.
         11    1    3    3    0    0  0.56446349912E+01  0.30351856228E+01 -0.19583208515E+02  0.20605249621E+02  0.51100000000E-03 0. -1.
        -11    1    3    3    0    0  0.10676459718E+01  0.14390372338E+02  0.16817686732E+02  0.22159812075E+02  0.51100000000E-03 0.  1.
         12    1    3    3    0    0 -0.79566447100E+01  0.14413225238E+02  0.15552658431E+01  0.16536871187E+02  0.00000000000E+00 0. -1.
</event>
<event>
 7    1  0.6065977E-013  0.5930194E+02  0.7816164E-02  0.1266605E+00
        -11   -1    0    0    0    0  0.00000000000E+00  0.00000000000E+00  0.45593999997E+02  0.45594000000E+02  0.51100000000E-03 0. -1.
         11   -1    0    0    0    0 -0.00000000000E+00 -0.00000000000E+00 -0.45593999997E+02  0.45594000000E+02  0.51100000000E-03 0.  1.
    9900012    2    1    2    0    0 -0.26008444906E+02  0.15830296294E+02  0.94701279290E+01  0.59301940190E+02  0.49999993001E+02 0.  0.
        -12    1    1    2    0    0  0.26008444906E+02 -0.15830296294E+02 -0.94701279290E+01  0.31886059810E+02  0.00000000000E+00 0.  1.
         11    1    3    3    0    0 -0.18696864018E+01  0.45872174764E+01  0.10171837169E+02  0.11313910158E+02  0.51100000000E-03 0. -1.
        -11    1    3    3    0    0 -0.16082416027E+02 -0.14093309374E+02  0.23641532149E+00  0.21385073459E+02  0.51100000000E-03 0.  1.
        -12    1    3    3    0    0 -0.80563424772E+01  0.25336388192E+02 -0.93812456159E+00  0.26602956573E+02  0.00000000000E+00 0.  1.
</event>
<event>
 7    1  0.6065977E-013  0.5930194E+02  0.7816164E-02  0.1266605E+00
        -11   -1    0    0    0    0  0.00000000000E+00  0.00000000000E+00  0.45593999997E+02  0.45594000000E+02  0.51100000000E-03 0.  1.
         11   -1    0    0    0    0 -0.00000000000E+00 -0.00000000000E+00 -0.45593999997E+02  0.45594000000E+02  0.51100000000E-03 0. -1.
    9900012    2    1    2    0    0  0.30965213365E+02 -0.42786616063E+01 -0.62904258667E+01  0.59301939700E+02  0.49999992107E+02 0.  0.
        -12    1    1    2    0    0 -0.30965213365E+02  0.42786616063E+01  0.62904258667E+01  0.31886060300E+02  0.00000000000E+00 0.  1.
         11    1    3    3    0    0 -0.39376095639E+01  0.55786025877E+01  0.11418558880E+02  0.13304475302E+02  0.51100000000E-03 0.  1.
        -11    1    3    3    0    0  0.23846757272E+02 -0.80441769310E+01 -0.22550821506E+02  0.33792250084E+02  0.51100000000E-03 0. -1.
        -12    1    3    3    0    0  0.11056065657E+02 -0.18130872630E+01  0.48418367598E+01  0.12205214314E+02  0.00000000000E+00 0.  1.
</event>
<event>
 7    1  0.6065977E-013  0.5930194E+02  0.7816164E-02  0.1266605E+00
        -11   -1    0    0    0    0  0.00000000000E+00  0.00000000000E+00  0.45593999997E+02  0.45594000000E+02  0.51100000000E-03 0.  1.
         11   -1    0    0    0    0 -0.00000000000E+00 -0.00000000000E+00 -0.45593999997E+02  0.45594000000E+02  0.51100000000E-03 0. -1.
    9900012    2    1    2    0    0  0.26478307385E+02 -0.24520538863E+01 -0.17595658328E+02  0.59301944706E+02  0.50000001237E+02 0.  0.
        -12    1    1    2    0    0 -0.26478307385E+02  0.24520538863E+01  0.17595658328E+02  0.31886055294E+02  0.00000000000E+00 0.  1.
         11    1    3    3    0    0  0.88930164883E+01  0.41922585061E+01 -0.25478502178E+02  0.27309610893E+02  0.51100000000E-03 0. -1.
        -11    1    3    3    0    0  0.61950623541E+01 -0.11415161159E+02  0.13226154648E+02  0.18536878618E+02  0.51100000000E-03 0.  1.
        -12    1    3    3    0    0  0.11390228542E+02  0.47708487671E+01 -0.53433107983E+01  0.13455455194E+02  0.00000000000E+00 0.  1.
</event>
<event>
 7    1  0.6065977E-013  0.5930189E+02  0.7816164E-02  0.1266605E+00
        -11   -1    0    0    0    0  0.00000000000E+00  0.00000000000E+00  0.45593999997E+02  0.45594000000E+02  0.51100000000E-03 0.  1.
         11   -1    0    0    0    0 -0.00000000000E+00 -0.00000000000E+00 -0.45593999997E+02  0.45594000000E+02  0.51100000000E-03 0. -1.
    9900012    2    1    2    0    0 -0.54571279637E+01  0.56938956715E+01 -0.30895364329E+02  0.59301886556E+02  0.49999895185E+02 0.  0.
        -12    1    1    2    0    0  0.54571279637E+01 -0.56938956715E+01  0.30895364329E+02  0.31886113444E+02  0.00000000000E+00 0.  1.
         11    1    3    3    0    0 -0.17558340268E+02  0.45423797102E+01 -0.28489079394E+02  0.33772121216E+02  0.51100000000E-03 0. -1.
        -11    1    3    3    0    0  0.78442876073E+01 -0.39288742115E+01 -0.11382788794E+02  0.14371387603E+02  0.51100000000E-03 0.  1.
         12    1    3    3    0    0  0.42569246971E+01  0.50803901728E+01  0.89765038596E+01  0.11158377737E+02  0.00000000000E+00 0. -1.
</event>
<event>
 7    1  0.6065977E-013  0.5930195E+02  0.7816164E-02  0.1266605E+00
        -11   -1    0    0    0    0  0.00000000000E+00  0.00000000000E+00  0.45593999997E+02  0.45594000000E+02  0.51100000000E-03 0. -1.
         11   -1    0    0    0    0 -0.00000000000E+00 -0.00000000000E+00 -0.45593999997E+02  0.45594000000E+02  0.51100000000E-03 0.  1.
    9900012    2    1    2    0    0 -0.10855613274E+02  0.36511761628E+00  0.29979031985E+02  0.59301952750E+02  0.50000015908E+02 0.  0.
        -12    1    1    2    0    0  0.10855613274E+02 -0.36511761628E+00 -0.29979031985E+02  0.31886047250E+02  0.00000000000E+00 0.  1.
         11    1    3    3    0    0  0.11901401712E+01 -0.10170018008E+02 -0.71821617375E+01  0.12507163843E+02  0.51100000000E-03 0.  1.
        -11    1    3    3    0    0 -0.54396450453E+01 -0.49511433579E+01  0.24908553473E+02  0.25971900106E+02  0.51100000000E-03 0. -1.
        -12    1    3    3    0    0 -0.66061083998E+01  0.15486278982E+02  0.12252640250E+02  0.20822888801E+02  0.00000000000E+00 0.  1.
</event>
<event>
 7    1  0.6065977E-013  0.5930196E+02  0.7816164E-02  0.1266605E+00
        -11   -1    0    0    0    0  0.00000000000E+00  0.00000000000E+00  0.45593999997E+02  0.45594000000E+02  0.51100000000E-03 0.  1.
         11   -1    0    0    0    0 -0.00000000000E+00 -0.00000000000E+00 -0.45593999997E+02  0.45594000000E+02  0.51100000000E-03 0. -1.
    9900012    2    1    2    0    0 -0.35677509287E+01  0.39079045104E+01 -0.31443905319E+02  0.59301956877E+02  0.50000023434E+02 0.  0.
        -12    1    1    2    0    0  0.35677509287E+01 -0.39079045104E+01  0.31443905319E+02  0.31886043123E+02  0.00000000000E+00 0.  1.
         11    1    3    3    0    0  0.17161937072E+02 -0.15958372988E+01 -0.19521465224E+02  0.26041627935E+02  0.51100000000E-03 0. -1.
        -11    1    3    3    0    0 -0.61322537689E+01 -0.81558359808E+01 -0.45719341580E+00  0.10214265657E+02  0.51100000000E-03 0.  1.
         12    1    3    3    0    0 -0.14597434231E+02  0.13659577790E+02 -0.11465246679E+02  0.23046063285E+02  0.00000000000E+00 0. -1.
</event>
<event>
 7    1  0.6065977E-013  0.5930194E+02  0.7816164E-02  0.1266605E+00
        -11   -1    0    0    0    0  0.00000000000E+00  0.00000000000E+00  0.45593999997E+02  0.45594000000E+02  0.51100000000E-03 0.  1.
         11   -1    0    0    0    0 -0.00000000000E+00 -0.00000000000E+00 -0.45593999997E+02  0.45594000000E+02  0.51100000000E-03 0. -1.
    9900012    2    1    2    0    0  0.26024651650E-01  0.31660353581E+02  0.37870973415E+01  0.59301940783E+02  0.49999994082E+02 0.  0.
        -12    1    1    2    0    0 -0.26024651650E-01 -0.31660353581E+02 -0.37870973415E+01  0.31886059217E+02  0.00000000000E+00 0.  1.
         11    1    3    3    0    0  0.16700187561E+02  0.25119705695E+02  0.64982891459E+01  0.30856500788E+02  0.51100000000E-03 0. -1.
        -11    1    3    3    0    0 -0.78508324337E+01  0.55320435307E+01 -0.12148713763E+02  0.15486456079E+02  0.51100000000E-03 0.  1.
        -12    1    3    3    0    0 -0.88233304752E+01  0.10086043548E+01  0.94375219587E+01  0.12958983916E+02  0.00000000000E+00 0.  1.
</event>
<event>
 7    1  0.6065977E-013  0.5930195E+02  0.7816164E-02  0.1266605E+00
        -11   -1    0    0    0    0  0.00000000000E+00  0.00000000000E+00  0.45593999997E+02  0.45594000000E+02  0.51100000000E-03 0.  1.
         11   -1    0    0    0    0 -0.00000000000E+00 -0.00000000000E+00 -0.45593999997E+02  0.45594000000E+02  0.51100000000E-03 0. -1.
    9900012    2    1    2    0    0  0.30918951337E+00  0.26689281684E+01 -0.31772653306E+02  0.59301948601E+02  0.50000008340E+02 0.  0.
        -12    1    1    2    0    0 -0.30918951337E+00 -0.26689281684E+01  0.31772653306E+02  0.31886051399E+02  0.00000000000E+00 0.  1.
         11    1    3    3    0    0 -0.22788518326E+01  0.32555935117E+01  0.66882512767E+00  0.40298116707E+01  0.51100000000E-03 0. -1.
        -11    1    3    3    0    0  0.21475224438E+02 -0.93499983685E+01 -0.13014105504E+02  0.26795049477E+02  0.51100000000E-03 0.  1.
        -12    1    3    3    0    0 -0.18887183092E+02  0.87633330251E+01 -0.19427372929E+02  0.28477087453E+02  0.00000000000E+00 0.  1.
</event>
<event>
 7    1  0.6065977E-013  0.5930197E+02  0.7816164E-02  0.1266605E+00
        -11   -1    0    0    0    0  0.00000000000E+00  0.00000000000E+00  0.45593999997E+02  0.45594000000E+02  0.51100000000E-03 0. -1.
         11   -1    0    0    0    0 -0.00000000000E+00 -0.00000000000E+00 -0.45593999997E+02  0.45594000000E+02  0.51100000000E-03 0.  1.
    9900012    2    1    2    0    0 -0.17490256915E+02  0.22908211447E+02  0.13639052030E+02  0.59301968906E+02  0.50000045371E+02 0.  0.
        -12    1    1    2    0    0  0.17490256915E+02 -0.22908211447E+02 -0.13639052030E+02  0.31886031094E+02  0.00000000000E+00 0.  1.
         11    1    3    3    0    0  0.43488318561E+01  0.23069991266E+02  0.10450166696E+02  0.25697136411E+02  0.51100000000E-03 0. -1.
        -11    1    3    3    0    0 -0.24545155533E+02  0.70197158866E+01  0.70675762199E+00  0.25539001114E+02  0.51100000000E-03 0.  1.
        -12    1    3    3    0    0  0.27060667624E+01 -0.71814957050E+01  0.24821277129E+01  0.80658313810E+01  0.00000000000E+00 0.  1.
</event>
<event>
 7    1  0.6065977E-013  0.5930193E+02  0.7816164E-02  0.1266605E+00
        -11   -1    0    0    0    0  0.00000000000E+00  0.00000000000E+00  0.45593999997E+02  0.45594000000E+02  0.51100000000E-03 0.  1.
         11   -1    0    0    0    0 -0.00000000000E+00 -0.00000000000E+00 -0.45593999997E+02  0.45594000000E+02  0.51100000000E-03 0. -1.
    9900012    2    1    2    0    0 -0.19667569639E+02 -0.76749646948E+01 -0.23895677014E+02  0.59301925319E+02  0.49999965881E+02 0.  0.
        -12    1    1    2    0    0  0.19667569639E+02  0.76749646948E+01  0.23895677014E+02  0.31886074681E+02  0.00000000000E+00 0.  1.
         11    1    3    3    0    0  0.90273039411E+01 -0.10206225326E+02 -0.79400850115E+01  0.15770358338E+02  0.51100000000E-03 0. -1.
        -11    1    3    3    0    0 -0.32317310836E+02 -0.44562308159E+01 -0.12503413089E+02  0.34937113674E+02  0.51100000000E-03 0.  1.
        -12    1    3    3    0    0  0.36224372560E+01  0.69874914473E+01 -0.34521789141E+01  0.85944533075E+01  0.00000000000E+00 0.  1.
</event>
<event>
 7    1  0.6065977E-013  0.5930195E+02  0.7816164E-02  0.1266605E+00
        -11   -1    0    0    0    0  0.00000000000E+00  0.00000000000E+00  0.45593999997E+02  0.45594000000E+02  0.51100000000E-03 0.  1.
         11   -1    0    0    0    0 -0.00000000000E+00 -0.00000000000E+00 -0.45593999997E+02  0.45594000000E+02  0.51100000000E-03 0. -1.
    9900012    2    1    2    0    0  0.77448916066E+01 -0.26665563844E+02 -0.15674325518E+02  0.59301950988E+02  0.50000012694E+02 0.  0.
        -12    1    1    2    0    0 -0.77448916066E+01  0.26665563844E+02  0.15674325518E+02  0.31886049012E+02  0.00000000000E+00 0.  1.
         11    1    3    3    0    0 -0.89578730360E+00 -0.34628602594E+02 -0.18637989807E+02  0.39335953234E+02  0.51100000000E-03 0. -1.
        -11    1    3    3    0    0 -0.18698252857E+01  0.59537354991E+01  0.61896292593E+01  0.87894666290E+01  0.51100000000E-03 0.  1.
         12    1    3    3    0    0  0.10510504196E+02  0.20093032505E+01 -0.32259649697E+01  0.11176531125E+02  0.00000000000E+00 0. -1.
</event>
<event>
 7    1  0.6065977E-013  0.5930192E+02  0.7816164E-02  0.1266605E+00
        -11   -1    0    0    0    0  0.00000000000E+00  0.00000000000E+00  0.45593999997E+02  0.45594000000E+02  0.51100000000E-03 0.  1.
         11   -1    0    0    0    0 -0.00000000000E+00 -0.00000000000E+00 -0.45593999997E+02  0.45594000000E+02  0.51100000000E-03 0. -1.
    9900012    2    1    2    0    0  0.66471192343E+01 -0.12897512575E+02 -0.28393518123E+02  0.59301923162E+02  0.49999961945E+02 0.  0.
        -12    1    1    2    0    0 -0.66471192343E+01  0.12897512575E+02  0.28393518123E+02  0.31886076838E+02  0.00000000000E+00 0.  1.
         11    1    3    3    0    0  0.26867281983E+02 -0.12433766689E+01 -0.11260133827E+02  0.29157973880E+02  0.51100000000E-03 0. -1.
        -11    1    3    3    0    0 -0.10699579844E+02 -0.89516987530E+01 -0.13997809377E+02  0.19762403372E+02  0.51100000000E-03 0.  1.
         12    1    3    3    0    0 -0.95205829052E+01 -0.27024371534E+01 -0.31355749187E+01  0.10381545911E+02  0.00000000000E+00 0. -1.
</event>
<event>
 7    1  0.6065977E-013  0.5930213E+02  0.7816164E-02  0.1266604E+00
        -11   -1    0    0    0    0  0.00000000000E+00  0.00000000000E+00  0.45593999997E+02  0.45594000000E+02  0.51100000000E-03 0. -1.
         11   -1    0    0    0    0 -0.00000000000E+00 -0.00000000000E+00 -0.45593999997E+02  0.45594000000E+02  0.51100000000E-03 0.  1.
    9900012    2    1    2    0    0  0.14961002551E+01 -0.24625967336E+02  0.20199811204E+02  0.59302126076E+02  0.50000332012E+02 0.  0.
        -12    1    1    2    0    0 -0.14961002551E+01  0.24625967336E+02 -0.20199811204E+02  0.31885873924E+02  0.00000000000E+00 0.  1.
         11    1    3    3    0    0 -0.11121167716E+02 -0.63313260920E+01 -0.39437483660E+01  0.13391012392E+02  0.51100000000E-03 0.  1.
        -11    1    3    3    0    0  0.12159285951E+02 -0.23457320631E+02  0.28700026077E+02  0.39010070791E+02  0.51100000000E-03 0. -1.
         12    1    3    3    0    0  0.45798202021E+00  0.51626793865E+01 -0.45564665074E+01  0.69010428931E+01  0.00000000000E+00 0. -1.
</event>
<event>
 7    1  0.6065977E-013  0.5930196E+02  0.7816164E-02  0.1266605E+00
        -11   -1    0    0    0    0  0.00000000000E+00  0.00000000000E+00  0.45593999997E+02  0.45594000000E+02  0.51100000000E-03 0. -1.
         11   -1    0    0    0    0 -0.00000000000E+00 -0.00000000000E+00 -0.45593999997E+02  0.45594000000E+02  0.51100000000E-03 0.  1.
    9900012    2    1    2    0    0  0.14025377125E+02 -0.53696018042E+01  0.28127840994E+02  0.59301964404E+02  0.50000037162E+02 0.  0.
        -12    1    1    2    0    0 -0.14025377125E+02  0.53696018042E+01 -0.28127840994E+02  0.31886035596E+02  0.00000000000E+00 0.  1.
         11    1    3    3    0    0  0.30561931740E+02  0.17317852225E+01  0.25529682863E+02  0.39859697177E+02  0.51100000000E-03 0. -1.
        -11    1    3    3    0    0 -0.63181177737E+01 -0.17646298532E+00  0.31985321136E+01  0.70838096622E+01  0.51100000000E-03 0.  1.
         12    1    3    3    0    0 -0.10218436841E+02 -0.69249240414E+01 -0.60037398224E+00  0.12358457565E+02  0.00000000000E+00 0. -1.
</event>
<event>
 7    1  0.6065977E-013  0.5930194E+02  0.7816164E-02  0.1266605E+00
        -11   -1    0    0    0    0  0.00000000000E+00  0.00000000000E+00  0.45593999997E+02  0.45594000000E+02  0.51100000000E-03 0.  1.
         11   -1    0    0    0    0 -0.00000000000E+00 -0.00000000000E+00 -0.45593999997E+02  0.45594000000E+02  0.51100000000E-03 0. -1.
    9900012    2    1    2    0    0 -0.19491987949E+02 -0.92563069944E+01 -0.23475605812E+02  0.59301939070E+02  0.49999990958E+02 0.  0.
        -12    1    1    2    0    0  0.19491987949E+02  0.92563069944E+01  0.23475605812E+02  0.31886060930E+02  0.00000000000E+00 0.  1.
         11    1    3    3    0    0 -0.28356122900E+02  0.22169249544E+01 -0.20845496913E+02  0.35263567658E+02  0.51100000000E-03 0. -1.
        -11    1    3    3    0    0  0.60586982655E+01  0.45044157775E+01  0.29151988160E+00  0.75553008061E+01  0.51100000000E-03 0.  1.
         12    1    3    3    0    0  0.28054366853E+01 -0.15977647726E+02 -0.29216287810E+01  0.16483070606E+02  0.00000000000E+00 0. -1.
</event>
<event>
 7    1  0.6065977E-013  0.5930194E+02  0.7816164E-02  0.1266605E+00
        -11   -1    0    0    0    0  0.00000000000E+00  0.00000000000E+00  0.45593999997E+02  0.45594000000E+02  0.51100000000E-03 0. -1.
         11   -1    0    0    0    0 -0.00000000000E+00 -0.00000000000E+00 -0.45593999997E+02  0.45594000000E+02  0.51100000000E-03 0.  1.
    9900012    2    1    2    0    0 -0.17225491847E+02  0.40208674681E+01  0.26529899362E+02  0.59301944980E+02  0.50000001737E+02 0.  0.
        -12    1    1    2    0    0  0.17225491847E+02 -0.40208674681E+01 -0.26529899362E+02  0.31886055020E+02  0.00000000000E+00 0.  1.
         11    1    3    3    0    0 -0.11651388465E+02  0.25224388256E+02  0.55233953621E+01  0.28329004795E+02  0.51100000000E-03 0. -1.
        -11    1    3    3    0    0  0.73121343883E+00 -0.74525166514E+01  0.86427634585E+01  0.11435560240E+02  0.51100000000E-03 0.  1.
         12    1    3    3    0    0 -0.63053168208E+01 -0.13751004137E+02  0.12363740541E+02  0.19537379946E+02  0.00000000000E+00 0. -1.
</event>
<event>
 7    1  0.6065977E-013  0.5930193E+02  0.7816164E-02  0.1266605E+00
        -11   -1    0    0    0    0  0.00000000000E+00  0.00000000000E+00  0.45593999997E+02  0.45594000000E+02  0.51100000000E-03 0.  1.
         11   -1    0    0    0    0 -0.00000000000E+00 -0.00000000000E+00 -0.45593999997E+02  0.45594000000E+02  0.51100000000E-03 0. -1.
    9900012    2    1    2    0    0  0.12611248965E+02 -0.27605792013E+02 -0.97774162037E+01  0.59301933752E+02  0.49999981260E+02 0.  0.
        -12    1    1    2    0    0 -0.12611248965E+02  0.27605792013E+02  0.97774162037E+01  0.31886066248E+02  0.00000000000E+00 0.  1.
         11    1    3    3    0    0  0.57449652557E+01 -0.82476435331E+01 -0.12881882780E+02  0.16339251937E+02  0.51100000000E-03 0. -1.
        -11    1    3    3    0    0 -0.11121589337E+02  0.53065061152E+01  0.98652439577E+00  0.12362119041E+02  0.51100000000E-03 0.  1.
        -12    1    3    3    0    0  0.17987873047E+02 -0.24664654595E+02  0.21179421801E+01  0.30600562775E+02  0.00000000000E+00 0.  1.
</event>
<event>
 7    1  0.6065977E-013  0.5930194E+02  0.7816164E-02  0.1266605E+00
        -11   -1    0    0    0    0  0.00000000000E+00  0.00000000000E+00  0.45593999997E+02  0.45594000000E+02  0.51100000000E-03 0.  1.
         11   -1    0    0    0    0 -0.00000000000E+00 -0.00000000000E+00 -0.45593999997E+02  0.45594000000E+02  0.51100000000E-03 0. -1.
    9900012    2    1    2    0    0  0.88411821356E+01 -0.30574257216E+02 -0.19414856289E+01  0.59301936080E+02  0.49999985506E+02 0.  0.
        -12    1    1    2    0    0 -0.88411821356E+01  0.30574257216E+02  0.19414856289E+01  0.31886063920E+02  0.00000000000E+00 0.  1.
         11    1    3    3    0    0  0.20318742215E+02 -0.25541264819E+02  0.12226415721E+02  0.34852442316E+02  0.51100000000E-03 0. -1.
        -11    1    3    3    0    0 -0.12704778775E+02 -0.59829735883E+01 -0.46306955247E+01  0.14786842732E+02  0.51100000000E-03 0.  1.
         12    1    3    3    0    0  0.12272186961E+01  0.94998119194E+00 -0.95372058256E+01  0.96626510313E+01  0.00000000000E+00 0. -1.
</event>
<event>
 7    1  0.6065977E-013  0.5930197E+02  0.7816164E-02  0.1266605E+00
        -11   -1    0    0    0    0  0.00000000000E+00  0.00000000000E+00  0.45593999997E+02  0.45594000000E+02  0.51100000000E-03 0.  1.
         11   -1    0    0    0    0 -0.00000000000E+00 -0.00000000000E+00 -0.45593999997E+02  0.45594000000E+02  0.51100000000E-03 0. -1.
    9900012    2    1    2    0    0 -0.29382361462E+02 -0.11609694551E+02  0.43139895004E+01  0.59301973624E+02  0.50000053977E+02 0.  0.
        -12    1    1    2    0    0  0.29382361462E+02  0.11609694551E+02 -0.43139895004E+01  0.31886026376E+02  0.00000000000E+00 0.  1.
         11    1    3    3    0    0  0.23875760843E+01  0.99978608412E+01 -0.27572084396E+01  0.10642365320E+02  0.51100000000E-03 0.  1.
        -11    1    3    3    0    0 -0.59258581977E+01 -0.17094759242E+02 -0.63704566652E+01  0.19181483449E+02  0.51100000000E-03 0. -1.
         12    1    3    3    0    0 -0.25844079348E+02 -0.45127961499E+01  0.13441654605E+02  0.29478124855E+02  0.00000000000E+00 0. -1.
</event>
<event>
 7    1  0.6065977E-013  0.5930193E+02  0.7816164E-02  0.1266605E+00
        -11   -1    0    0    0    0  0.00000000000E+00  0.00000000000E+00  0.45593999997E+02  0.45594000000E+02  0.51100000000E-03 0.  1.
         11   -1    0    0    0    0 -0.00000000000E+00 -0.00000000000E+00 -0.45593999997E+02  0.45594000000E+02  0.51100000000E-03 0. -1.
    9900012    2    1    2    0    0 -0.19454377654E+02  0.13232173566E+02 -0.21521112105E+02  0.59301929477E+02  0.49999973462E+02 0.  0.
        -12    1    1    2    0    0  0.19454377654E+02 -0.13232173566E+02  0.21521112105E+02  0.31886070523E+02  0.00000000000E+00 0.  1.
         11    1    3    3    0    0 -0.93291449467E+01  0.29567026634E+02 -0.11791644527E+02  0.33170542509E+02  0.51100000000E-03 0. -1.
        -11    1    3    3    0    0 -0.12918045904E+02 -0.92620710396E+01 -0.34403144789E+01  0.16263383224E+02  0.51100000000E-03 0.  1.
         12    1    3    3    0    0  0.27928131966E+01 -0.70727820289E+01 -0.62891530990E+01  0.98680037435E+01  0.00000000000E+00 0. -1.
</event>
<event>
 7    1  0.6065977E-013  0.5930197E+02  0.7816164E-02  0.1266605E+00
        -11   -1    0    0    0    0  0.00000000000E+00  0.00000000000E+00  0.45593999997E+02  0.45594000000E+02  0.51100000000E-03 0.  1.
         11   -1    0    0    0    0 -0.00000000000E+00 -0.00000000000E+00 -0.45593999997E+02  0.45594000000E+02  0.51100000000E-03 0. -1.
    9900012    2    1    2    0    0 -0.28070702200E+02  0.96324095686E+01 -0.11660685007E+02  0.59301965268E+02  0.50000038737E+02 0.  0.
        -12    1    1    2    0    0  0.28070702200E+02 -0.96324095686E+01  0.11660685007E+02  0.31886034732E+02  0.00000000000E+00 0.  1.
         11    1    3    3    0    0 -0.13210378076E+02  0.86385450971E+01 -0.30070795476E+02  0.33961614967E+02  0.51100000000E-03 0. -1.
        -11    1    3    3    0    0 -0.10617833301E+02 -0.34327694658E+01  0.10408744645E+02  0.15259890418E+02  0.51100000000E-03 0.  1.
         12    1    3    3    0    0 -0.42424908237E+01  0.44266339374E+01  0.80013658245E+01  0.10080459883E+02  0.00000000000E+00 0. -1.
</event>
<event>
 7    1  0.6065977E-013  0.5930198E+02  0.7816164E-02  0.1266605E+00
        -11   -1    0    0    0    0  0.00000000000E+00  0.00000000000E+00  0.45593999997E+02  0.45594000000E+02  0.51100000000E-03 0.  1.
         11   -1    0    0    0    0 -0.00000000000E+00 -0.00000000000E+00 -0.45593999997E+02  0.45594000000E+02  0.51100000000E-03 0. -1.
    9900012    2    1    2    0    0  0.30083412720E+02  0.60499547049E+01 -0.86662794450E+01  0.59301983123E+02  0.50000071301E+02 0.  0.
        -12    1    1    2    0    0 -0.30083412720E+02 -0.60499547049E+01  0.86662794450E+01  0.31886016877E+02  0.00000000000E+00 0.  1.
         11    1    3    3    0    0  0.36634527309E+02  0.18749122686E+02 -0.83554784830E+01  0.41993240094E+02  0.51100000000E-03 0. -1.
        -11    1    3    3    0    0  0.45887334391E+00 -0.63876744648E+01  0.33051907099E+01  0.72067493160E+01  0.51100000000E-03 0.  1.
         12    1    3    3    0    0 -0.70099879321E+01 -0.63114935167E+01 -0.36159916719E+01  0.10101993714E+02  0.00000000000E+00 0. -1.
</event>
<event>
 7    1  0.6065977E-013  0.5930192E+02  0.7816164E-02  0.1266605E+00
        -11   -1    0    0    0    0  0.00000000000E+00  0.00000000000E+00  0.45593999997E+02  0.45594000000E+02  0.51100000000E-03 0.  1.
         11   -1    0    0    0    0 -0.00000000000E+00 -0.00000000000E+00 -0.45593999997E+02  0.45594000000E+02  0.51100000000E-03 0. -1.
    9900012    2    1    2    0    0 -0.28481455493E+02  0.25765095036E+01 -0.14102842368E+02  0.59301923555E+02  0.49999962662E+02 0.  0.
        -12    1    1    2    0    0  0.28481455493E+02 -0.25765095036E+01  0.14102842368E+02  0.31886076445E+02  0.00000000000E+00 0.  1.
         11    1    3    3    0    0 -0.10770330672E+02  0.25223595492E+00 -0.66846605738E+01  0.12678656593E+02  0.51100000000E-03 0. -1.
        -11    1    3    3    0    0  0.78860600282E+01 -0.49862606388E+01 -0.16112358387E+02  0.18618830011E+02  0.51100000000E-03 0.  1.
        -12    1    3    3    0    0 -0.25597184849E+02  0.73105341875E+01  0.86941765928E+01  0.28004436951E+02  0.00000000000E+00 0.  1.
</event>
<event>
 7    1  0.6065977E-013  0.5930194E+02  0.7816164E-02  0.1266605E+00
        -11   -1    0    0    0    0  0.00000000000E+00  0.00000000000E+00  0.45593999997E+02  0.45594000000E+02  0.51100000000E-03 0. -1.
         11   -1    0    0    0    0 -0.00000000000E+00 -0.00000000000E+00 -0.45593999997E+02  0.45594000000E+02  0.51100000000E-03 0.  1.
    9900012    2    1    2    0    0  0.91755618058E+01  0.26202731744E+02  0.15682692643E+02  0.59301938252E+02  0.49999989466E+02 0.  0.
        -12    1    1    2    0    0 -0.91755618058E+01 -0.26202731744E+02 -0.15682692643E+02  0.31886061748E+02  0.00000000000E+00 0.  1.
         11    1    3    3    0    0 -0.56510480197E+01 -0.10193688982E+02  0.91899677280E+01  0.14842545128E+02  0.51100000000E-03 0. -1.
        -11    1    3    3    0    0 -0.98474690505E+00  0.50098331290E+01 -0.53290169036E+01  0.73801474150E+01  0.51100000000E-03 0.  1.
         12    1    3    3    0    0  0.15811356731E+02  0.31386587597E+02  0.11821741819E+02  0.37079245708E+02  0.00000000000E+00 0. -1.
</event>
<event>
 7    1  0.6065977E-013  0.5930192E+02  0.7816164E-02  0.1266605E+00
        -11   -1    0    0    0    0  0.00000000000E+00  0.00000000000E+00  0.45593999997E+02  0.45594000000E+02  0.51100000000E-03 0.  1.
         11   -1    0    0    0    0 -0.00000000000E+00 -0.00000000000E+00 -0.45593999997E+02  0.45594000000E+02  0.51100000000E-03 0. -1.
    9900012    2    1    2    0    0  0.38658128609E+01 -0.26224049451E+02 -0.17722206647E+02  0.59301923303E+02  0.49999962204E+02 0.  0.
        -12    1    1    2    0    0 -0.38658128609E+01  0.26224049451E+02  0.17722206647E+02  0.31886076697E+02  0.00000000000E+00 0.  1.
         11    1    3    3    0    0 -0.50583512526E+01 -0.46275358372E+01 -0.26084315817E+01  0.73351837671E+01  0.51100000000E-03 0. -1.
        -11    1    3    3    0    0  0.12453411053E+02 -0.87190951619E+01 -0.28974729733E+02  0.32720712563E+02  0.51100000000E-03 0.  1.
        -12    1    3    3    0    0 -0.35292469395E+01 -0.12877418452E+02  0.13860954668E+02  0.19246026973E+02  0.00000000000E+00 0.  1.
</event>
<event>
 7    1  0.6065977E-013  0.5930193E+02  0.7816164E-02  0.1266605E+00
        -11   -1    0    0    0    0  0.00000000000E+00  0.00000000000E+00  0.45593999997E+02  0.45594000000E+02  0.51100000000E-03 0.  1.
         11   -1    0    0    0    0 -0.00000000000E+00 -0.00000000000E+00 -0.45593999997E+02  0.45594000000E+02  0.51100000000E-03 0. -1.
    9900012    2    1    2    0    0 -0.23939994202E+02  0.18401903422E+02  0.10245380240E+02  0.59301934262E+02  0.49999982190E+02 0.  0.
        -12    1    1    2    0    0  0.23939994202E+02 -0.18401903422E+02 -0.10245380240E+02  0.31886065738E+02  0.00000000000E+00 0.  1.
         11    1    3    3    0    0 -0.11993224994E+02  0.18346373653E+02  0.18587147688E+02  0.28738631342E+02  0.51100000000E-03 0. -1.
        -11    1    3    3    0    0 -0.17571087502E+01  0.40252713384E+00 -0.17056058813E+02  0.17151052497E+02  0.51100000000E-03 0.  1.
        -12    1    3    3    0    0 -0.10189660458E+02 -0.34699736405E+00  0.87142913649E+01  0.13412250423E+02  0.00000000000E+00 0.  1.
</event>
<event>
 7    1  0.6065977E-013  0.5930189E+02  0.7816164E-02  0.1266605E+00
        -11   -1    0    0    0    0  0.00000000000E+00  0.00000000000E+00  0.45593999997E+02  0.45594000000E+02  0.51100000000E-03 0.  1.
         11   -1    0    0    0    0 -0.00000000000E+00 -0.00000000000E+00 -0.45593999997E+02  0.45594000000E+02  0.51100000000E-03 0. -1.
    9900012    2    1    2    0    0  0.17451071644E+02  0.18847061772E+02 -0.18893710507E+02  0.59301891180E+02  0.49999903618E+02 0.  0.
        -12    1    1    2    0    0 -0.17451071644E+02 -0.18847061772E+02  0.18893710507E+02  0.31886108820E+02  0.00000000000E+00 0.  1.
         11    1    3    3    0    0 -0.54075537865E+01  0.13632096537E+02  0.33828786387E+00  0.14669360344E+02  0.51100000000E-03 0. -1.
        -11    1    3    3    0    0  0.19460945301E+02  0.30624160413E+01  0.47914259992E+01  0.20274726814E+02  0.51100000000E-03 0.  1.
        -12    1    3    3    0    0  0.33976801294E+01  0.21525491931E+01 -0.24023424370E+02  0.24357804022E+02  0.00000000000E+00 0.  1.
</event>
<event>
 7    1  0.6065977E-013  0.5930194E+02  0.7816164E-02  0.1266605E+00
        -11   -1    0    0    0    0  0.00000000000E+00  0.00000000000E+00  0.45593999997E+02  0.45594000000E+02  0.51100000000E-03 0. -1.
         11   -1    0    0    0    0 -0.00000000000E+00 -0.00000000000E+00 -0.45593999997E+02  0.45594000000E+02  0.51100000000E-03 0.  1.
    9900012    2    1    2    0    0 -0.24934653844E+02 -0.16135805437E+01 -0.19808593144E+02  0.59301937733E+02  0.49999988521E+02 0.  0.
        -12    1    1    2    0    0  0.24934653844E+02  0.16135805437E+01  0.19808593144E+02  0.31886062267E+02  0.00000000000E+00 0.  1.
         11    1    3    3    0    0 -0.49312069769E+01 -0.62159291905E+01  0.30681728996E+00  0.79403221005E+01  0.51100000000E-03 0. -1.
        -11    1    3    3    0    0 -0.61043552021E+01 -0.55551347255E+01 -0.30269774854E+02  0.31374861661E+02  0.51100000000E-03 0.  1.
        -12    1    3    3    0    0 -0.13899091665E+02  0.10157483372E+02  0.10154364420E+02  0.19986753972E+02  0.00000000000E+00 0.  1.
</event>
<event>
 7    1  0.6065977E-013  0.5930193E+02  0.7816164E-02  0.1266605E+00
        -11   -1    0    0    0    0  0.00000000000E+00  0.00000000000E+00  0.45593999997E+02  0.45594000000E+02  0.51100000000E-03 0. -1.
         11   -1    0    0    0    0 -0.00000000000E+00 -0.00000000000E+00 -0.45593999997E+02  0.45594000000E+02  0.51100000000E-03 0.  1.
    9900012    2    1    2    0    0  0.26629954049E+02 -0.16243785592E+02  0.66110712245E+01  0.59301932733E+02  0.49999979401E+02 0.  0.
        -12    1    1    2    0    0 -0.26629954049E+02  0.16243785592E+02 -0.66110712245E+01  0.31886067267E+02  0.00000000000E+00 0.  1.
         11    1    3    3    0    0  0.18272905148E+01 -0.17239297549E+02  0.44553689522E+01  0.17899236949E+02  0.51100000000E-03 0. -1.
        -11    1    3    3    0    0  0.23574258211E+02  0.93847563690E+01  0.12286701348E+02  0.28191884162E+02  0.51100000000E-03 0.  1.
        -12    1    3    3    0    0  0.12284053235E+01 -0.83892444122E+01 -0.10130999075E+02  0.13210811622E+02  0.00000000000E+00 0.  1.
</event>
<event>
 7    1  0.6065977E-013  0.5930196E+02  0.7816164E-02  0.1266605E+00
        -11   -1    0    0    0    0  0.00000000000E+00  0.00000000000E+00  0.45593999997E+02  0.45594000000E+02  0.51100000000E-03 0. -1.
         11   -1    0    0    0    0 -0.00000000000E+00 -0.00000000000E+00 -0.45593999997E+02  0.45594000000E+02  0.51100000000E-03 0.  1.
    9900012    2    1    2    0    0  0.12570995012E+02  0.21903002702E+01  0.29221437620E+02  0.59301956855E+02  0.50000023394E+02 0.  0.
        -12    1    1    2    0    0 -0.12570995012E+02 -0.21903002702E+01 -0.29221437620E+02  0.31886043145E+02  0.00000000000E+00 0.  1.
         11    1    3    3    0    0  0.58368020318E+01 -0.18212477531E+02  0.27501793319E+02  0.33497928768E+02  0.51100000000E-03 0. -1.
        -11    1    3    3    0    0  0.72649499115E+01  0.17368946643E+02 -0.40555008922E+01  0.19258943181E+02  0.51100000000E-03 0.  1.
         12    1    3    3    0    0 -0.53075693119E+00  0.30338311574E+01  0.57751451936E+01  0.65450849054E+01  0.00000000000E+00 0. -1.
</event>
<event>
 7    1  0.6065977E-013  0.5930194E+02  0.7816164E-02  0.1266605E+00
        -11   -1    0    0    0    0  0.00000000000E+00  0.00000000000E+00  0.45593999997E+02  0.45594000000E+02  0.51100000000E-03 0. -1.
         11   -1    0    0    0    0 -0.00000000000E+00 -0.00000000000E+00 -0.45593999997E+02  0.45594000000E+02  0.51100000000E-03 0.  1.
    9900012    2    1    2    0    0 -0.65748365497E+01  0.16039642790E+02  0.26762328729E+02  0.59301939480E+02  0.49999991707E+02 0.  0.
        -12    1    1    2    0    0  0.65748365497E+01 -0.16039642790E+02 -0.26762328729E+02  0.31886060520E+02  0.00000000000E+00 0.  1.
         11    1    3    3    0    0  0.13073702675E+02 -0.12175741987E+01 -0.41125498116E+01  0.13759260691E+02  0.51100000000E-03 0. -1.
        -11    1    3    3    0    0 -0.11832199542E+02  0.86910729559E+01  0.30604031949E+02  0.33943224168E+02  0.51100000000E-03 0.  1.
        -12    1    3    3    0    0 -0.78163396827E+01  0.85661440324E+01  0.27084659111E+00  0.11599454621E+02  0.00000000000E+00 0.  1.
</event>
<event>
 7    1  0.6555368E-013  0.5930194E+02  0.7816164E-02  0.1266605E+00
        -11   -1    0    0    0    0  0.00000000000E+00  0.00000000000E+00  0.45593999997E+02  0.45594000000E+02  0.51100000000E-03 0. -1.
         11   -1    0    0    0    0 -0.00000000000E+00 -0.00000000000E+00 -0.45593999997E+02  0.45594000000E+02  0.51100000000E-03 0.  1.
    9900012    2    1    2    0    0 -0.65895082419E+01  0.11604893778E+02  0.28959030760E+02  0.59301942843E+02  0.49999997839E+02 0.  0.
        -12    1    1    2    0    0  0.65895082419E+01 -0.11604893778E+02 -0.28959030760E+02  0.31886057157E+02  0.00000000000E+00 0.  1.
         11    1    3    3    0    0 -0.59440631338E+01 -0.58730624175E+01  0.30627407527E+02  0.31746855605E+02  0.51100000000E-03 0. -1.
        -11    1    3    3    0    0  0.96397680698E+01  0.70348024950E+01  0.27491457705E+01  0.12246280142E+02  0.51100000000E-03 0.  1.
         12    1    3    3    0    0 -0.10285213178E+02  0.10443153701E+02 -0.44175225376E+01  0.15308807096E+02  0.00000000000E+00 0. -1.
</event>
<event>
 7    1  0.6065977E-013  0.5930194E+02  0.7816164E-02  0.1266605E+00
        -11   -1    0    0    0    0  0.00000000000E+00  0.00000000000E+00  0.45593999997E+02  0.45594000000E+02  0.51100000000E-03 0. -1.
         11   -1    0    0    0    0 -0.00000000000E+00 -0.00000000000E+00 -0.45593999997E+02  0.45594000000E+02  0.51100000000E-03 0.  1.
    9900012    2    1    2    0    0  0.85343077319E+01  0.12081897810E+02  0.28247377954E+02  0.59301936831E+02  0.49999986875E+02 0.  0.
        -12    1    1    2    0    0 -0.85343077319E+01 -0.12081897810E+02 -0.28247377954E+02  0.31886063169E+02  0.00000000000E+00 0.  1.
         11    1    3    3    0    0 -0.19005164276E+01  0.95932301126E+01  0.31902277437E+02  0.33367609034E+02  0.51100000000E-03 0. -1.
        -11    1    3    3    0    0  0.17883194475E+02  0.32382645025E+01 -0.29970751139E+01  0.18419485908E+02  0.51100000000E-03 0.  1.
        -12    1    3    3    0    0 -0.74483703152E+01 -0.74959680486E+00 -0.65782436973E+00  0.75148418895E+01  0.00000000000E+00 0.  1.
</event>
<event>
 7    1  0.6065977E-013  0.5930193E+02  0.7816164E-02  0.1266605E+00
        -11   -1    0    0    0    0  0.00000000000E+00  0.00000000000E+00  0.45593999997E+02  0.45594000000E+02  0.51100000000E-03 0. -1.
         11   -1    0    0    0    0 -0.00000000000E+00 -0.00000000000E+00 -0.45593999997E+02  0.45594000000E+02  0.51100000000E-03 0.  1.
    9900012    2    1    2    0    0 -0.14830106219E+02 -0.95897547103E+01  0.26548559114E+02  0.59301930363E+02  0.49999975079E+02 0.  0.
        -12    1    1    2    0    0  0.14830106219E+02  0.95897547103E+01 -0.26548559114E+02  0.31886069637E+02  0.00000000000E+00 0.  1.
         11    1    3    3    0    0 -0.62377269532E+01  0.34322347872E+01 -0.54468922820E+01  0.89642684571E+01  0.51100000000E-03 0.  1.
        -11    1    3    3    0    0  0.10185326231E+02  0.28564450281E+01  0.20763387638E+02  0.23302755526E+02  0.51100000000E-03 0. -1.
        -12    1    3    3    0    0 -0.18777705497E+02 -0.15878434526E+02  0.11232063757E+02  0.27034906380E+02  0.00000000000E+00 0.  1.
</event>
<event>
 7    1  0.6065977E-013  0.5930195E+02  0.7816164E-02  0.1266605E+00
        -11   -1    0    0    0    0  0.00000000000E+00  0.00000000000E+00  0.45593999997E+02  0.45594000000E+02  0.51100000000E-03 0. -1.
         11   -1    0    0    0    0 -0.00000000000E+00 -0.00000000000E+00 -0.45593999997E+02  0.45594000000E+02  0.51100000000E-03 0.  1.
    9900012    2    1    2    0    0 -0.12122793309E+02  0.79919234461E+00  0.29480830692E+02  0.59301949691E+02  0.50000010329E+02 0.  0.
        -12    1    1    2    0    0  0.12122793309E+02 -0.79919234461E+00 -0.29480830692E+02  0.31886050309E+02  0.00000000000E+00 0.  1.
         11    1    3    3    0    0 -0.47153591659E+01  0.16335504226E+02  0.30871877635E+01  0.17280452509E+02  0.51100000000E-03 0. -1.
        -11    1    3    3    0    0 -0.13673675453E+02 -0.15718212389E+02  0.28593145331E+02  0.35377953040E+02  0.51100000000E-03 0.  1.
        -12    1    3    3    0    0  0.62662413102E+01  0.18190050753E+00 -0.21995024031E+01  0.66435441425E+01  0.00000000000E+00 0.  1.
</event>
<event>
 7    1  0.6065977E-013  0.5930193E+02  0.7816164E-02  0.1266605E+00
        -11   -1    0    0    0    0  0.00000000000E+00  0.00000000000E+00  0.45593999997E+02  0.45594000000E+02  0.51100000000E-03 0. -1.
         11   -1    0    0    0    0 -0.00000000000E+00 -0.00000000000E+00 -0.45593999997E+02  0.45594000000E+02  0.51100000000E-03 0.  1.
    9900012    2    1    2    0    0 -0.16061969446E+01  0.26992029246E+02  0.16898882522E+02  0.59301925579E+02  0.49999966354E+02 0.  0.
        -12    1    1    2    0    0  0.16061969446E+01 -0.26992029246E+02 -0.16898882522E+02  0.31886074421E+02  0.00000000000E+00 0.  1.
         11    1    3    3    0    0 -0.13804280182E+02  0.16998005250E+02  0.10643796343E+02  0.24347088834E+02  0.51100000000E-03 0. -1.
        -11    1    3    3    0    0  0.74840877257E+00 -0.49663195772E+01 -0.92699562753E+01  0.10543079979E+02  0.51100000000E-03 0.  1.
        -12    1    3    3    0    0  0.11449674465E+02  0.14960343574E+02  0.15525042455E+02  0.24411756766E+02  0.00000000000E+00 0.  1.
</event>
<event>
 7    1  0.6065977E-013  0.5930194E+02  0.7816164E-02  0.1266605E+00
        -11   -1    0    0    0    0  0.00000000000E+00  0.00000000000E+00  0.45593999997E+02  0.45594000000E+02  0.51100000000E-03 0.  1.
         11   -1    0    0    0    0 -0.00000000000E+00 -0.00000000000E+00 -0.45593999997E+02  0.45594000000E+02  0.51100000000E-03 0. -1.
    9900012    2    1    2    0    0  0.17790890592E+01 -0.22948547313E+02 -0.22066263531E+02  0.59301937717E+02  0.49999988491E+02 0.  0.
        -12    1    1    2    0    0 -0.17790890592E+01  0.22948547313E+02  0.22066263531E+02  0.31886062283E+02  0.00000000000E+00 0.  1.
         11    1    3    3    0    0 -0.60914367525E+01 -0.28874847991E+02 -0.26258505560E+02  0.39501538738E+02  0.51100000000E-03 0. -1.
        -11    1    3    3    0    0  0.56360555745E+01  0.11780440369E+02  0.33129829947E+01  0.13472926717E+02  0.51100000000E-03 0.  1.
        -12    1    3    3    0    0  0.22344702372E+01 -0.58541396920E+01  0.87925903416E+00  0.63274722618E+01  0.00000000000E+00 0.  1.
</event>
<event>
 7    1  0.6065977E-013  0.5930196E+02  0.7816164E-02  0.1266605E+00
        -11   -1    0    0    0    0  0.00000000000E+00  0.00000000000E+00  0.45593999997E+02  0.45594000000E+02  0.51100000000E-03 0.  1.
         11   -1    0    0    0    0 -0.00000000000E+00 -0.00000000000E+00 -0.45593999997E+02  0.45594000000E+02  0.51100000000E-03 0. -1.
    9900012    2    1    2    0    0 -0.22207221556E+02  0.20345475872E+02 -0.10469977748E+02  0.59301960551E+02  0.50000030135E+02 0.  0.
        -12    1    1    2    0    0  0.22207221556E+02 -0.20345475872E+02  0.10469977748E+02  0.31886039449E+02  0.00000000000E+00 0.  1.
         11    1    3    3    0    0 -0.21118467468E+02  0.56395728619E+01 -0.65561474236E+01  0.22820550378E+02  0.51100000000E-03 0. -1.
        -11    1    3    3    0    0  0.14502011342E+01  0.22618582236E+02 -0.11333779087E+02  0.25340834524E+02  0.51100000000E-03 0.  1.
        -12    1    3    3    0    0 -0.25389552221E+01 -0.79126792264E+01  0.74199487622E+01  0.11140575649E+02  0.00000000000E+00 0.  1.
</event>
<event>
 7    1  0.6065977E-013  0.5930194E+02  0.7816164E-02  0.1266605E+00
        -11   -1    0    0    0    0  0.00000000000E+00  0.00000000000E+00  0.45593999997E+02  0.45594000000E+02  0.51100000000E-03 0. -1.
         11   -1    0    0    0    0 -0.00000000000E+00 -0.00000000000E+00 -0.45593999997E+02  0.45594000000E+02  0.51100000000E-03 0.  1.
    9900012    2    1    2    0    0 -0.17846055905E+02  0.24788347350E+02 -0.91529807732E+01  0.59301938269E+02  0.49999989497E+02 0.  0.
        -12    1    1    2    0    0  0.17846055905E+02 -0.24788347350E+02  0.91529807732E+01  0.31886061731E+02  0.00000000000E+00 0.  1.
         11    1    3    3    0    0 -0.10935003306E+02  0.17739337688E+02  0.71740917453E+01  0.22039192171E+02  0.51100000000E-03 0. -1.
        -11    1    3    3    0    0 -0.11948895422E+02 -0.10072587352E+02 -0.69803076051E+01  0.17116010408E+02  0.51100000000E-03 0.  1.
        -12    1    3    3    0    0  0.50378428231E+01  0.17121597014E+02 -0.93467649134E+01  0.20146735690E+02  0.00000000000E+00 0.  1.
</event>
<event>
 7    1  0.6065977E-013  0.5930190E+02  0.7816164E-02  0.1266605E+00
        -11   -1    0    0    0    0  0.00000000000E+00  0.00000000000E+00  0.45593999997E+02  0.45594000000E+02  0.51100000000E-03 0. -1.
         11   -1    0    0    0    0 -0.00000000000E+00 -0.00000000000E+00 -0.45593999997E+02  0.45594000000E+02  0.51100000000E-03 0.  1.
    9900012    2    1    2    0    0  0.14821554410E+00  0.31883391558E+02 -0.38795420798E+00  0.59301903758E+02  0.49999926557E+02 0.  0.
        -12    1    1    2    0    0 -0.14821554410E+00 -0.31883391558E+02  0.38795420798E+00  0.31886096242E+02  0.00000000000E+00 0.  1.
         11    1    3    3    0    0 -0.14371078026E+02  0.29427412112E+02  0.11123856882E+02  0.34586712180E+02  0.51100000000E-03 0. -1.
        -11    1    3    3    0    0  0.14112488743E+02  0.79667267481E+01 -0.73355756404E+01  0.17788809512E+02  0.51100000000E-03 0.  1.
        -12    1    3    3    0    0  0.40680482711E+00 -0.55107473018E+01 -0.41762354499E+01  0.69263820660E+01  0.00000000000E+00 0.  1.
</event>
<event>
 7    1  0.6065977E-013  0.5930197E+02  0.7816164E-02  0.1266605E+00
        -11   -1    0    0    0    0  0.00000000000E+00  0.00000000000E+00  0.45593999997E+02  0.45594000000E+02  0.51100000000E-03 0. -1.
         11   -1    0    0    0    0 -0.00000000000E+00 -0.00000000000E+00 -0.45593999997E+02  0.45594000000E+02  0.51100000000E-03 0.  1.
    9900012    2    1    2    0    0  0.22437892682E+02  0.22654081019E+02  0.22849232943E+00  0.59301974479E+02  0.50000055536E+02 0.  0.
        -12    1    1    2    0    0 -0.22437892682E+02 -0.22654081019E+02 -0.22849232943E+00  0.31886025521E+02  0.00000000000E+00 0.  1.
         11    1    3    3    0    0  0.28407495620E+02  0.16828377684E+02 -0.87638832202E+00  0.33029504380E+02  0.51100000000E-03 0. -1.
        -11    1    3    3    0    0 -0.88358773940E+01  0.30384850647E+01 -0.10466180610E+02  0.14030183806E+02  0.51100000000E-03 0.  1.
         12    1    3    3    0    0  0.28662744556E+01  0.27872182704E+01  0.11571061262E+02  0.12242286292E+02  0.00000000000E+00 0. -1.
</event>
<event>
 7    1  0.6065977E-013  0.5930194E+02  0.7816164E-02  0.1266605E+00
        -11   -1    0    0    0    0  0.00000000000E+00  0.00000000000E+00  0.45593999997E+02  0.45594000000E+02  0.51100000000E-03 0. -1.
         11   -1    0    0    0    0 -0.00000000000E+00 -0.00000000000E+00 -0.45593999997E+02  0.45594000000E+02  0.51100000000E-03 0.  1.
    9900012    2    1    2    0    0 -0.99282885184E+01 -0.24242961246E+02  0.18177697419E+02  0.59301940878E+02  0.49999994255E+02 0.  0.
        -12    1    1    2    0    0  0.99282885184E+01  0.24242961246E+02 -0.18177697419E+02  0.31886059122E+02  0.00000000000E+00 0.  1.
         11    1    3    3    0    0 -0.50884208510E+01  0.24347586012E+01  0.13046494051E+02  0.14213763874E+02  0.51100000000E-03 0. -1.
        -11    1    3    3    0    0 -0.45868160839E+01 -0.18595861569E+02 -0.14391352449E+02  0.23957378296E+02  0.51100000000E-03 0.  1.
        -12    1    3    3    0    0 -0.25305158352E+00 -0.80818582786E+01  0.19522555818E+02  0.21130798707E+02  0.00000000000E+00 0.  1.
</event>
<event>
 7    1  0.6065977E-013  0.5930187E+02  0.7816164E-02  0.1266605E+00
        -11   -1    0    0    0    0  0.00000000000E+00  0.00000000000E+00  0.45593999997E+02  0.45594000000E+02  0.51100000000E-03 0.  1.
         11   -1    0    0    0    0 -0.00000000000E+00 -0.00000000000E+00 -0.45593999997E+02  0.45594000000E+02  0.51100000000E-03 0. -1.
    9900012    2    1    2    0    0  0.18883634231E+02 -0.74351650999E+01 -0.24593732932E+02  0.59301874156E+02  0.49999872571E+02 0.  0.
        -12    1    1    2    0    0 -0.18883634231E+02  0.74351650999E+01  0.24593732932E+02  0.31886125844E+02  0.00000000000E+00 0.  1.
         11    1    3    3    0    0  0.25354966910E+02 -0.15786715778E+02 -0.45443282492E+01  0.30211680879E+02  0.51100000000E-03 0. -1.
        -11    1    3    3    0    0 -0.11312168026E+02  0.27160026243E+00 -0.83093089868E+01  0.14038644103E+02  0.51100000000E-03 0.  1.
         12    1    3    3    0    0  0.48408353470E+01  0.80799504157E+01 -0.11740095696E+02  0.15051549173E+02  0.00000000000E+00 0. -1.
</event>
<event>
 7    1  0.6065977E-013  0.5930193E+02  0.7816164E-02  0.1266605E+00
        -11   -1    0    0    0    0  0.00000000000E+00  0.00000000000E+00  0.45593999997E+02  0.45594000000E+02  0.51100000000E-03 0. -1.
         11   -1    0    0    0    0 -0.00000000000E+00 -0.00000000000E+00 -0.45593999997E+02  0.45594000000E+02  0.51100000000E-03 0.  1.
    9900012    2    1    2    0    0  0.20095076088E+02  0.16939719240E+02  0.18054228533E+02  0.59301931901E+02  0.49999977883E+02 0.  0.
        -12    1    1    2    0    0 -0.20095076088E+02 -0.16939719240E+02 -0.18054228533E+02  0.31886068099E+02  0.00000000000E+00 0.  1.
         11    1    3    3    0    0  0.36964274248E+01 -0.10344944506E+02  0.38622774648E+01  0.11644682907E+02  0.51100000000E-03 0. -1.
        -11    1    3    3    0    0 -0.71174140835E+01  0.13908998461E+02 -0.25660801241E+01  0.15833590524E+02  0.51100000000E-03 0.  1.
         12    1    3    3    0    0  0.23516062747E+02  0.13375665285E+02  0.16758031192E+02  0.31823658469E+02  0.00000000000E+00 0. -1.
</event>
<event>
 7    1  0.6065977E-013  0.5930195E+02  0.7816164E-02  0.1266605E+00
        -11   -1    0    0    0    0  0.00000000000E+00  0.00000000000E+00  0.45593999997E+02  0.45594000000E+02  0.51100000000E-03 0.  1.
         11   -1    0    0    0    0 -0.00000000000E+00 -0.00000000000E+00 -0.45593999997E+02  0.45594000000E+02  0.51100000000E-03 0. -1.
    9900012    2    1    2    0    0  0.19716444791E+02  0.24902779889E+02 -0.27988639935E+01  0.59301948488E+02  0.50000008134E+02 0.  0.
        -12    1    1    2    0    0 -0.19716444791E+02 -0.24902779889E+02  0.27988639935E+01  0.31886051512E+02  0.00000000000E+00 0.  1.
         11    1    3    3    0    0 -0.54793610998E+01  0.70134374699E+00 -0.92878413833E+01  0.10806446175E+02  0.51100000000E-03 0. -1.
        -11    1    3    3    0    0 -0.99514044008E+00  0.19010518771E+02  0.10103456371E+02  0.21551565125E+02  0.51100000000E-03 0.  1.
        -12    1    3    3    0    0  0.26190946331E+02  0.51909173704E+01 -0.36144789811E+01  0.26943937187E+02  0.00000000000E+00 0.  1.
</event>
<event>
 7    1  0.6065977E-013  0.5930194E+02  0.7816164E-02  0.1266605E+00
        -11   -1    0    0    0    0  0.00000000000E+00  0.00000000000E+00  0.45593999997E+02  0.45594000000E+02  0.51100000000E-03 0.  1.
         11   -1    0    0    0    0 -0.00000000000E+00 -0.00000000000E+00 -0.45593999997E+02  0.45594000000E+02  0.51100000000E-03 0. -1.
    9900012    2    1    2    0    0  0.16840853555E+02  0.18587035755E+01 -0.27012069533E+02  0.59301936776E+02  0.49999986775E+02 0.  0.
        -12    1    1    2    0    0 -0.16840853555E+02 -0.18587035755E+01  0.27012069533E+02  0.31886063224E+02  0.00000000000E+00 0.  1.
         11    1    3    3    0    0  0.63898251057E+01  0.60106980280E+01 -0.10053051765E+02  0.13342496232E+02  0.51100000000E-03 0. -1.
        -11    1    3    3    0    0 -0.79715803991E+01 -0.93883168040E+01  0.78595437619E+01  0.14610236647E+02  0.51100000000E-03 0.  1.
        -12    1    3    3    0    0  0.18422608849E+02  0.52363223515E+01 -0.24818561530E+02  0.31349203897E+02  0.00000000000E+00 0.  1.
</event>
<event>
 7    1  0.6065977E-013  0.5930193E+02  0.7816164E-02  0.1266605E+00
        -11   -1    0    0    0    0  0.00000000000E+00  0.00000000000E+00  0.45593999997E+02  0.45594000000E+02  0.51100000000E-03 0. -1.
         11   -1    0    0    0    0 -0.00000000000E+00 -0.00000000000E+00 -0.45593999997E+02  0.45594000000E+02  0.51100000000E-03 0.  1.
    9900012    2    1    2    0    0  0.72376438294E+01  0.30960294862E+02  0.24079008710E+01  0.59301931996E+02  0.49999978057E+02 0.  0.
        -12    1    1    2    0    0 -0.72376438294E+01 -0.30960294862E+02 -0.24079008710E+01  0.31886068004E+02  0.00000000000E+00 0.  1.
         11    1    3    3    0    0  0.13730004935E+02  0.32839177953E+02  0.58426375009E+01  0.36070223971E+02  0.51100000000E-03 0. -1.
        -11    1    3    3    0    0 -0.13339190098E+02  0.12096949737E+01 -0.67765529173E+01  0.15010630370E+02  0.51100000000E-03 0.  1.
        -12    1    3    3    0    0  0.68468289922E+01 -0.30885780640E+01  0.33418162874E+01  0.82210776547E+01  0.00000000000E+00 0.  1.
</event>
<event>
 7    1  0.6065977E-013  0.5930197E+02  0.7816164E-02  0.1266605E+00
        -11   -1    0    0    0    0  0.00000000000E+00  0.00000000000E+00  0.45593999997E+02  0.45594000000E+02  0.51100000000E-03 0.  1.
         11   -1    0    0    0    0 -0.00000000000E+00 -0.00000000000E+00 -0.45593999997E+02  0.45594000000E+02  0.51100000000E-03 0. -1.
    9900012    2    1    2    0    0  0.28168160540E+02 -0.11543302787E+02 -0.94882078701E+01  0.59301965502E+02  0.50000039164E+02 0.  0.
        -12    1    1    2    0    0 -0.28168160540E+02  0.11543302787E+02  0.94882078701E+01  0.31886034498E+02  0.00000000000E+00 0.  1.
         11    1    3    3    0    0  0.35597714563E+02 -0.15107803167E+02 -0.13623362914E+02  0.41000475802E+02  0.51100000000E-03 0. -1.
        -11    1    3    3    0    0 -0.32078804345E+00  0.67512034345E+01  0.72497128879E+01  0.99116088503E+01  0.51100000000E-03 0.  1.
        -12    1    3    3    0    0 -0.71087659796E+01 -0.31867030538E+01 -0.31145578440E+01  0.83898808495E+01  0.00000000000E+00 0.  1.
</event>
<event>
 7    1  0.6065977E-013  0.5930194E+02  0.7816164E-02  0.1266605E+00
        -11   -1    0    0    0    0  0.00000000000E+00  0.00000000000E+00  0.45593999997E+02  0.45594000000E+02  0.51100000000E-03 0.  1.
         11   -1    0    0    0    0 -0.00000000000E+00 -0.00000000000E+00 -0.45593999997E+02  0.45594000000E+02  0.51100000000E-03 0. -1.
    9900012    2    1    2    0    0  0.27605408682E+02 -0.26114986498E+01 -0.15742999461E+02  0.59301944337E+02  0.50000000563E+02 0.  0.
        -12    1    1    2    0    0 -0.27605408682E+02  0.26114986498E+01  0.15742999461E+02  0.31886055663E+02  0.00000000000E+00 0.  1.
         11    1    3    3    0    0 -0.87827726840E+01 -0.47176559263E+01 -0.98386677936E+01  0.14006882511E+02  0.51100000000E-03 0. -1.
        -11    1    3    3    0    0  0.17564156719E+02  0.69602830610E+01  0.88763613156E+01  0.20874264826E+02  0.51100000000E-03 0.  1.
        -12    1    3    3    0    0  0.18824024647E+02 -0.48541257844E+01 -0.14780692983E+02  0.24420797000E+02  0.00000000000E+00 0.  1.
</event>
<event>
 7    1  0.6065977E-013  0.5930195E+02  0.7816164E-02  0.1266605E+00
        -11   -1    0    0    0    0  0.00000000000E+00  0.00000000000E+00  0.45593999997E+02  0.45594000000E+02  0.51100000000E-03 0. -1.
         11   -1    0    0    0    0 -0.00000000000E+00 -0.00000000000E+00 -0.45593999997E+02  0.45594000000E+02  0.51100000000E-03 0.  1.
    9900012    2    1    2    0    0 -0.26025282573E+02 -0.18417764294E+02 -0.43695296590E+00  0.59301948152E+02  0.50000007521E+02 0.  0.
        -12    1    1    2    0    0  0.26025282573E+02  0.18417764294E+02  0.43695296590E+00  0.31886051848E+02  0.00000000000E+00 0.  1.
         11    1    3    3    0    0  0.35281007755E+01  0.35575956051E+01  0.48188925247E+01  0.69516693677E+01  0.51100000000E-03 0. -1.
        -11    1    3    3    0    0 -0.15090169408E+02 -0.27725598167E+02  0.72454450009E+01  0.32387010977E+02  0.51100000000E-03 0.  1.
        -12    1    3    3    0    0 -0.14463213940E+02  0.57502382678E+01 -0.12501290492E+02  0.19963267808E+02  0.00000000000E+00 0.  1.
</event>
<event>
 7    1  0.6065977E-013  0.5930196E+02  0.7816164E-02  0.1266605E+00
        -11   -1    0    0    0    0  0.00000000000E+00  0.00000000000E+00  0.45593999997E+02  0.45594000000E+02  0.51100000000E-03 0. -1.
         11   -1    0    0    0    0 -0.00000000000E+00 -0.00000000000E+00 -0.45593999997E+02  0.45594000000E+02  0.51100000000E-03 0.  1.
    9900012    2    1    2    0    0  0.28236397849E+02 -0.12630918712E+02  0.77385620364E+01  0.59301958958E+02  0.50000027228E+02 0.  0.
        -12    1    1    2    0    0 -0.28236397849E+02  0.12630918712E+02 -0.77385620364E+01  0.31886041042E+02  0.00000000000E+00 0.  1.
         11    1    3    3    0    0 -0.36540704793E+00  0.13992369778E+02 -0.47691397098E+01  0.14787313080E+02  0.51100000000E-03 0. -1.
        -11    1    3    3    0    0  0.16506105035E+02 -0.15347879307E+02 -0.18505166986E+01  0.22614891443E+02  0.51100000000E-03 0.  1.
         12    1    3    3    0    0  0.12095699861E+02 -0.11275409183E+02  0.14358218445E+02  0.21899754434E+02  0.00000000000E+00 0. -1.
</event>
<event>
 7    1  0.6065977E-013  0.5930190E+02  0.7816164E-02  0.1266605E+00
        -11   -1    0    0    0    0  0.00000000000E+00  0.00000000000E+00  0.45593999997E+02  0.45594000000E+02  0.51100000000E-03 0. -1.
         11   -1    0    0    0    0 -0.00000000000E+00 -0.00000000000E+00 -0.45593999997E+02  0.45594000000E+02  0.51100000000E-03 0.  1.
    9900012    2    1    2    0    0 -0.65799374103E+01 -0.20269005016E+02  0.23719091476E+02  0.59301898935E+02  0.49999917762E+02 0.  0.
        -12    1    1    2    0    0  0.65799374103E+01  0.20269005016E+02 -0.23719091476E+02  0.31886101065E+02  0.00000000000E+00 0.  1.
         11    1    3    3    0    0  0.27956797920E+01 -0.29923444571E+02  0.45409686975E+00  0.30057188237E+02  0.51100000000E-03 0. -1.
        -11    1    3    3    0    0 -0.31224483916E+01  0.70015324619E+01  0.20543247732E+02  0.21927064747E+02  0.51100000000E-03 0.  1.
         12    1    3    3    0    0 -0.62531688107E+01  0.26529070932E+01  0.27217468749E+01  0.73176459515E+01  0.00000000000E+00 0. -1.
</event>
<event>
 7    1  0.6065977E-013  0.5930193E+02  0.7816164E-02  0.1266605E+00
        -11   -1    0    0    0    0  0.00000000000E+00  0.00000000000E+00  0.45593999997E+02  0.45594000000E+02  0.51100000000E-03 0.  1.
         11   -1    0    0    0    0 -0.00000000000E+00 -0.00000000000E+00 -0.45593999997E+02  0.45594000000E+02  0.51100000000E-03 0. -1.
    9900012    2    1    2    0    0  0.26460277469E+02  0.61274520594E+00 -0.17782008128E+02  0.59301928534E+02  0.49999971744E+02 0.  0.
        -12    1    1    2    0    0 -0.26460277469E+02 -0.61274520594E+00  0.17782008128E+02  0.31886071466E+02  0.00000000000E+00 0.  1.
         11    1    3    3    0    0  0.13504886891E+02  0.56467215699E+01 -0.29958436581E+02  0.33343295534E+02  0.51100000000E-03 0. -1.
        -11    1    3    3    0    0  0.14594804989E+02  0.30019464176E+00  0.25316443452E+01  0.14815791333E+02  0.51100000000E-03 0.  1.
         12    1    3    3    0    0 -0.16394144108E+01 -0.53341710057E+01  0.96447841077E+01  0.11142841667E+02  0.00000000000E+00 0. -1.
</event>
<event>
 7    1  0.6065977E-013  0.5930192E+02  0.7816164E-02  0.1266605E+00
        -11   -1    0    0    0    0  0.00000000000E+00  0.00000000000E+00  0.45593999997E+02  0.45594000000E+02  0.51100000000E-03 0.  1.
         11   -1    0    0    0    0 -0.00000000000E+00 -0.00000000000E+00 -0.45593999997E+02  0.45594000000E+02  0.51100000000E-03 0. -1.
    9900012    2    1    2    0    0 -0.18398095849E+02  0.15280701990E+02 -0.21088676266E+02  0.59301920736E+02  0.49999957521E+02 0.  0.
        -12    1    1    2    0    0  0.18398095849E+02 -0.15280701990E+02  0.21088676266E+02  0.31886079264E+02  0.00000000000E+00 0.  1.
         11    1    3    3    0    0  0.28360180474E+01  0.85497469966E+01 -0.66639017223E+01  0.11204854238E+02  0.51100000000E-03 0. -1.
        -11    1    3    3    0    0 -0.95483805579E+01 -0.50620314987E+01  0.12463357147E+02  0.16496393721E+02  0.51100000000E-03 0.  1.
        -12    1    3    3    0    0 -0.11685733338E+02  0.11792986492E+02 -0.26888131691E+02  0.31600672776E+02  0.00000000000E+00 0.  1.
</event>
<event>
 7    1  0.6065977E-013  0.5930196E+02  0.7816164E-02  0.1266605E+00
        -11   -1    0    0    0    0  0.00000000000E+00  0.00000000000E+00  0.45593999997E+02  0.45594000000E+02  0.51100000000E-03 0.  1.
         11   -1    0    0    0    0 -0.00000000000E+00 -0.00000000000E+00 -0.45593999997E+02  0.45594000000E+02  0.51100000000E-03 0. -1.
    9900012    2    1    2    0    0  0.12612479752E+01  0.21743806507E+02 -0.23288095976E+02  0.59301964153E+02  0.50000036703E+02 0.  0.
        -12    1    1    2    0    0 -0.12612479752E+01 -0.21743806507E+02  0.23288095976E+02  0.31886035847E+02  0.00000000000E+00 0.  1.
         11    1    3    3    0    0  0.91085791826E+00 -0.13974766587E+01 -0.10077101785E+02  0.10214234372E+02  0.51100000000E-03 0. -1.
        -11    1    3    3    0    0  0.16505119431E+02  0.11644442202E+02  0.64106539143E+01  0.21192179819E+02  0.51100000000E-03 0.  1.
        -12    1    3    3    0    0 -0.16154729374E+02  0.11496840963E+02 -0.19621648105E+02  0.27895549961E+02  0.00000000000E+00 0.  1.
</event>
<event>
 7    1  0.6065977E-013  0.5930197E+02  0.7816164E-02  0.1266605E+00
        -11   -1    0    0    0    0  0.00000000000E+00  0.00000000000E+00  0.45593999997E+02  0.45594000000E+02  0.51100000000E-03 0.  1.
         11   -1    0    0    0    0 -0.00000000000E+00 -0.00000000000E+00 -0.45593999997E+02  0.45594000000E+02  0.51100000000E-03 0. -1.
    9900012    2    1    2    0    0 -0.44499025544E+01  0.28178556638E+02 -0.14243809321E+02  0.59301971854E+02  0.50000050748E+02 0.  0.
        -12    1    1    2    0    0  0.44499025544E+01 -0.28178556638E+02  0.14243809321E+02  0.31886028146E+02  0.00000000000E+00 0.  1.
         11    1    3    3    0    0 -0.22759505985E+02  0.12344677650E+01 -0.68748661253E+01  0.23807200756E+02  0.51100000000E-03 0. -1.
        -11    1    3    3    0    0  0.16535472454E+02  0.22027226424E+02 -0.10413146363E+02  0.29445783580E+02  0.51100000000E-03 0.  1.
        -12    1    3    3    0    0  0.17741309760E+01  0.49168624492E+01  0.30442031669E+01  0.60489875174E+01  0.00000000000E+00 0.  1.
</event>
<event>
 7    1  0.6065977E-013  0.5930194E+02  0.7816164E-02  0.1266605E+00
        -11   -1    0    0    0    0  0.00000000000E+00  0.00000000000E+00  0.45593999997E+02  0.45594000000E+02  0.51100000000E-03 0.  1.
         11   -1    0    0    0    0 -0.00000000000E+00 -0.00000000000E+00 -0.45593999997E+02  0.45594000000E+02  0.51100000000E-03 0. -1.
    9900012    2    1    2    0    0  0.23671554159E+02  0.35848572869E+01 -0.21060076835E+02  0.59301944828E+02  0.50000001460E+02 0.  0.
        -12    1    1    2    0    0 -0.23671554159E+02 -0.35848572869E+01  0.21060076835E+02  0.31886055172E+02  0.00000000000E+00 0.  1.
         11    1    3    3    0    0  0.12073369074E+02  0.21868995906E+02  0.22682084502E+01  0.25083141600E+02  0.51100000000E-03 0. -1.
        -11    1    3    3    0    0  0.70033893989E+00 -0.80572835911E+01 -0.22771870231E+01  0.84021351154E+01  0.51100000000E-03 0.  1.
         12    1    3    3    0    0  0.10897846146E+02 -0.10226855028E+02 -0.21051098262E+02  0.25816668113E+02  0.00000000000E+00 0. -1.
</event>
<event>
 7    1  0.6065977E-013  0.5930195E+02  0.7816164E-02  0.1266605E+00
        -11   -1    0    0    0    0  0.00000000000E+00  0.00000000000E+00  0.45593999997E+02  0.45594000000E+02  0.51100000000E-03 0. -1.
         11   -1    0    0    0    0 -0.00000000000E+00 -0.00000000000E+00 -0.45593999997E+02  0.45594000000E+02  0.51100000000E-03 0.  1.
    9900012    2    1    2    0    0  0.70889982555E+01 -0.16378465524E+02  0.26423698440E+02  0.59301954958E+02  0.50000019934E+02 0.  0.
        -12    1    1    2    0    0 -0.70889982555E+01  0.16378465524E+02 -0.26423698440E+02  0.31886045042E+02  0.00000000000E+00 0.  1.
         11    1    3    3    0    0  0.70902032072E+01 -0.16433231732E+02  0.31031519124E+01  0.18164570975E+02  0.51100000000E-03 0. -1.
        -11    1    3    3    0    0 -0.10803084139E+02 -0.44476178681E+01  0.26542021944E+02  0.28999428628E+02  0.51100000000E-03 0.  1.
        -12    1    3    3    0    0  0.10801879187E+02  0.45023840758E+01 -0.32214754161E+01  0.12137955355E+02  0.00000000000E+00 0.  1.
</event>
<event>
 7    1  0.6065977E-013  0.5930184E+02  0.7816164E-02  0.1266605E+00
        -11   -1    0    0    0    0  0.00000000000E+00  0.00000000000E+00  0.45593999997E+02  0.45594000000E+02  0.51100000000E-03 0. -1.
         11   -1    0    0    0    0 -0.00000000000E+00 -0.00000000000E+00 -0.45593999997E+02  0.45594000000E+02  0.51100000000E-03 0.  1.
    9900012    2    1    2    0    0  0.20078659206E+02 -0.42307571589E+01  0.24406462985E+02  0.59301838470E+02  0.49999807488E+02 0.  0.
        -12    1    1    2    0    0 -0.20078659206E+02  0.42307571589E+01 -0.24406462985E+02  0.31886161530E+02  0.00000000000E+00 0.  1.
         11    1    3    3    0    0  0.25311980363E+02 -0.18768779063E+02  0.16493114030E+02  0.35566644881E+02  0.51100000000E-03 0. -1.
        -11    1    3    3    0    0 -0.79617962466E+01  0.99292405138E+00  0.46170195824E+00  0.80367447766E+01  0.51100000000E-03 0.  1.
        -12    1    3    3    0    0  0.27284750904E+01  0.13545097853E+02  0.74516469970E+01  0.15698448813E+02  0.00000000000E+00 0.  1.
</event>
<event>
 7    1  0.6065977E-013  0.5930193E+02  0.7816164E-02  0.1266605E+00
        -11   -1    0    0    0    0  0.00000000000E+00  0.00000000000E+00  0.45593999997E+02  0.45594000000E+02  0.51100000000E-03 0.  1.
         11   -1    0    0    0    0 -0.00000000000E+00 -0.00000000000E+00 -0.45593999997E+02  0.45594000000E+02  0.51100000000E-03 0. -1.
    9900012    2    1    2    0    0  0.19142510787E+01 -0.18538442141E+02 -0.25872447523E+02  0.59301925688E+02  0.49999966552E+02 0.  0.
        -12    1    1    2    0    0 -0.19142510787E+01  0.18538442141E+02  0.25872447523E+02  0.31886074312E+02  0.00000000000E+00 0.  1.
         11    1    3    3    0    0  0.13317297004E+02  0.90534857444E+01 -0.12929355780E+02  0.20651494976E+02  0.51100000000E-03 0. -1.
        -11    1    3    3    0    0 -0.13040270754E+02 -0.23574731391E+02 -0.21599696601E+01  0.27027432188E+02  0.51100000000E-03 0.  1.
        -12    1    3    3    0    0  0.16372248284E+01 -0.40171964950E+01 -0.10783122083E+02  0.11622998523E+02  0.00000000000E+00 0.  1.
</event>
<event>
 7    1  0.6065977E-013  0.5930195E+02  0.7816164E-02  0.1266605E+00
        -11   -1    0    0    0    0  0.00000000000E+00  0.00000000000E+00  0.45593999997E+02  0.45594000000E+02  0.51100000000E-03 0.  1.
         11   -1    0    0    0    0 -0.00000000000E+00 -0.00000000000E+00 -0.45593999997E+02  0.45594000000E+02  0.51100000000E-03 0. -1.
    9900012    2    1    2    0    0 -0.84449242513E+01  0.28385624095E+02 -0.11817761938E+02  0.59301954493E+02  0.50000019085E+02 0.  0.
        -12    1    1    2    0    0  0.84449242513E+01 -0.28385624095E+02  0.11817761938E+02  0.31886045507E+02  0.00000000000E+00 0.  1.
         11    1    3    3    0    0 -0.36834069718E+01  0.28018599623E+01 -0.77172723399E+01  0.89985664857E+01  0.51100000000E-03 0. -1.
        -11    1    3    3    0    0  0.95879416866E+01  0.19318953340E+02  0.14501277481E+02  0.25989182996E+02  0.51100000000E-03 0.  1.
        -12    1    3    3    0    0 -0.14349458966E+02  0.62648107931E+01 -0.18601767078E+02  0.24314205011E+02  0.00000000000E+00 0.  1.
</event>
<event>
 7    1  0.6065977E-013  0.5930194E+02  0.7816164E-02  0.1266605E+00
        -11   -1    0    0    0    0  0.00000000000E+00  0.00000000000E+00  0.45593999997E+02  0.45594000000E+02  0.51100000000E-03 0. -1.
         11   -1    0    0    0    0 -0.00000000000E+00 -0.00000000000E+00 -0.45593999997E+02  0.45594000000E+02  0.51100000000E-03 0.  1.
    9900012    2    1    2    0    0  0.90683683097E+01  0.21577663375E+02  0.21653869599E+02  0.59301938325E+02  0.49999989599E+02 0.  0.
        -12    1    1    2    0    0 -0.90683683097E+01 -0.21577663375E+02 -0.21653869599E+02  0.31886061675E+02  0.00000000000E+00 0.  1.
         11    1    3    3    0    0  0.23241759717E+02  0.17212680532E+02  0.15575924964E+02  0.32849127912E+02  0.51100000000E-03 0. -1.
        -11    1    3    3    0    0 -0.14125530950E+01  0.56472910646E+01 -0.63356848794E+01  0.86039587264E+01  0.51100000000E-03 0.  1.
         12    1    3    3    0    0 -0.12760838312E+02 -0.12823082216E+01  0.12413629515E+02  0.17848851687E+02  0.00000000000E+00 0. -1.
</event>
<event>
 7    1  0.6065977E-013  0.5930197E+02  0.7816164E-02  0.1266605E+00
        -11   -1    0    0    0    0  0.00000000000E+00  0.00000000000E+00  0.45593999997E+02  0.45594000000E+02  0.51100000000E-03 0.  1.
         11   -1    0    0    0    0 -0.00000000000E+00 -0.00000000000E+00 -0.45593999997E+02  0.45594000000E+02  0.51100000000E-03 0. -1.
    9900012    2    1    2    0    0 -0.40484266785E+01 -0.12760403020E+02 -0.28939612631E+02  0.59301971350E+02  0.50000049829E+02 0.  0.
        -12    1    1    2    0    0  0.40484266785E+01  0.12760403020E+02  0.28939612631E+02  0.31886028650E+02  0.00000000000E+00 0.  1.
         11    1    3    3    0    0 -0.15843550942E+02 -0.70901133753E+01 -0.17430136011E+02  0.24598728742E+02  0.51100000000E-03 0. -1.
        -11    1    3    3    0    0  0.14253774984E+02  0.94068795534E+01 -0.34195110769E+01  0.17417018703E+02  0.51100000000E-03 0.  1.
         12    1    3    3    0    0 -0.24586507207E+01 -0.15077169199E+02 -0.80899655435E+01  0.17286223905E+02  0.00000000000E+00 0. -1.
</event>
<event>
 7    1  0.6065977E-013  0.5930193E+02  0.7816164E-02  0.1266605E+00
        -11   -1    0    0    0    0  0.00000000000E+00  0.00000000000E+00  0.45593999997E+02  0.45594000000E+02  0.51100000000E-03 0. -1.
         11   -1    0    0    0    0 -0.00000000000E+00 -0.00000000000E+00 -0.45593999997E+02  0.45594000000E+02  0.51100000000E-03 0.  1.
    9900012    2    1    2    0    0 -0.23631167569E+02 -0.12825012598E+02  0.17140838623E+02  0.59301931294E+02  0.49999976777E+02 0.  0.
        -12    1    1    2    0    0  0.23631167569E+02  0.12825012598E+02 -0.17140838623E+02  0.31886068706E+02  0.00000000000E+00 0.  1.
         11    1    3    3    0    0 -0.95185357294E+01 -0.29136774954E+02  0.15215123740E+02  0.34220668723E+02  0.51100000000E-03 0. -1.
        -11    1    3    3    0    0 -0.10885289114E+02  0.32345506102E+01  0.23867437043E+01  0.11603808966E+02  0.51100000000E-03 0.  1.
         12    1    3    3    0    0 -0.32273427257E+01  0.13077211746E+02 -0.46102882163E+00  0.13477453605E+02  0.00000000000E+00 0. -1.
</event>
<event>
 7    1  0.6065977E-013  0.5930196E+02  0.7816164E-02  0.1266605E+00
        -11   -1    0    0    0    0  0.00000000000E+00  0.00000000000E+00  0.45593999997E+02  0.45594000000E+02  0.51100000000E-03 0.  1.
         11   -1    0    0    0    0 -0.00000000000E+00 -0.00000000000E+00 -0.45593999997E+02  0.45594000000E+02  0.51100000000E-03 0. -1.
    9900012    2    1    2    0    0 -0.21569424881E+02  0.16032553499E+02 -0.17159148429E+02  0.59301964872E+02  0.50000038015E+02 0.  0.
        -12    1    1    2    0    0  0.21569424881E+02 -0.16032553499E+02  0.17159148429E+02  0.31886035128E+02  0.00000000000E+00 0.  1.
         11    1    3    3    0    0  0.12733923209E+02 -0.66941340475E+01 -0.89521745086E+01  0.16944192504E+02  0.51100000000E-03 0. -1.
        -11    1    3    3    0    0 -0.12839952832E+02  0.10131331679E+02 -0.72708741774E+00  0.16371833333E+02  0.51100000000E-03 0.  1.
         12    1    3    3    0    0 -0.21463395257E+02  0.12595355868E+02 -0.74798865026E+01  0.25985939034E+02  0.00000000000E+00 0. -1.
</event>
<event>
 7    1  0.6065977E-013  0.5930196E+02  0.7816164E-02  0.1266605E+00
        -11   -1    0    0    0    0  0.00000000000E+00  0.00000000000E+00  0.45593999997E+02  0.45594000000E+02  0.51100000000E-03 0.  1.
         11   -1    0    0    0    0 -0.00000000000E+00 -0.00000000000E+00 -0.45593999997E+02  0.45594000000E+02  0.51100000000E-03 0. -1.
    9900012    2    1    2    0    0 -0.26172094586E+02  0.16648069663E+02  0.73880204797E+01  0.59301959087E+02  0.50000027464E+02 0.  0.
        -12    1    1    2    0    0  0.26172094586E+02 -0.16648069663E+02 -0.73880204797E+01  0.31886040913E+02  0.00000000000E+00 0.  1.
         11    1    3    3    0    0 -0.23049433918E+02 -0.47275526975E-01  0.19824007358E+02  0.30401807626E+02  0.51100000000E-03 0. -1.
        -11    1    3    3    0    0  0.24425426121E+01  0.15351367251E+02 -0.37464558432E+00  0.15548982297E+02  0.51100000000E-03 0.  1.
        -12    1    3    3    0    0 -0.55652032797E+01  0.13439779385E+01 -0.12061341294E+02  0.13351169164E+02  0.00000000000E+00 0.  1.
</event>
<event>
 7    1  0.6065977E-013  0.5930195E+02  0.7816164E-02  0.1266605E+00
        -11   -1    0    0    0    0  0.00000000000E+00  0.00000000000E+00  0.45593999997E+02  0.45594000000E+02  0.51100000000E-03 0.  1.
         11   -1    0    0    0    0 -0.00000000000E+00 -0.00000000000E+00 -0.45593999997E+02  0.45594000000E+02  0.51100000000E-03 0. -1.
    9900012    2    1    2    0    0 -0.13003509725E+02 -0.16283773687E+02 -0.24134367235E+02  0.59301949249E+02  0.50000009522E+02 0.  0.
        -12    1    1    2    0    0  0.13003509725E+02  0.16283773687E+02  0.24134367235E+02  0.31886050751E+02  0.00000000000E+00 0.  1.
         11    1    3    3    0    0 -0.18519086871E+02 -0.25452876942E+02 -0.44535487518E+01  0.31790558660E+02  0.51100000000E-03 0. -1.
        -11    1    3    3    0    0  0.35281412186E+01  0.50180996967E+01  0.10956159130E+01  0.62313304770E+01  0.51100000000E-03 0.  1.
         12    1    3    3    0    0  0.19874359282E+01  0.41510035590E+01 -0.20776434397E+02  0.21280060112E+02  0.00000000000E+00 0. -1.
</event>
<event>
 7    1  0.6065977E-013  0.5930195E+02  0.7816164E-02  0.1266605E+00
        -11   -1    0    0    0    0  0.00000000000E+00  0.00000000000E+00  0.45593999997E+02  0.45594000000E+02  0.51100000000E-03 0. -1.
         11   -1    0    0    0    0 -0.00000000000E+00 -0.00000000000E+00 -0.45593999997E+02  0.45594000000E+02  0.51100000000E-03 0.  1.
    9900012    2    1    2    0    0  0.14181608321E+02  0.27817224934E+02 -0.64655979687E+01  0.59301953292E+02  0.50000016895E+02 0.  0.
        -12    1    1    2    0    0 -0.14181608321E+02 -0.27817224934E+02  0.64655979687E+01  0.31886046708E+02  0.00000000000E+00 0.  1.
         11    1    3    3    0    0  0.20993279986E+02  0.21078971364E+02  0.41694899719E+01  0.30040397555E+02  0.51100000000E-03 0. -1.
        -11    1    3    3    0    0 -0.87165773163E+01  0.12362971046E+02 -0.15445550558E+02  0.21619130545E+02  0.51100000000E-03 0.  1.
         12    1    3    3    0    0  0.19049056510E+01 -0.56247174762E+01  0.48104626179E+01  0.76424251925E+01  0.00000000000E+00 0. -1.
</event>
<event>
 7    1  0.6065977E-013  0.5930194E+02  0.7816164E-02  0.1266605E+00
        -11   -1    0    0    0    0  0.00000000000E+00  0.00000000000E+00  0.45593999997E+02  0.45594000000E+02  0.51100000000E-03 0.  1.
         11   -1    0    0    0    0 -0.00000000000E+00 -0.00000000000E+00 -0.45593999997E+02  0.45594000000E+02  0.51100000000E-03 0. -1.
    9900012    2    1    2    0    0  0.13064448635E+02  0.16429496136E+02 -0.24002341886E+02  0.59301943840E+02  0.49999999658E+02 0.  0.
        -12    1    1    2    0    0 -0.13064448635E+02 -0.16429496136E+02  0.24002341886E+02  0.31886056160E+02  0.00000000000E+00 0.  1.
         11    1    3    3    0    0  0.16962731255E+02  0.12560252356E+02 -0.23597214618E+02  0.31659480869E+02  0.51100000000E-03 0. -1.
        -11    1    3    3    0    0 -0.48812393653E+01 -0.11359777657E+02 -0.62926963318E+00  0.12380106086E+02  0.51100000000E-03 0.  1.
        -12    1    3    3    0    0  0.98295674516E+00  0.15229021437E+02  0.22414236511E+00  0.15262356885E+02  0.00000000000E+00 0.  1.
</event>
<event>
 7    1  0.6065977E-013  0.5930195E+02  0.7816164E-02  0.1266605E+00
        -11   -1    0    0    0    0  0.00000000000E+00  0.00000000000E+00  0.45593999997E+02  0.45594000000E+02  0.51100000000E-03 0. -1.
         11   -1    0    0    0    0 -0.00000000000E+00 -0.00000000000E+00 -0.45593999997E+02  0.45594000000E+02  0.51100000000E-03 0.  1.
    9900012    2    1    2    0    0 -0.20247618738E+02  0.32246538431E+01  0.24420396398E+02  0.59301949489E+02  0.50000009960E+02 0.  0.
        -12    1    1    2    0    0  0.20247618738E+02 -0.32246538431E+01 -0.24420396398E+02  0.31886050511E+02  0.00000000000E+00 0.  1.
         11    1    3    3    0    0 -0.30315382978E+02  0.10364148720E+02  0.13735083610E+02  0.34858148916E+02  0.51100000000E-03 0. -1.
        -11    1    3    3    0    0  0.11590160540E+02 -0.39527718128E+01 -0.95178500529E+00  0.12282594241E+02  0.51100000000E-03 0.  1.
        -12    1    3    3    0    0 -0.15223962991E+01 -0.31867230642E+01  0.11637097794E+02  0.12161206332E+02  0.00000000000E+00 0.  1.
</event>
<event>
 7    1  0.6065977E-013  0.5930194E+02  0.7816164E-02  0.1266605E+00
        -11   -1    0    0    0    0  0.00000000000E+00  0.00000000000E+00  0.45593999997E+02  0.45594000000E+02  0.51100000000E-03 0.  1.
         11   -1    0    0    0    0 -0.00000000000E+00 -0.00000000000E+00 -0.45593999997E+02  0.45594000000E+02  0.51100000000E-03 0. -1.
    9900012    2    1    2    0    0 -0.11345299125E+02 -0.14520154949E+02 -0.26022492703E+02  0.59301939747E+02  0.49999992193E+02 0.  0.
        -12    1    1    2    0    0  0.11345299125E+02  0.14520154949E+02  0.26022492703E+02  0.31886060253E+02  0.00000000000E+00 0.  1.
         11    1    3    3    0    0  0.34718761326E+01 -0.26099794335E+02 -0.16158781230E+02  0.30892707866E+02  0.51100000000E-03 0. -1.
        -11    1    3    3    0    0 -0.24118870547E+01  0.83183854048E+01 -0.12604050751E+02  0.15292966700E+02  0.51100000000E-03 0.  1.
         12    1    3    3    0    0 -0.12405288203E+02  0.32612539813E+01  0.27403392775E+01  0.13116265181E+02  0.00000000000E+00 0. -1.
</event>
<event>
 7    1  0.6065977E-013  0.5930196E+02  0.7816164E-02  0.1266605E+00
        -11   -1    0    0    0    0  0.00000000000E+00  0.00000000000E+00  0.45593999997E+02  0.45594000000E+02  0.51100000000E-03 0.  1.
         11   -1    0    0    0    0 -0.00000000000E+00 -0.00000000000E+00 -0.45593999997E+02  0.45594000000E+02  0.51100000000E-03 0. -1.
    9900012    2    1    2    0    0 -0.13142124643E+02 -0.28422450411E+02 -0.60140021126E+01  0.59301963104E+02  0.50000034790E+02 0.  0.
        -12    1    1    2    0    0  0.13142124643E+02  0.28422450411E+02  0.60140021126E+01  0.31886036896E+02  0.00000000000E+00 0.  1.
         11    1    3    3    0    0 -0.21429374505E+02 -0.20127257563E+02 -0.27394701187E+01  0.29526755418E+02  0.51100000000E-03 0. -1.
        -11    1    3    3    0    0  0.17170859462E+02 -0.39705456880E+01 -0.73397500555E+01  0.19091243513E+02  0.51100000000E-03 0.  1.
        -12    1    3    3    0    0 -0.88836095996E+01 -0.43246471604E+01  0.40652180615E+01  0.10683964174E+02  0.00000000000E+00 0.  1.
</event>
<event>
 7    1  0.6065977E-013  0.5930192E+02  0.7816164E-02  0.1266605E+00
        -11   -1    0    0    0    0  0.00000000000E+00  0.00000000000E+00  0.45593999997E+02  0.45594000000E+02  0.51100000000E-03 0.  1.
         11   -1    0    0    0    0 -0.00000000000E+00 -0.00000000000E+00 -0.45593999997E+02  0.45594000000E+02  0.51100000000E-03 0. -1.
    9900012    2    1    2    0    0  0.22301233269E+02 -0.14941832021E+02 -0.17208097569E+02  0.59301921982E+02  0.49999959793E+02 0.  0.
        -12    1    1    2    0    0 -0.22301233269E+02  0.14941832021E+02  0.17208097569E+02  0.31886078018E+02  0.00000000000E+00 0.  1.
         11    1    3    3    0    0  0.56332812150E+01  0.12192933718E+02  0.14685578430E+01  0.13511408228E+02  0.51100000000E-03 0. -1.
        -11    1    3    3    0    0  0.10735062784E+02 -0.10889820251E+02 -0.23317416860E+02  0.27884255188E+02  0.51100000000E-03 0.  1.
        -12    1    3    3    0    0  0.59328892700E+01 -0.16244945488E+02  0.46407614485E+01  0.17906258566E+02  0.00000000000E+00 0.  1.
</event>
<event>
 7    1  0.6065977E-013  0.5930193E+02  0.7816164E-02  0.1266605E+00
        -11   -1    0    0    0    0  0.00000000000E+00  0.00000000000E+00  0.45593999997E+02  0.45594000000E+02  0.51100000000E-03 0. -1.
         11   -1    0    0    0    0 -0.00000000000E+00 -0.00000000000E+00 -0.45593999997E+02  0.45594000000E+02  0.51100000000E-03 0.  1.
    9900012    2    1    2    0    0  0.15515467797E+02  0.26980171137E+02  0.69326691563E+01  0.59301932867E+02  0.49999979646E+02 0.  0.
        -12    1    1    2    0    0 -0.15515467797E+02 -0.26980171137E+02 -0.69326691563E+01  0.31886067133E+02  0.00000000000E+00 0.  1.
         11    1    3    3    0    0  0.21214089045E+02 -0.10829853749E+01  0.67328371038E+01  0.22283211776E+02  0.51100000000E-03 0.  1.
        -11    1    3    3    0    0  0.51061343025E+01  0.20559720949E+02  0.68689722512E+01  0.22270103571E+02  0.51100000000E-03 0. -1.
         12    1    3    3    0    0 -0.10804755550E+02  0.75034355638E+01 -0.66691401987E+01  0.14748617520E+02  0.00000000000E+00 0. -1.
</event>
<event>
 7    1  0.6065977E-013  0.5930194E+02  0.7816164E-02  0.1266605E+00
        -11   -1    0    0    0    0  0.00000000000E+00  0.00000000000E+00  0.45593999997E+02  0.45594000000E+02  0.51100000000E-03 0. -1.
         11   -1    0    0    0    0 -0.00000000000E+00 -0.00000000000E+00 -0.45593999997E+02  0.45594000000E+02  0.51100000000E-03 0.  1.
    9900012    2    1    2    0    0 -0.27113722933E+02 -0.15192115422E+02  0.71250400687E+01  0.59301944454E+02  0.50000000778E+02 0.  0.
        -12    1    1    2    0    0  0.27113722933E+02  0.15192115422E+02 -0.71250400687E+01  0.31886055546E+02  0.00000000000E+00 0.  1.
         11    1    3    3    0    0  0.77653744382E+01  0.59339238068E+01 -0.33878742975E+01  0.10343605968E+02  0.51100000000E-03 0. -1.
        -11    1    3    3    0    0 -0.23718960569E+02 -0.23992716639E+02  0.14560426087E+02  0.36745687506E+02  0.51100000000E-03 0.  1.
        -12    1    3    3    0    0 -0.11160136802E+02  0.28666774109E+01 -0.40475117207E+01  0.12212650980E+02  0.00000000000E+00 0.  1.
</event>
<event>
 7    1  0.6065977E-013  0.5930201E+02  0.7816164E-02  0.1266605E+00
        -11   -1    0    0    0    0  0.00000000000E+00  0.00000000000E+00  0.45593999997E+02  0.45594000000E+02  0.51100000000E-03 0.  1.
         11   -1    0    0    0    0 -0.00000000000E+00 -0.00000000000E+00 -0.45593999997E+02  0.45594000000E+02  0.51100000000E-03 0. -1.
    9900012    2    1    2    0    0  0.23480833288E+01  0.20951557510E+02 -0.23921439622E+02  0.59302007291E+02  0.50000115377E+02 0.  0.
        -12    1    1    2    0    0 -0.23480833288E+01 -0.20951557510E+02  0.23921439622E+02  0.31885992709E+02  0.00000000000E+00 0.  1.
         11    1    3    3    0    0 -0.71561766496E+01  0.21106209386E+01 -0.22123914204E+02  0.23348086965E+02  0.51100000000E-03 0. -1.
        -11    1    3    3    0    0  0.19729233895E+02  0.11476629130E+02  0.16674691792E+01  0.22885282170E+02  0.51100000000E-03 0.  1.
        -12    1    3    3    0    0 -0.10224973917E+02  0.73643074421E+01 -0.34649945978E+01  0.13068638156E+02  0.00000000000E+00 0.  1.
</event>
<event>
 7    1  0.6065977E-013  0.5930197E+02  0.7816164E-02  0.1266605E+00
        -11   -1    0    0    0    0  0.00000000000E+00  0.00000000000E+00  0.45593999997E+02  0.45594000000E+02  0.51100000000E-03 0.  1.
         11   -1    0    0    0    0 -0.00000000000E+00 -0.00000000000E+00 -0.45593999997E+02  0.45594000000E+02  0.51100000000E-03 0. -1.
    9900012    2    1    2    0    0 -0.20929226505E+02  0.22784933798E+02 -0.77157912679E+01  0.59301965986E+02  0.50000040046E+02 0.  0.
        -12    1    1    2    0    0  0.20929226505E+02 -0.22784933798E+02  0.77157912679E+01  0.31886034014E+02  0.00000000000E+00 0.  1.
         11    1    3    3    0    0 -0.33657809307E+01  0.20445089790E+02 -0.93055345657E+01  0.22713941790E+02  0.51100000000E-03 0. -1.
        -11    1    3    3    0    0 -0.17115863570E+02 -0.12747352914E+02  0.23799591329E+01  0.21473518524E+02  0.51100000000E-03 0.  1.
        -12    1    3    3    0    0 -0.44758200368E+00  0.15087196922E+02 -0.79021583513E+00  0.15114505671E+02  0.00000000000E+00 0.  1.
</event>
<event>
 7    1  0.6065977E-013  0.5930195E+02  0.7816164E-02  0.1266605E+00
        -11   -1    0    0    0    0  0.00000000000E+00  0.00000000000E+00  0.45593999997E+02  0.45594000000E+02  0.51100000000E-03 0. -1.
         11   -1    0    0    0    0 -0.00000000000E+00 -0.00000000000E+00 -0.45593999997E+02  0.45594000000E+02  0.51100000000E-03 0.  1.
    9900012    2    1    2    0    0  0.55366842827E+01 -0.20514608230E+02  0.23774271893E+02  0.59301952460E+02  0.50000015378E+02 0.  0.
        -12    1    1    2    0    0 -0.55366842827E+01  0.20514608230E+02 -0.23774271893E+02  0.31886047540E+02  0.00000000000E+00 0.  1.
         11    1    3    3    0    0  0.15185822058E+02 -0.13805304464E+02  0.24714108278E+02  0.32124488652E+02  0.51100000000E-03 0. -1.
        -11    1    3    3    0    0 -0.53711773815E+01 -0.17869812817E+01 -0.12602421680E+02  0.13815349471E+02  0.51100000000E-03 0.  1.
         12    1    3    3    0    0 -0.42779603935E+01 -0.49223224842E+01  0.11662585295E+02  0.13362114336E+02  0.00000000000E+00 0. -1.
</event>
<event>
 7    1  0.6065977E-013  0.5930197E+02  0.7816164E-02  0.1266605E+00
        -11   -1    0    0    0    0  0.00000000000E+00  0.00000000000E+00  0.45593999997E+02  0.45594000000E+02  0.51100000000E-03 0.  1.
         11   -1    0    0    0    0 -0.00000000000E+00 -0.00000000000E+00 -0.45593999997E+02  0.45594000000E+02  0.51100000000E-03 0. -1.
    9900012    2    1    2    0    0 -0.15555178641E+02  0.19547497481E+02 -0.19815412308E+02  0.59301971629E+02  0.50000050338E+02 0.  0.
        -12    1    1    2    0    0  0.15555178641E+02 -0.19547497481E+02  0.19815412308E+02  0.31886028371E+02  0.00000000000E+00 0.  1.
         11    1    3    3    0    0  0.73769912959E+01  0.28594820229E+02 -0.11559472387E+02  0.31712854596E+02  0.51100000000E-03 0. -1.
        -11    1    3    3    0    0 -0.16447403949E+02 -0.87950989497E+01 -0.23215748817E+01  0.18795227383E+02  0.51100000000E-03 0.  1.
         12    1    3    3    0    0 -0.64847659887E+01 -0.25222379770E+00 -0.59343650385E+01  0.87938896503E+01  0.00000000000E+00 0. -1.
</event>
<event>
 7    1  0.6065977E-013  0.5930198E+02  0.7816164E-02  0.1266605E+00
        -11   -1    0    0    0    0  0.00000000000E+00  0.00000000000E+00  0.45593999997E+02  0.45594000000E+02  0.51100000000E-03 0. -1.
         11   -1    0    0    0    0 -0.00000000000E+00 -0.00000000000E+00 -0.45593999997E+02  0.45594000000E+02  0.51100000000E-03 0.  1.
    9900012    2    1    2    0    0 -0.13348973910E+02  0.27192843695E+02 -0.99535257909E+01  0.59301975972E+02  0.50000058258E+02 0.  0.
        -12    1    1    2    0    0  0.13348973910E+02 -0.27192843695E+02  0.99535257909E+01  0.31886024028E+02  0.00000000000E+00 0.  1.
         11    1    3    3    0    0 -0.18502924435E+02  0.25164916494E+02 -0.30964723377E+01  0.31388204408E+02  0.51100000000E-03 0. -1.
        -11    1    3    3    0    0  0.11127565209E+02 -0.44927507813E+01 -0.12575653430E+02  0.17382594068E+02  0.51100000000E-03 0.  1.
        -12    1    3    3    0    0 -0.59736146853E+01  0.65206779820E+01  0.57185999766E+01  0.10531177496E+02  0.00000000000E+00 0.  1.
</event>
<event>
 7    1  0.6065977E-013  0.5930194E+02  0.7816164E-02  0.1266605E+00
        -11   -1    0    0    0    0  0.00000000000E+00  0.00000000000E+00  0.45593999997E+02  0.45594000000E+02  0.51100000000E-03 0.  1.
         11   -1    0    0    0    0 -0.00000000000E+00 -0.00000000000E+00 -0.45593999997E+02  0.45594000000E+02  0.51100000000E-03 0. -1.
    9900012    2    1    2    0    0 -0.30519881605E+02 -0.46113578944E+01 -0.79995569394E+01  0.59301941823E+02  0.49999995980E+02 0.  0.
        -12    1    1    2    0    0  0.30519881605E+02  0.46113578944E+01  0.79995569394E+01  0.31886058177E+02  0.00000000000E+00 0.  1.
         11    1    3    3    0    0 -0.12897505653E+01 -0.20470052611E+02 -0.57326238530E+01  0.21296701316E+02  0.51100000000E-03 0.  1.
        -11    1    3    3    0    0 -0.12711271664E+02  0.14343631955E+02  0.51335687288E+01  0.19841112195E+02  0.51100000000E-03 0. -1.
         12    1    3    3    0    0 -0.16518859376E+02  0.15150627618E+01 -0.74005018152E+01  0.18164128313E+02  0.00000000000E+00 0. -1.
</event>
<event>
 7    1  0.6065977E-013  0.5930193E+02  0.7816164E-02  0.1266605E+00
        -11   -1    0    0    0    0  0.00000000000E+00  0.00000000000E+00  0.45593999997E+02  0.45594000000E+02  0.51100000000E-03 0.  1.
         11   -1    0    0    0    0 -0.00000000000E+00 -0.00000000000E+00 -0.45593999997E+02  0.45594000000E+02  0.51100000000E-03 0. -1.
    9900012    2    1    2    0    0  0.18251931395E+02 -0.12093136791E+02 -0.23180689587E+02  0.59301932089E+02  0.49999978226E+02 0.  0.
        -12    1    1    2    0    0 -0.18251931395E+02  0.12093136791E+02  0.23180689587E+02  0.31886067911E+02  0.00000000000E+00 0.  1.
         11    1    3    3    0    0 -0.12424556403E+02  0.44478389289E+01 -0.11637600803E+02  0.17595073904E+02  0.51100000000E-03 0.  1.
        -11    1    3    3    0    0  0.32444226882E+02 -0.12554915824E+02 -0.12956420269E+02  0.37123073630E+02  0.51100000000E-03 0. -1.
         12    1    3    3    0    0 -0.17677390834E+01 -0.39860598954E+01  0.14133314852E+01  0.45837845547E+01  0.00000000000E+00 0. -1.
</event>
<event>
 7    1  0.6065977E-013  0.5930202E+02  0.7816164E-02  0.1266604E+00
        -11   -1    0    0    0    0  0.00000000000E+00  0.00000000000E+00  0.45593999997E+02  0.45594000000E+02  0.51100000000E-03 0. -1.
         11   -1    0    0    0    0 -0.00000000000E+00 -0.00000000000E+00 -0.45593999997E+02  0.45594000000E+02  0.51100000000E-03 0.  1.
    9900012    2    1    2    0    0 -0.16043600355E+02 -0.27437583916E+02 -0.25489814241E+01  0.59302024559E+02  0.50000146870E+02 0.  0.
        -12    1    1    2    0    0  0.16043600355E+02  0.27437583916E+02  0.25489814241E+01  0.31885975441E+02  0.00000000000E+00 0.  1.
         11    1    3    3    0    0 -0.10452286624E+02 -0.23444111026E+01  0.17506262113E+02  0.20523541909E+02  0.51100000000E-03 0. -1.
        -11    1    3    3    0    0  0.17405754784E+01 -0.11628807131E+01 -0.12443466263E+02  0.12618310008E+02  0.51100000000E-03 0.  1.
         12    1    3    3    0    0 -0.73318892096E+01 -0.23930292101E+02 -0.76117772737E+01  0.26160172642E+02  0.00000000000E+00 0. -1.
</event>
<event>
 7    1  0.6065977E-013  0.5930195E+02  0.7816164E-02  0.1266605E+00
        -11   -1    0    0    0    0  0.00000000000E+00  0.00000000000E+00  0.45593999997E+02  0.45594000000E+02  0.51100000000E-03 0.  1.
         11   -1    0    0    0    0 -0.00000000000E+00 -0.00000000000E+00 -0.45593999997E+02  0.45594000000E+02  0.51100000000E-03 0. -1.
    9900012    2    1    2    0    0 -0.12503647617E+02 -0.29033336320E+02 -0.41766730895E+01  0.59301946313E+02  0.50000004169E+02 0.  0.
        -12    1    1    2    0    0  0.12503647617E+02  0.29033336320E+02  0.41766730895E+01  0.31886053687E+02  0.00000000000E+00 0.  1.
         11    1    3    3    0    0 -0.14833828215E+01 -0.11267989519E+01  0.65385916835E+01  0.67987706195E+01  0.51100000000E-03 0.  1.
        -11    1    3    3    0    0  0.11147302032E+02 -0.25090454317E+02 -0.12334788474E+02  0.30098841296E+02  0.51100000000E-03 0. -1.
        -12    1    3    3    0    0 -0.22167566827E+02 -0.28160830512E+01  0.16195237008E+01  0.22404334398E+02  0.00000000000E+00 0.  1.
</event>
<event>
 7    1  0.6065977E-013  0.5930184E+02  0.7816164E-02  0.1266605E+00
        -11   -1    0    0    0    0  0.00000000000E+00  0.00000000000E+00  0.45593999997E+02  0.45594000000E+02  0.51100000000E-03 0.  1.
         11   -1    0    0    0    0 -0.00000000000E+00 -0.00000000000E+00 -0.45593999997E+02  0.45594000000E+02  0.51100000000E-03 0. -1.
    9900012    2    1    2    0    0 -0.20751106872E+02  0.10426569307E+02 -0.21849602465E+02  0.59301844512E+02  0.49999818507E+02 0.  0.
        -12    1    1    2    0    0  0.20751106872E+02 -0.10426569307E+02  0.21849602465E+02  0.31886155488E+02  0.00000000000E+00 0.  1.
         11    1    3    3    0    0 -0.58193678079E+01  0.23549592173E+02 -0.20798805215E+02  0.31953695120E+02  0.51100000000E-03 0. -1.
        -11    1    3    3    0    0 -0.10992493668E+01 -0.94528472893E+01  0.61467227835E+01  0.11329027861E+02  0.51100000000E-03 0.  1.
         12    1    3    3    0    0 -0.13832489697E+02 -0.36701755766E+01 -0.71975200333E+01  0.16019121531E+02  0.00000000000E+00 0. -1.
</event>
<event>
 7    1  0.6065977E-013  0.5930190E+02  0.7816164E-02  0.1266605E+00
        -11   -1    0    0    0    0  0.00000000000E+00  0.00000000000E+00  0.45593999997E+02  0.45594000000E+02  0.51100000000E-03 0. -1.
         11   -1    0    0    0    0 -0.00000000000E+00 -0.00000000000E+00 -0.45593999997E+02  0.45594000000E+02  0.51100000000E-03 0.  1.
    9900012    2    1    2    0    0 -0.23237957402E+02  0.18905885940E+02 -0.10921898884E+02  0.59301904871E+02  0.49999928587E+02 0.  0.
        -12    1    1    2    0    0  0.23237957402E+02 -0.18905885940E+02  0.10921898884E+02  0.31886095129E+02  0.00000000000E+00 0.  1.
         11    1    3    3    0    0  0.90142532552E+01  0.16261032302E+02  0.52645612000E+01  0.19323393547E+02  0.51100000000E-03 0. -1.
        -11    1    3    3    0    0 -0.30480475111E+02  0.63772491278E+01 -0.10325502601E+02  0.32807692294E+02  0.51100000000E-03 0.  1.
         12    1    3    3    0    0 -0.17717355462E+01 -0.37323954901E+01 -0.58609574833E+01  0.71708190300E+01  0.00000000000E+00 0. -1.
</event>
<event>
 7    1  0.6065977E-013  0.5930206E+02  0.7816164E-02  0.1266604E+00
        -11   -1    0    0    0    0  0.00000000000E+00  0.00000000000E+00  0.45593999997E+02  0.45594000000E+02  0.51100000000E-03 0.  1.
         11   -1    0    0    0    0 -0.00000000000E+00 -0.00000000000E+00 -0.45593999997E+02  0.45594000000E+02  0.51100000000E-03 0. -1.
    9900012    2    1    2    0    0  0.29153698337E+01  0.13381893802E+02 -0.28794766726E+02  0.59302061817E+02  0.50000214818E+02 0.  0.
        -12    1    1    2    0    0 -0.29153698337E+01 -0.13381893802E+02  0.28794766726E+02  0.31885938183E+02  0.00000000000E+00 0.  1.
         11    1    3    3    0    0 -0.65963492622E+01  0.66482744384E+01 -0.56902061734E+01  0.10958550230E+02  0.51100000000E-03 0. -1.
        -11    1    3    3    0    0  0.33949792994E+01 -0.16630663149E+02 -0.15597969312E+02  0.23052147148E+02  0.51100000000E-03 0.  1.
        -12    1    3    3    0    0  0.61167397965E+01  0.23364282513E+02 -0.75065912408E+01  0.25291364438E+02  0.00000000000E+00 0.  1.
</event>
<event>
 7    1  0.6065977E-013  0.5930195E+02  0.7816164E-02  0.1266605E+00
        -11   -1    0    0    0    0  0.00000000000E+00  0.00000000000E+00  0.45593999997E+02  0.45594000000E+02  0.51100000000E-03 0.  1.
         11   -1    0    0    0    0 -0.00000000000E+00 -0.00000000000E+00 -0.45593999997E+02  0.45594000000E+02  0.51100000000E-03 0. -1.
    9900012    2    1    2    0    0 -0.22481934073E+02 -0.54070846729E+01 -0.21955555661E+02  0.59301947427E+02  0.50000006199E+02 0.  0.
        -12    1    1    2    0    0  0.22481934073E+02  0.54070846729E+01  0.21955555661E+02  0.31886052573E+02  0.00000000000E+00 0.  1.
         11    1    3    3    0    0  0.27272170941E+01 -0.36965754720E+01  0.22652116886E+01  0.51218714894E+01  0.51100000000E-03 0. -1.
        -11    1    3    3    0    0 -0.27838081592E+02 -0.11844597186E+01  0.18944512802E+01  0.27927597058E+02  0.51100000000E-03 0.  1.
        -12    1    3    3    0    0  0.26289304247E+01 -0.52604948234E+00 -0.26115218630E+02  0.26252478879E+02  0.00000000000E+00 0.  1.
</event>
<event>
 7    1  0.6065977E-013  0.5930194E+02  0.7816164E-02  0.1266605E+00
        -11   -1    0    0    0    0  0.00000000000E+00  0.00000000000E+00  0.45593999997E+02  0.45594000000E+02  0.51100000000E-03 0. -1.
         11   -1    0    0    0    0 -0.00000000000E+00 -0.00000000000E+00 -0.45593999997E+02  0.45594000000E+02  0.51100000000E-03 0.  1.
    9900012    2    1    2    0    0  0.20444945963E+02  0.66239755107E+01  0.23555215429E+02  0.59301936573E+02  0.49999986404E+02 0.  0.
        -12    1    1    2    0    0 -0.20444945963E+02 -0.66239755107E+01 -0.23555215429E+02  0.31886063427E+02  0.00000000000E+00 0.  1.
         11    1    3    3    0    0  0.23192413258E+02 -0.76638586143E+01  0.28147833326E+02  0.37268261065E+02  0.51100000000E-03 0. -1.
        -11    1    3    3    0    0  0.24265113795E+01  0.15560076676E+02 -0.53926225376E+01  0.16645849986E+02  0.51100000000E-03 0.  1.
        -12    1    3    3    0    0 -0.51739786745E+01 -0.12722425513E+01  0.80000464067E+00  0.53878255223E+01  0.00000000000E+00 0.  1.
</event>
<event>
 7    1  0.6065977E-013  0.5930192E+02  0.7816164E-02  0.1266605E+00
        -11   -1    0    0    0    0  0.00000000000E+00  0.00000000000E+00  0.45593999997E+02  0.45594000000E+02  0.51100000000E-03 0. -1.
         11   -1    0    0    0    0 -0.00000000000E+00 -0.00000000000E+00 -0.45593999997E+02  0.45594000000E+02  0.51100000000E-03 0.  1.
    9900012    2    1    2    0    0  0.20065525938E+02 -0.19102682124E+02  0.15785578285E+02  0.59301917184E+02  0.49999951044E+02 0.  0.
        -12    1    1    2    0    0 -0.20065525938E+02  0.19102682124E+02 -0.15785578285E+02  0.31886082816E+02  0.00000000000E+00 0.  1.
         11    1    3    3    0    0  0.23638785868E+02 -0.28624109971E+02  0.18521506908E+02  0.41487083379E+02  0.51100000000E-03 0. -1.
        -11    1    3    3    0    0 -0.44871108016E+01  0.47090687969E+01 -0.82065354807E+01  0.10471710325E+02  0.51100000000E-03 0.  1.
        -12    1    3    3    0    0  0.91385087203E+00  0.48123590494E+01  0.54706068585E+01  0.73431234796E+01  0.00000000000E+00 0.  1.
</event>
<event>
 7    1  0.6065977E-013  0.5930196E+02  0.7816164E-02  0.1266605E+00
        -11   -1    0    0    0    0  0.00000000000E+00  0.00000000000E+00  0.45593999997E+02  0.45594000000E+02  0.51100000000E-03 0.  1.
         11   -1    0    0    0    0 -0.00000000000E+00 -0.00000000000E+00 -0.45593999997E+02  0.45594000000E+02  0.51100000000E-03 0. -1.
    9900012    2    1    2    0    0 -0.41425998136E+01 -0.23856858264E+01 -0.31525652340E+02  0.59301962530E+02  0.50000033744E+02 0.  0.
        -12    1    1    2    0    0  0.41425998136E+01  0.23856858264E+01  0.31525652340E+02  0.31886037470E+02  0.00000000000E+00 0.  1.
         11    1    3    3    0    0  0.14179009982E+01  0.20296441835E+02 -0.18601673931E+02  0.27567703344E+02  0.51100000000E-03 0. -1.
        -11    1    3    3    0    0  0.19062249483E+01 -0.21230019738E+02 -0.10420711014E+02  0.23726328201E+02  0.51100000000E-03 0.  1.
        -12    1    3    3    0    0 -0.74667257601E+01 -0.14521079230E+01 -0.25032673955E+01  0.80079309844E+01  0.00000000000E+00 0.  1.
</event>
<event>
 7    1  0.6065977E-013  0.5930193E+02  0.7816164E-02  0.1266605E+00
        -11   -1    0    0    0    0  0.00000000000E+00  0.00000000000E+00  0.45593999997E+02  0.45594000000E+02  0.51100000000E-03 0.  1.
         11   -1    0    0    0    0 -0.00000000000E+00 -0.00000000000E+00 -0.45593999997E+02  0.45594000000E+02  0.51100000000E-03 0. -1.
    9900012    2    1    2    0    0 -0.29735642286E+02 -0.11428879066E+02 -0.13760734449E+01  0.59301932870E+02  0.49999979651E+02 0.  0.
        -12    1    1    2    0    0  0.29735642286E+02  0.11428879066E+02  0.13760734449E+01  0.31886067130E+02  0.00000000000E+00 0.  1.
         11    1    3    3    0    0 -0.12099725213E+02 -0.62521573346E+00  0.19092474550E+01  0.12265376922E+02  0.51100000000E-03 0. -1.
        -11    1    3    3    0    0 -0.56491482673E+01 -0.24481166950E+02 -0.10814235968E+02  0.27353027460E+02  0.51100000000E-03 0.  1.
        -12    1    3    3    0    0 -0.11986768806E+02  0.13677503618E+02  0.75289150682E+01  0.19683528488E+02  0.00000000000E+00 0.  1.
</event>
<event>
 7    1  0.6065977E-013  0.5930195E+02  0.7816164E-02  0.1266605E+00
        -11   -1    0    0    0    0  0.00000000000E+00  0.00000000000E+00  0.45593999997E+02  0.45594000000E+02  0.51100000000E-03 0.  1.
         11   -1    0    0    0    0 -0.00000000000E+00 -0.00000000000E+00 -0.45593999997E+02  0.45594000000E+02  0.51100000000E-03 0. -1.
    9900012    2    1    2    0    0 -0.11762384287E+02  0.26537600117E+02  0.13195539153E+02  0.59301950423E+02  0.50000011663E+02 0.  0.
        -12    1    1    2    0    0  0.11762384287E+02 -0.26537600117E+02 -0.13195539153E+02  0.31886049577E+02  0.00000000000E+00 0.  1.
         11    1    3    3    0    0  0.82408884420E+01  0.47803369032E+01 -0.14594466449E+02  0.17428778340E+02  0.51100000000E-03 0. -1.
        -11    1    3    3    0    0 -0.20956499408E+02  0.19111451335E+02  0.26350102322E+02  0.38713696959E+02  0.51100000000E-03 0.  1.
        -12    1    3    3    0    0  0.95322667887E+00  0.26458118793E+01  0.14399032799E+01  0.31594751237E+01  0.00000000000E+00 0.  1.
</event>
