<event>
 7    1  0.3742599E-009  0.4778727E+02  0.7816164E-02  0.1312668E+00
        -11   -1    0    0    0    0  0.00000000000E+00  0.00000000000E+00  0.45593999997E+02  0.45594000000E+02  0.51100000000E-03 0. -1.
         11   -1    0    0    0    0 -0.00000000000E+00 -0.00000000000E+00 -0.45593999997E+02  0.45594000000E+02  0.51100000000E-03 0.  1.
    9900012    2    1    2    0    0 -0.43419327444E+01 -0.14848748029E+02  0.40549790897E+02  0.47787271437E+02  0.20000001790E+02 0.  0.
        -12    1    1    2    0    0  0.43419327444E+01  0.14848748029E+02 -0.40549790897E+02  0.43400728563E+02  0.00000000000E+00 0.  1.
         11    1    3    3    0    0  0.56234123488E+00 -0.78498134575E+01  0.36652957593E+02  0.37488332845E+02  0.51100000000E-03 0. -1.
        -11    1    3    3    0    0 -0.92173267637E+00  0.49058828700E+00  0.30988320475E+00  0.10891720965E+01  0.51100000000E-03 0.  1.
         12    1    3    3    0    0 -0.39825413029E+01 -0.74895228585E+01  0.35869500998E+01  0.92097664952E+01  0.00000000000E+00 0. -1.
</event>
<event>
 7    1  0.3742599E-009  0.4778727E+02  0.7816164E-02  0.1312668E+00
        -11   -1    0    0    0    0  0.00000000000E+00  0.00000000000E+00  0.45593999997E+02  0.45594000000E+02  0.51100000000E-03 0.  1.
         11   -1    0    0    0    0 -0.00000000000E+00 -0.00000000000E+00 -0.45593999997E+02  0.45594000000E+02  0.51100000000E-03 0. -1.
    9900012    2    1    2    0    0  0.31615878654E+02 -0.13231253415E+02 -0.26626924856E+02  0.47787274461E+02  0.20000015576E+02 0.  0.
        -12    1    1    2    0    0 -0.31615878654E+02  0.13231253415E+02  0.26626924856E+02  0.43400725539E+02  0.00000000000E+00 0.  1.
         11    1    3    3    0    0  0.10351001515E+02 -0.86867336241E+01 -0.17521390587E+02  0.22126945153E+02  0.51100000000E-03 0. -1.
        -11    1    3    3    0    0  0.12596478048E+02 -0.63455655616E+01 -0.91394213321E+01  0.16806739245E+02  0.51100000000E-03 0.  1.
        -12    1    3    3    0    0  0.86683990910E+01  0.18010457703E+01  0.33887062907E-01  0.88535900628E+01  0.00000000000E+00 0.  1.
</event>
<event>
 7    1  0.3742599E-009  0.4778727E+02  0.7816164E-02  0.1312668E+00
        -11   -1    0    0    0    0  0.00000000000E+00  0.00000000000E+00  0.45593999997E+02  0.45594000000E+02  0.51100000000E-03 0. -1.
         11   -1    0    0    0    0 -0.00000000000E+00 -0.00000000000E+00 -0.45593999997E+02  0.45594000000E+02  0.51100000000E-03 0.  1.
    9900012    2    1    2    0    0  0.34980059636E+02 -0.19437787481E+02  0.16798542227E+02  0.47787272181E+02  0.20000005180E+02 0.  0.
        -12    1    1    2    0    0 -0.34980059636E+02  0.19437787481E+02 -0.16798542227E+02  0.43400727819E+02  0.00000000000E+00 0.  1.
         11    1    3    3    0    0  0.28791084357E+01 -0.50018006540E+00  0.42695601795E+01  0.51738370549E+01  0.51100000000E-03 0.  1.
        -11    1    3    3    0    0  0.13408374588E+02 -0.38078123849E+01 -0.26320771615E+01  0.14184913630E+02  0.51100000000E-03 0. -1.
         12    1    3    3    0    0  0.18692576612E+02 -0.15129795031E+02  0.15161059209E+02  0.28428521496E+02  0.00000000000E+00 0. -1.
</event>
<event>
 7    1  0.3742599E-009  0.4778727E+02  0.7816164E-02  0.1312668E+00
        -11   -1    0    0    0    0  0.00000000000E+00  0.00000000000E+00  0.45593999997E+02  0.45594000000E+02  0.51100000000E-03 0. -1.
         11   -1    0    0    0    0 -0.00000000000E+00 -0.00000000000E+00 -0.45593999997E+02  0.45594000000E+02  0.51100000000E-03 0.  1.
    9900012    2    1    2    0    0  0.33636211274E+02  0.26537891344E+02  0.69259664774E+01  0.47787269621E+02  0.19999993508E+02 0.  0.
        -12    1    1    2    0    0 -0.33636211274E+02 -0.26537891344E+02 -0.69259664774E+01  0.43400730379E+02  0.00000000000E+00 0.  1.
         11    1    3    3    0    0  0.37409631682E+01 -0.40041375382E+00 -0.29670542630E+01  0.47915078901E+01  0.51100000000E-03 0. -1.
        -11    1    3    3    0    0  0.75219599227E+01  0.10434766173E+02 -0.14996251119E+01  0.12950409333E+02  0.51100000000E-03 0.  1.
         12    1    3    3    0    0  0.22373288183E+02  0.16503538924E+02  0.11392645852E+02  0.30045352397E+02  0.00000000000E+00 0. -1.
</event>
<event>
 7    1  0.3742599E-009  0.4778727E+02  0.7816164E-02  0.1312668E+00
        -11   -1    0    0    0    0  0.00000000000E+00  0.00000000000E+00  0.45593999997E+02  0.45594000000E+02  0.51100000000E-03 0.  1.
         11   -1    0    0    0    0 -0.00000000000E+00 -0.00000000000E+00 -0.45593999997E+02  0.45594000000E+02  0.51100000000E-03 0. -1.
    9900012    2    1    2    0    0  0.11229994089E+02  0.28256467047E+02 -0.30969058919E+02  0.47787270656E+02  0.19999998230E+02 0.  0.
        -12    1    1    2    0    0 -0.11229994089E+02 -0.28256467047E+02  0.30969058919E+02  0.43400729344E+02  0.00000000000E+00 0.  1.
         11    1    3    3    0    0  0.40708044905E+01  0.85293828411E+01 -0.86000199621E+01  0.12778190970E+02  0.51100000000E-03 0. -1.
        -11    1    3    3    0    0  0.12513062871E+02  0.16065181777E+02 -0.18092395367E+02  0.27239705914E+02  0.51100000000E-03 0.  1.
        -12    1    3    3    0    0 -0.53538732722E+01  0.36619024295E+01 -0.42766435898E+01  0.77693737722E+01  0.00000000000E+00 0.  1.
</event>
<event>
 7    1  0.3742599E-009  0.4778727E+02  0.7816164E-02  0.1312668E+00
        -11   -1    0    0    0    0  0.00000000000E+00  0.00000000000E+00  0.45593999997E+02  0.45594000000E+02  0.51100000000E-03 0. -1.
         11   -1    0    0    0    0 -0.00000000000E+00 -0.00000000000E+00 -0.45593999997E+02  0.45594000000E+02  0.51100000000E-03 0.  1.
    9900012    2    1    2    0    0 -0.12929565305E+02  0.36016369956E+02  0.20476103858E+02  0.47787269672E+02  0.19999993745E+02 0.  0.
        -12    1    1    2    0    0  0.12929565305E+02 -0.36016369956E+02 -0.20476103858E+02  0.43400730328E+02  0.00000000000E+00 0.  1.
         11    1    3    3    0    0 -0.20864934435E+01  0.48860202713E+01 -0.43397386300E-01  0.53130530371E+01  0.51100000000E-03 0. -1.
        -11    1    3    3    0    0 -0.28191274952E+01  0.26456830307E+02  0.99527968958E+01  0.28407208874E+02  0.51100000000E-03 0.  1.
         12    1    3    3    0    0 -0.80239443666E+01  0.46735193779E+01  0.10566704348E+02  0.14067007761E+02  0.00000000000E+00 0. -1.
</event>
<event>
 7    1  0.3742599E-009  0.4778727E+02  0.7816164E-02  0.1312668E+00
        -11   -1    0    0    0    0  0.00000000000E+00  0.00000000000E+00  0.45593999997E+02  0.45594000000E+02  0.51100000000E-03 0. -1.
         11   -1    0    0    0    0 -0.00000000000E+00 -0.00000000000E+00 -0.45593999997E+02  0.45594000000E+02  0.51100000000E-03 0.  1.
    9900012    2    1    2    0    0 -0.23208571884E+02  0.20368646479E+02  0.30497607708E+02  0.47787266778E+02  0.19999980550E+02 0.  0.
        -12    1    1    2    0    0  0.23208571884E+02 -0.20368646479E+02 -0.30497607708E+02  0.43400733222E+02  0.00000000000E+00 0.  1.
         11    1    3    3    0    0 -0.87446242823E+01  0.10433593570E+01  0.11401396107E+02  0.14406557050E+02  0.51100000000E-03 0. -1.
        -11    1    3    3    0    0 -0.14988469530E+02  0.16099488282E+02  0.20266323128E+02  0.29909389749E+02  0.51100000000E-03 0.  1.
         12    1    3    3    0    0  0.52452192892E+00  0.32257988403E+01 -0.11701115269E+01  0.34713199791E+01  0.00000000000E+00 0. -1.
</event>
<event>
 7    1  0.3742599E-009  0.4778727E+02  0.7816164E-02  0.1312668E+00
        -11   -1    0    0    0    0  0.00000000000E+00  0.00000000000E+00  0.45593999997E+02  0.45594000000E+02  0.51100000000E-03 0.  1.
         11   -1    0    0    0    0 -0.00000000000E+00 -0.00000000000E+00 -0.45593999997E+02  0.45594000000E+02  0.51100000000E-03 0. -1.
    9900012    2    1    2    0    0  0.18076842280E+02 -0.36635061877E+02  0.14653442075E+02  0.47787270165E+02  0.19999995990E+02 0.  0.
        -12    1    1    2    0    0 -0.18076842280E+02  0.36635061877E+02 -0.14653442075E+02  0.43400729835E+02  0.00000000000E+00 0.  1.
         11    1    3    3    0    0  0.20178879945E+02 -0.24349548344E+02  0.14980388782E+02  0.34992852823E+02  0.51100000000E-03 0. -1.
        -11    1    3    3    0    0 -0.14684355825E+01 -0.34583907521E+01  0.89028296367E+00  0.38612658120E+01  0.51100000000E-03 0.  1.
         12    1    3    3    0    0 -0.63360208215E+00 -0.88271227807E+01 -0.12172296702E+01  0.89331515298E+01  0.00000000000E+00 0. -1.
</event>
<event>
 7    1  0.3742599E-009  0.4778727E+02  0.7816164E-02  0.1312668E+00
        -11   -1    0    0    0    0  0.00000000000E+00  0.00000000000E+00  0.45593999997E+02  0.45594000000E+02  0.51100000000E-03 0.  1.
         11   -1    0    0    0    0 -0.00000000000E+00 -0.00000000000E+00 -0.45593999997E+02  0.45594000000E+02  0.51100000000E-03 0. -1.
    9900012    2    1    2    0    0  0.40280043812E+02 -0.14009309418E+02  0.80548647916E+01  0.47787268132E+02  0.19999986720E+02 0.  0.
        -12    1    1    2    0    0 -0.40280043812E+02  0.14009309418E+02 -0.80548647916E+01  0.43400731868E+02  0.00000000000E+00 0.  1.
         11    1    3    3    0    0 -0.31318888669E+00  0.99185676574E+00  0.17169699587E+00  0.10542045542E+01  0.51100000000E-03 0.  1.
        -11    1    3    3    0    0  0.48388975296E+01 -0.19457656293E+01  0.69099985226E+01  0.86573098033E+01  0.51100000000E-03 0. -1.
         12    1    3    3    0    0  0.35754335169E+02 -0.13055400555E+02  0.97316927305E+00  0.38075753774E+02  0.00000000000E+00 0. -1.
</event>
<event>
 7    1  0.3742599E-009  0.4778727E+02  0.7816164E-02  0.1312668E+00
        -11   -1    0    0    0    0  0.00000000000E+00  0.00000000000E+00  0.45593999997E+02  0.45594000000E+02  0.51100000000E-03 0. -1.
         11   -1    0    0    0    0 -0.00000000000E+00 -0.00000000000E+00 -0.45593999997E+02  0.45594000000E+02  0.51100000000E-03 0.  1.
    9900012    2    1    2    0    0  0.36444214522E+02 -0.15037372861E+01  0.23519809298E+02  0.47787269276E+02  0.19999991935E+02 0.  0.
        -12    1    1    2    0    0 -0.36444214522E+02  0.15037372861E+01 -0.23519809298E+02  0.43400730724E+02  0.00000000000E+00 0.  1.
         11    1    3    3    0    0  0.49281434227E+01 -0.24969079375E+01  0.77712553915E+00  0.55789847829E+01  0.51100000000E-03 0. -1.
        -11    1    3    3    0    0 -0.19490968860E+01 -0.47569232907E+00  0.18525505516E+01  0.27307884705E+01  0.51100000000E-03 0.  1.
         12    1    3    3    0    0  0.33465167986E+02  0.14688629804E+01  0.20890133207E+02  0.39477496022E+02  0.00000000000E+00 0. -1.
</event>
<event>
 7    1  0.3742599E-009  0.4778727E+02  0.7816164E-02  0.1312668E+00
        -11   -1    0    0    0    0  0.00000000000E+00  0.00000000000E+00  0.45593999997E+02  0.45594000000E+02  0.51100000000E-03 0.  1.
         11   -1    0    0    0    0 -0.00000000000E+00 -0.00000000000E+00 -0.45593999997E+02  0.45594000000E+02  0.51100000000E-03 0. -1.
    9900012    2    1    2    0    0  0.11028672512E+02  0.18346915197E+02 -0.37754234943E+02  0.47787272232E+02  0.20000005417E+02 0.  0.
        -12    1    1    2    0    0 -0.11028672512E+02 -0.18346915197E+02  0.37754234943E+02  0.43400727768E+02  0.00000000000E+00 0.  1.
         11    1    3    3    0    0 -0.20079637510E+01  0.27492851303E+01 -0.51086362190E+01  0.61391083581E+01  0.51100000000E-03 0. -1.
        -11    1    3    3    0    0 -0.23077448973E+01 -0.11380100221E+01 -0.11421064290E+01  0.28151661901E+01  0.51100000000E-03 0.  1.
         12    1    3    3    0    0  0.15344381160E+02  0.16735640089E+02 -0.31503492295E+02  0.38832997684E+02  0.00000000000E+00 0. -1.
</event>
<event>
 7    1  0.3742599E-009  0.4778727E+02  0.7816164E-02  0.1312668E+00
        -11   -1    0    0    0    0  0.00000000000E+00  0.00000000000E+00  0.45593999997E+02  0.45594000000E+02  0.51100000000E-03 0. -1.
         11   -1    0    0    0    0 -0.00000000000E+00 -0.00000000000E+00 -0.45593999997E+02  0.45594000000E+02  0.51100000000E-03 0.  1.
    9900012    2    1    2    0    0 -0.23120452431E+02  0.31453626083E+02  0.18966747744E+02  0.47787269195E+02  0.19999991569E+02 0.  0.
        -12    1    1    2    0    0  0.23120452431E+02 -0.31453626083E+02 -0.18966747744E+02  0.43400730805E+02  0.00000000000E+00 0.  1.
         11    1    3    3    0    0  0.33534201016E+00  0.28337715809E+01  0.37893187435E+01  0.47435906693E+01  0.51100000000E-03 0.  1.
        -11    1    3    3    0    0 -0.16011722324E+02  0.73048945862E+01  0.51322246278E+01  0.18332388458E+02  0.51100000000E-03 0. -1.
        -12    1    3    3    0    0 -0.74440721174E+01  0.21314959916E+02  0.10045204372E+02  0.24711290068E+02  0.00000000000E+00 0.  1.
</event>
<event>
 7    1  0.3742599E-009  0.4778727E+02  0.7816164E-02  0.1312668E+00
        -11   -1    0    0    0    0  0.00000000000E+00  0.00000000000E+00  0.45593999997E+02  0.45594000000E+02  0.51100000000E-03 0.  1.
         11   -1    0    0    0    0 -0.00000000000E+00 -0.00000000000E+00 -0.45593999997E+02  0.45594000000E+02  0.51100000000E-03 0. -1.
    9900012    2    1    2    0    0 -0.38845887263E+01  0.15935787327E+02 -0.40181884716E+02  0.47787271819E+02  0.20000003533E+02 0.  0.
        -12    1    1    2    0    0  0.38845887263E+01 -0.15935787327E+02  0.40181884716E+02  0.43400728181E+02  0.00000000000E+00 0.  1.
         11    1    3    3    0    0  0.21179662847E+00  0.71294515585E+01 -0.11905834037E+02  0.13878862407E+02  0.51100000000E-03 0. -1.
        -11    1    3    3    0    0  0.55579737358E+00  0.12109183295E+02 -0.23601879793E+02  0.26532809139E+02  0.51100000000E-03 0.  1.
        -12    1    3    3    0    0 -0.46521827284E+01 -0.33028475261E+01 -0.46741708858E+01  0.73756002731E+01  0.00000000000E+00 0.  1.
</event>
<event>
 7    1  0.3742599E-009  0.4778727E+02  0.7816164E-02  0.1312668E+00
        -11   -1    0    0    0    0  0.00000000000E+00  0.00000000000E+00  0.45593999997E+02  0.45594000000E+02  0.51100000000E-03 0.  1.
         11   -1    0    0    0    0 -0.00000000000E+00 -0.00000000000E+00 -0.45593999997E+02  0.45594000000E+02  0.51100000000E-03 0. -1.
    9900012    2    1    2    0    0 -0.56954529031E+01 -0.36467540450E+02 -0.22832082077E+02  0.47787266570E+02  0.19999979601E+02 0.  0.
        -12    1    1    2    0    0  0.56954529031E+01  0.36467540450E+02  0.22832082077E+02  0.43400733430E+02  0.00000000000E+00 0.  1.
         11    1    3    3    0    0 -0.45502670778E+01 -0.45523444744E+01 -0.46341121556E+00  0.64531791319E+01  0.51100000000E-03 0. -1.
        -11    1    3    3    0    0  0.19587683601E+01 -0.39478085008E+01  0.12670131100E+01  0.45855520856E+01  0.51100000000E-03 0.  1.
         12    1    3    3    0    0 -0.31039541854E+01 -0.27967387475E+02 -0.23635683972E+02  0.36748535353E+02  0.00000000000E+00 0. -1.
</event>
<event>
 7    1  0.3742599E-009  0.4778727E+02  0.7816164E-02  0.1312668E+00
        -11   -1    0    0    0    0  0.00000000000E+00  0.00000000000E+00  0.45593999997E+02  0.45594000000E+02  0.51100000000E-03 0. -1.
         11   -1    0    0    0    0 -0.00000000000E+00 -0.00000000000E+00 -0.45593999997E+02  0.45594000000E+02  0.51100000000E-03 0.  1.
    9900012    2    1    2    0    0  0.21905564876E+02 -0.36845467115E+02 -0.67956727669E+01  0.47787269732E+02  0.19999994016E+02 0.  0.
        -12    1    1    2    0    0 -0.21905564876E+02  0.36845467115E+02  0.67956727669E+01  0.43400730268E+02  0.00000000000E+00 0.  1.
         11    1    3    3    0    0  0.16817707696E+01 -0.36753907424E+01  0.31798657197E+01  0.51428004324E+01  0.51100000000E-03 0. -1.
        -11    1    3    3    0    0 -0.20607175971E+00 -0.36786879534E+00  0.21123011413E+01  0.21539752536E+01  0.51100000000E-03 0.  1.
         12    1    3    3    0    0  0.20429865866E+02 -0.32802207577E+02 -0.12087839628E+02  0.40490494046E+02  0.00000000000E+00 0. -1.
</event>
<event>
 7    1  0.3742599E-009  0.4778727E+02  0.7816164E-02  0.1312668E+00
        -11   -1    0    0    0    0  0.00000000000E+00  0.00000000000E+00  0.45593999997E+02  0.45594000000E+02  0.51100000000E-03 0. -1.
         11   -1    0    0    0    0 -0.00000000000E+00 -0.00000000000E+00 -0.45593999997E+02  0.45594000000E+02  0.51100000000E-03 0.  1.
    9900012    2    1    2    0    0 -0.37730850062E+02 -0.20555368604E+02 -0.61223396915E+01  0.47787271111E+02  0.20000000303E+02 0.  0.
        -12    1    1    2    0    0  0.37730850062E+02  0.20555368604E+02  0.61223396915E+01  0.43400728889E+02  0.00000000000E+00 0.  1.
         11    1    3    3    0    0 -0.16098679542E+02 -0.65596789024E+01 -0.84350034492E+01  0.19322167419E+02  0.51100000000E-03 0. -1.
        -11    1    3    3    0    0 -0.14590240151E+02 -0.40023178768E+01 -0.24854130022E+01  0.15332023157E+02  0.51100000000E-03 0.  1.
        -12    1    3    3    0    0 -0.70419303688E+01 -0.99933718244E+01  0.47980767599E+01  0.13133080535E+02  0.00000000000E+00 0.  1.
</event>
<event>
 7    1  0.3742599E-009  0.4778727E+02  0.7816164E-02  0.1312668E+00
        -11   -1    0    0    0    0  0.00000000000E+00  0.00000000000E+00  0.45593999997E+02  0.45594000000E+02  0.51100000000E-03 0.  1.
         11   -1    0    0    0    0 -0.00000000000E+00 -0.00000000000E+00 -0.45593999997E+02  0.45594000000E+02  0.51100000000E-03 0. -1.
    9900012    2    1    2    0    0  0.34286297832E+02  0.14057281915E+02  0.22593486563E+02  0.47787273867E+02  0.20000012867E+02 0.  0.
        -12    1    1    2    0    0 -0.34286297832E+02 -0.14057281915E+02 -0.22593486563E+02  0.43400726133E+02  0.00000000000E+00 0.  1.
         11    1    3    3    0    0  0.13186828829E+02 -0.18385213790E+00  0.99373943932E+01  0.16512966534E+02  0.51100000000E-03 0. -1.
        -11    1    3    3    0    0  0.15661693068E+02  0.37875506787E+01  0.10667570434E+02  0.19324368790E+02  0.51100000000E-03 0.  1.
        -12    1    3    3    0    0  0.54377759347E+01  0.10453583374E+02  0.19885217362E+01  0.11949938543E+02  0.00000000000E+00 0.  1.
</event>
<event>
 7    1  0.4322507E-009  0.4778727E+02  0.7816164E-02  0.1312668E+00
        -11   -1    0    0    0    0  0.00000000000E+00  0.00000000000E+00  0.45593999997E+02  0.45594000000E+02  0.51100000000E-03 0.  1.
         11   -1    0    0    0    0 -0.00000000000E+00 -0.00000000000E+00 -0.45593999997E+02  0.45594000000E+02  0.51100000000E-03 0. -1.
    9900012    2    1    2    0    0 -0.43033570932E+02 -0.63601102475E-01  0.56330166627E+01  0.47787272483E+02  0.20000006560E+02 0.  0.
        -12    1    1    2    0    0  0.43033570932E+02  0.63601102475E-01 -0.56330166627E+01  0.43400727517E+02  0.00000000000E+00 0.  1.
         11    1    3    3    0    0 -0.29390204111E+02 -0.42249526927E+01  0.36767992886E+01  0.29919110552E+02  0.51100000000E-03 0. -1.
        -11    1    3    3    0    0 -0.14608760759E+02  0.37650623336E+01  0.39702508650E+01  0.15599822995E+02  0.51100000000E-03 0.  1.
        -12    1    3    3    0    0  0.96539393749E+00  0.39628925665E+00 -0.20140334908E+01  0.22683389367E+01  0.00000000000E+00 0.  1.
</event>
<event>
 7    1  0.3742599E-009  0.4778727E+02  0.7816164E-02  0.1312668E+00
        -11   -1    0    0    0    0  0.00000000000E+00  0.00000000000E+00  0.45593999997E+02  0.45594000000E+02  0.51100000000E-03 0.  1.
         11   -1    0    0    0    0 -0.00000000000E+00 -0.00000000000E+00 -0.45593999997E+02  0.45594000000E+02  0.51100000000E-03 0. -1.
    9900012    2    1    2    0    0 -0.18235575422E+02 -0.34064143411E+02 -0.19766668768E+02  0.47787271072E+02  0.20000000127E+02 0.  0.
        -12    1    1    2    0    0  0.18235575422E+02  0.34064143411E+02  0.19766668768E+02  0.43400728928E+02  0.00000000000E+00 0.  1.
         11    1    3    3    0    0 -0.45459534448E+01 -0.12434661742E+02 -0.11819552690E+01  0.13292235473E+02  0.51100000000E-03 0. -1.
        -11    1    3    3    0    0 -0.15316307110E+02 -0.20694111094E+02 -0.13489916593E+02  0.29065673008E+02  0.51100000000E-03 0.  1.
        -12    1    3    3    0    0  0.16266851332E+01 -0.93537057472E+00 -0.50947969056E+01  0.54293625909E+01  0.00000000000E+00 0.  1.
</event>
<event>
 7    1  0.3742599E-009  0.4778728E+02  0.7816164E-02  0.1312668E+00
        -11   -1    0    0    0    0  0.00000000000E+00  0.00000000000E+00  0.45593999997E+02  0.45594000000E+02  0.51100000000E-03 0.  1.
         11   -1    0    0    0    0 -0.00000000000E+00 -0.00000000000E+00 -0.45593999997E+02  0.45594000000E+02  0.51100000000E-03 0. -1.
    9900012    2    1    2    0    0 -0.19713079449E+02 -0.23566663956E+02 -0.30653367873E+02  0.47787284415E+02  0.20000060961E+02 0.  0.
        -12    1    1    2    0    0  0.19713079449E+02  0.23566663956E+02  0.30653367873E+02  0.43400715585E+02  0.00000000000E+00 0.  1.
         11    1    3    3    0    0 -0.15959513938E+01 -0.91766867082E+00 -0.79749495076E+00  0.20062839027E+01  0.51100000000E-03 0. -1.
        -11    1    3    3    0    0 -0.56399175057E+01  0.25788772332E+01 -0.81353428767E+01  0.10229520088E+02  0.51100000000E-03 0.  1.
        -12    1    3    3    0    0 -0.12477210549E+02 -0.25227872518E+02 -0.21720530045E+02  0.35551480424E+02  0.00000000000E+00 0.  1.
</event>
<event>
 7    1  0.3742599E-009  0.4778727E+02  0.7816164E-02  0.1312668E+00
        -11   -1    0    0    0    0  0.00000000000E+00  0.00000000000E+00  0.45593999997E+02  0.45594000000E+02  0.51100000000E-03 0.  1.
         11   -1    0    0    0    0 -0.00000000000E+00 -0.00000000000E+00 -0.45593999997E+02  0.45594000000E+02  0.51100000000E-03 0. -1.
    9900012    2    1    2    0    0  0.80607346121E+01  0.31699813697E+02 -0.28526645818E+02  0.47787272443E+02  0.20000006375E+02 0.  0.
        -12    1    1    2    0    0 -0.80607346121E+01 -0.31699813697E+02  0.28526645818E+02  0.43400727557E+02  0.00000000000E+00 0.  1.
         11    1    3    3    0    0  0.23678670743E+01  0.83986074366E+00 -0.11755384595E+02  0.12020866350E+02  0.51100000000E-03 0. -1.
        -11    1    3    3    0    0 -0.36794741124E+00  0.64533024554E+00 -0.16743433894E+00  0.76149257530E+00  0.51100000000E-03 0.  1.
         12    1    3    3    0    0  0.60608149490E+01  0.30214622708E+02 -0.16603826884E+02  0.35004913518E+02  0.00000000000E+00 0. -1.
</event>
<event>
 7    1  0.3742599E-009  0.4778728E+02  0.7816164E-02  0.1312668E+00
        -11   -1    0    0    0    0  0.00000000000E+00  0.00000000000E+00  0.45593999997E+02  0.45594000000E+02  0.51100000000E-03 0.  1.
         11   -1    0    0    0    0 -0.00000000000E+00 -0.00000000000E+00 -0.45593999997E+02  0.45594000000E+02  0.51100000000E-03 0. -1.
    9900012    2    1    2    0    0  0.17301769991E+02 -0.21545515616E+02 -0.33467333710E+02  0.47787275194E+02  0.20000018921E+02 0.  0.
        -12    1    1    2    0    0 -0.17301769991E+02  0.21545515616E+02  0.33467333710E+02  0.43400724806E+02  0.00000000000E+00 0.  1.
         11    1    3    3    0    0  0.89364133044E+01 -0.97279198748E+01 -0.23926437540E+02  0.27330684614E+02  0.51100000000E-03 0. -1.
        -11    1    3    3    0    0 -0.73425363525E+00 -0.61156464309E+01 -0.71829071311E+01  0.94622626673E+01  0.51100000000E-03 0.  1.
        -12    1    3    3    0    0  0.90996103219E+01 -0.57019493106E+01 -0.23579890387E+01  0.10994327913E+02  0.00000000000E+00 0.  1.
</event>
<event>
 7    1  0.3742599E-009  0.4778727E+02  0.7816164E-02  0.1312668E+00
        -11   -1    0    0    0    0  0.00000000000E+00  0.00000000000E+00  0.45593999997E+02  0.45594000000E+02  0.51100000000E-03 0. -1.
         11   -1    0    0    0    0 -0.00000000000E+00 -0.00000000000E+00 -0.45593999997E+02  0.45594000000E+02  0.51100000000E-03 0.  1.
    9900012    2    1    2    0    0  0.38084502387E+02 -0.19633801580E+02  0.69070797121E+01  0.47787271473E+02  0.20000001954E+02 0.  0.
        -12    1    1    2    0    0 -0.38084502387E+02  0.19633801580E+02 -0.69070797121E+01  0.43400728527E+02  0.00000000000E+00 0.  1.
         11    1    3    3    0    0  0.24233408062E+00  0.78696708044E+00  0.87945671990E+00  0.12047768987E+01  0.51100000000E-03 0. -1.
        -11    1    3    3    0    0  0.21464602743E+02 -0.20578218625E+02  0.51722098755E+01  0.30181848982E+02  0.51100000000E-03 0.  1.
        -12    1    3    3    0    0  0.16377565563E+02  0.15744996437E+00  0.85541311672E+00  0.16400645593E+02  0.00000000000E+00 0.  1.
</event>
<event>
 7    1  0.3742599E-009  0.4778726E+02  0.7816164E-02  0.1312668E+00
        -11   -1    0    0    0    0  0.00000000000E+00  0.00000000000E+00  0.45593999997E+02  0.45594000000E+02  0.51100000000E-03 0.  1.
         11   -1    0    0    0    0 -0.00000000000E+00 -0.00000000000E+00 -0.45593999997E+02  0.45594000000E+02  0.51100000000E-03 0. -1.
    9900012    2    1    2    0    0  0.28513620102E+02  0.30699938769E+02  0.11318626484E+02  0.47787261789E+02  0.19999957801E+02 0.  0.
        -12    1    1    2    0    0 -0.28513620102E+02 -0.30699938769E+02 -0.11318626484E+02  0.43400738211E+02  0.00000000000E+00 0.  1.
         11    1    3    3    0    0  0.96801733199E+01  0.11696021817E+02 -0.76123319077E+00  0.15201386716E+02  0.51100000000E-03 0.  1.
        -11    1    3    3    0    0  0.71869573430E+01  0.14762420217E+02  0.18654235068E+01  0.16524563886E+02  0.51100000000E-03 0. -1.
        -12    1    3    3    0    0  0.11646489439E+02  0.42414967354E+01  0.10214436168E+02  0.16061311187E+02  0.00000000000E+00 0.  1.
</event>
<event>
 7    1  0.3742599E-009  0.4778727E+02  0.7816164E-02  0.1312668E+00
        -11   -1    0    0    0    0  0.00000000000E+00  0.00000000000E+00  0.45593999997E+02  0.45594000000E+02  0.51100000000E-03 0.  1.
         11   -1    0    0    0    0 -0.00000000000E+00 -0.00000000000E+00 -0.45593999997E+02  0.45594000000E+02  0.51100000000E-03 0. -1.
    9900012    2    1    2    0    0 -0.41895105563E+02  0.98198218554E+01 -0.56563432159E+01  0.47787274315E+02  0.20000014912E+02 0.  0.
        -12    1    1    2    0    0  0.41895105563E+02 -0.98198218554E+01  0.56563432159E+01  0.43400725685E+02  0.00000000000E+00 0.  1.
         11    1    3    3    0    0 -0.15318738033E+02  0.38257639095E+01  0.50714403705E+00  0.15797385852E+02  0.51100000000E-03 0. -1.
        -11    1    3    3    0    0 -0.88198299025E+01  0.51566520916E+01  0.46047793006E+01  0.11206446938E+02  0.51100000000E-03 0.  1.
         12    1    3    3    0    0 -0.17756537627E+02  0.83740585436E+00 -0.10768266553E+02  0.20783441525E+02  0.00000000000E+00 0. -1.
</event>
<event>
 7    1  0.3742599E-009  0.4778727E+02  0.7816164E-02  0.1312668E+00
        -11   -1    0    0    0    0  0.00000000000E+00  0.00000000000E+00  0.45593999997E+02  0.45594000000E+02  0.51100000000E-03 0.  1.
         11   -1    0    0    0    0 -0.00000000000E+00 -0.00000000000E+00 -0.45593999997E+02  0.45594000000E+02  0.51100000000E-03 0. -1.
    9900012    2    1    2    0    0 -0.28414721481E+02  0.67738732285E+01 -0.32098932168E+02  0.47787271876E+02  0.20000003790E+02 0.  0.
        -12    1    1    2    0    0  0.28414721481E+02 -0.67738732285E+01  0.32098932168E+02  0.43400728124E+02  0.00000000000E+00 0.  1.
         11    1    3    3    0    0 -0.10090118934E+02  0.27149862159E+01 -0.20112503081E+02  0.22664828054E+02  0.51100000000E-03 0. -1.
        -11    1    3    3    0    0 -0.14026382941E+01 -0.32260388411E+01 -0.30042546779E+01  0.46260422847E+01  0.51100000000E-03 0.  1.
         12    1    3    3    0    0 -0.16921964253E+02  0.72849258538E+01 -0.89821744096E+01  0.20496401538E+02  0.00000000000E+00 0. -1.
</event>
<event>
 7    1  0.3742599E-009  0.4778727E+02  0.7816164E-02  0.1312668E+00
        -11   -1    0    0    0    0  0.00000000000E+00  0.00000000000E+00  0.45593999997E+02  0.45594000000E+02  0.51100000000E-03 0.  1.
         11   -1    0    0    0    0 -0.00000000000E+00 -0.00000000000E+00 -0.45593999997E+02  0.45594000000E+02  0.51100000000E-03 0. -1.
    9900012    2    1    2    0    0 -0.31834592433E+02 -0.27452374937E+02 -0.10795797434E+02  0.47787269507E+02  0.19999992991E+02 0.  0.
        -12    1    1    2    0    0  0.31834592433E+02  0.27452374937E+02  0.10795797434E+02  0.43400730493E+02  0.00000000000E+00 0.  1.
         11    1    3    3    0    0 -0.19378166865E+02 -0.37583994424E+01 -0.44698936373E+01  0.20239043130E+02  0.51100000000E-03 0. -1.
        -11    1    3    3    0    0 -0.48001970686E+01 -0.10482199560E+02 -0.22941033408E+01  0.11755054654E+02  0.51100000000E-03 0.  1.
         12    1    3    3    0    0 -0.76562284999E+01 -0.13211775935E+02 -0.40318004554E+01  0.15793171724E+02  0.00000000000E+00 0. -1.
</event>
<event>
 7    1  0.3742599E-009  0.4778727E+02  0.7816164E-02  0.1312668E+00
        -11   -1    0    0    0    0  0.00000000000E+00  0.00000000000E+00  0.45593999997E+02  0.45594000000E+02  0.51100000000E-03 0. -1.
         11   -1    0    0    0    0 -0.00000000000E+00 -0.00000000000E+00 -0.45593999997E+02  0.45594000000E+02  0.51100000000E-03 0.  1.
    9900012    2    1    2    0    0 -0.24210050936E+02 -0.33531646501E+02  0.13157714272E+02  0.47787270418E+02  0.19999997143E+02 0.  0.
        -12    1    1    2    0    0  0.24210050936E+02  0.33531646501E+02 -0.13157714272E+02  0.43400729582E+02  0.00000000000E+00 0.  1.
         11    1    3    3    0    0 -0.51035836203E+01 -0.86081887086E+01 -0.16829930617E+00  0.10008786317E+02  0.51100000000E-03 0. -1.
        -11    1    3    3    0    0  0.28286265659E+01 -0.14780973219E+01  0.18100925094E+01  0.36691054899E+01  0.51100000000E-03 0.  1.
        -12    1    3    3    0    0 -0.21935093882E+02 -0.23445360471E+02  0.11515921068E+02  0.34109378611E+02  0.00000000000E+00 0.  1.
</event>
<event>
 7    1  0.3742599E-009  0.4778733E+02  0.7816164E-02  0.1312668E+00
        -11   -1    0    0    0    0  0.00000000000E+00  0.00000000000E+00  0.45593999997E+02  0.45594000000E+02  0.51100000000E-03 0.  1.
         11   -1    0    0    0    0 -0.00000000000E+00 -0.00000000000E+00 -0.45593999997E+02  0.45594000000E+02  0.51100000000E-03 0. -1.
    9900012    2    1    2    0    0 -0.31677930441E+02  0.10080552590E+02 -0.27901783770E+02  0.47787327711E+02  0.20000258366E+02 0.  0.
        -12    1    1    2    0    0  0.31677930441E+02 -0.10080552590E+02  0.27901783770E+02  0.43400672289E+02  0.00000000000E+00 0.  1.
         11    1    3    3    0    0 -0.16282401894E+02  0.50207904760E+01 -0.72741630832E+01  0.18526694180E+02  0.51100000000E-03 0.  1.
        -11    1    3    3    0    0 -0.85205116189E+01 -0.10010837571E+01 -0.24806655149E+01  0.89305648530E+01  0.51100000000E-03 0. -1.
         12    1    3    3    0    0 -0.68750169287E+01  0.60608458716E+01 -0.18146955172E+02  0.20330068678E+02  0.00000000000E+00 0. -1.
</event>
<event>
 7    1  0.3742599E-009  0.4778727E+02  0.7816164E-02  0.1312668E+00
        -11   -1    0    0    0    0  0.00000000000E+00  0.00000000000E+00  0.45593999997E+02  0.45594000000E+02  0.51100000000E-03 0. -1.
         11   -1    0    0    0    0 -0.00000000000E+00 -0.00000000000E+00 -0.45593999997E+02  0.45594000000E+02  0.51100000000E-03 0.  1.
    9900012    2    1    2    0    0  0.18857830827E+02 -0.20014072992E+02  0.33577407659E+02  0.47787271822E+02  0.20000003546E+02 0.  0.
        -12    1    1    2    0    0 -0.18857830827E+02  0.20014072992E+02 -0.33577407659E+02  0.43400728178E+02  0.00000000000E+00 0.  1.
         11    1    3    3    0    0 -0.60853690455E+00  0.61958652148E+00  0.18089853807E+01  0.20066472013E+01  0.51100000000E-03 0. -1.
        -11    1    3    3    0    0  0.49002700015E+01 -0.17059403208E+02  0.19812030288E+02  0.26599857674E+02  0.51100000000E-03 0.  1.
         12    1    3    3    0    0  0.14566097730E+02 -0.35742563064E+01  0.11956391991E+02  0.19180766947E+02  0.00000000000E+00 0. -1.
</event>
<event>
 7    1  0.3742599E-009  0.4778727E+02  0.7816164E-02  0.1312668E+00
        -11   -1    0    0    0    0  0.00000000000E+00  0.00000000000E+00  0.45593999997E+02  0.45594000000E+02  0.51100000000E-03 0.  1.
         11   -1    0    0    0    0 -0.00000000000E+00 -0.00000000000E+00 -0.45593999997E+02  0.45594000000E+02  0.51100000000E-03 0. -1.
    9900012    2    1    2    0    0 -0.58953968113E+00 -0.15607861439E+02 -0.40492843089E+02  0.47787271467E+02  0.20000001929E+02 0.  0.
        -12    1    1    2    0    0  0.58953968113E+00  0.15607861439E+02  0.40492843089E+02  0.43400728533E+02  0.00000000000E+00 0.  1.
         11    1    3    3    0    0 -0.50328566194E+01 -0.70618319140E+01 -0.13713083047E+02  0.16224911792E+02  0.51100000000E-03 0. -1.
        -11    1    3    3    0    0  0.28754350705E+01 -0.33238245341E+01 -0.16846659700E+00  0.43982175519E+01  0.51100000000E-03 0.  1.
        -12    1    3    3    0    0  0.15678818677E+01 -0.52222049910E+01 -0.26611293444E+02  0.27164142123E+02  0.00000000000E+00 0.  1.
</event>
<event>
 7    1  0.3742599E-009  0.4778727E+02  0.7816164E-02  0.1312668E+00
        -11   -1    0    0    0    0  0.00000000000E+00  0.00000000000E+00  0.45593999997E+02  0.45594000000E+02  0.51100000000E-03 0.  1.
         11   -1    0    0    0    0 -0.00000000000E+00 -0.00000000000E+00 -0.45593999997E+02  0.45594000000E+02  0.51100000000E-03 0. -1.
    9900012    2    1    2    0    0 -0.38348813301E+02 -0.13402379732E+01 -0.20277960902E+02  0.47787269387E+02  0.19999992442E+02 0.  0.
        -12    1    1    2    0    0  0.38348813301E+02  0.13402379732E+01  0.20277960902E+02  0.43400730613E+02  0.00000000000E+00 0.  1.
         11    1    3    3    0    0 -0.25535604082E+01 -0.28882363782E+01 -0.62458772277E+01  0.73398612207E+01  0.51100000000E-03 0. -1.
        -11    1    3    3    0    0 -0.10269285705E+02 -0.13876896972E+01  0.14281084167E+01  0.10460564301E+02  0.51100000000E-03 0.  1.
         12    1    3    3    0    0 -0.25525967188E+02  0.29356881021E+01 -0.15460192091E+02  0.29986843865E+02  0.00000000000E+00 0. -1.
</event>
<event>
 7    1  0.4786721E-009  0.4778726E+02  0.7816164E-02  0.1312668E+00
        -11   -1    0    0    0    0  0.00000000000E+00  0.00000000000E+00  0.45593999997E+02  0.45594000000E+02  0.51100000000E-03 0.  1.
         11   -1    0    0    0    0 -0.00000000000E+00 -0.00000000000E+00 -0.45593999997E+02  0.45594000000E+02  0.51100000000E-03 0. -1.
    9900012    2    1    2    0    0  0.28515599662E+02  0.28873210220E+02 -0.15389036260E+02  0.47787261187E+02  0.19999955057E+02 0.  0.
        -12    1    1    2    0    0 -0.28515599662E+02 -0.28873210220E+02  0.15389036260E+02  0.43400738813E+02  0.00000000000E+00 0.  1.
         11    1    3    3    0    0  0.11546426784E+02  0.18619912628E+02 -0.80403714786E+01  0.23338138133E+02  0.51100000000E-03 0. -1.
        -11    1    3    3    0    0  0.20711955604E+01  0.57264675460E+01  0.18500741796E+01  0.63643582815E+01  0.51100000000E-03 0.  1.
        -12    1    3    3    0    0  0.14897977318E+02  0.45268300466E+01 -0.91987389606E+01  0.18084764773E+02  0.00000000000E+00 0.  1.
</event>
<event>
 7    1  0.3742599E-009  0.4778727E+02  0.7816164E-02  0.1312668E+00
        -11   -1    0    0    0    0  0.00000000000E+00  0.00000000000E+00  0.45593999997E+02  0.45594000000E+02  0.51100000000E-03 0. -1.
         11   -1    0    0    0    0 -0.00000000000E+00 -0.00000000000E+00 -0.45593999997E+02  0.45594000000E+02  0.51100000000E-03 0.  1.
    9900012    2    1    2    0    0 -0.40419250145E+02  0.10610631700E+02 -0.11718440849E+02  0.47787272549E+02  0.20000006860E+02 0.  0.
        -12    1    1    2    0    0  0.40419250145E+02 -0.10610631700E+02  0.11718440849E+02  0.43400727451E+02  0.00000000000E+00 0.  1.
         11    1    3    3    0    0 -0.10966934193E+02  0.68315147012E+01 -0.35670882090E+01  0.13404005269E+02  0.51100000000E-03 0. -1.
        -11    1    3    3    0    0 -0.97552444657E+00 -0.98114388436E+00 -0.51768252350E+01  0.53585269470E+01  0.51100000000E-03 0.  1.
        -12    1    3    3    0    0 -0.28476791505E+02  0.47602608836E+01 -0.29745274052E+01  0.29024740333E+02  0.00000000000E+00 0.  1.
</event>
<event>
 7    1  0.3742599E-009  0.4778728E+02  0.7816164E-02  0.1312668E+00
        -11   -1    0    0    0    0  0.00000000000E+00  0.00000000000E+00  0.45593999997E+02  0.45594000000E+02  0.51100000000E-03 0. -1.
         11   -1    0    0    0    0 -0.00000000000E+00 -0.00000000000E+00 -0.45593999997E+02  0.45594000000E+02  0.51100000000E-03 0.  1.
    9900012    2    1    2    0    0  0.18322544927E+02  0.25808878512E+02  0.29695268506E+02  0.47787276109E+02  0.20000023090E+02 0.  0.
        -12    1    1    2    0    0 -0.18322544927E+02 -0.25808878512E+02 -0.29695268506E+02  0.43400723891E+02  0.00000000000E+00 0.  1.
         11    1    3    3    0    0  0.12105176590E+02  0.14672423824E+02  0.88872060315E+01  0.20995184030E+02  0.51100000000E-03 0. -1.
        -11    1    3    3    0    0 -0.62161602011E-01  0.60819915235E+01  0.21226875654E+01  0.64420716946E+01  0.51100000000E-03 0.  1.
         12    1    3    3    0    0  0.62795299389E+01  0.50544631644E+01  0.18685374909E+02  0.20350020384E+02  0.00000000000E+00 0. -1.
</event>
<event>
 7    1  0.3742599E-009  0.4778726E+02  0.7816164E-02  0.1312668E+00
        -11   -1    0    0    0    0  0.00000000000E+00  0.00000000000E+00  0.45593999997E+02  0.45594000000E+02  0.51100000000E-03 0. -1.
         11   -1    0    0    0    0 -0.00000000000E+00 -0.00000000000E+00 -0.45593999997E+02  0.45594000000E+02  0.51100000000E-03 0.  1.
    9900012    2    1    2    0    0  0.42442798190E+02 -0.44085103209E+01  0.79245324762E+01  0.47787259264E+02  0.19999946287E+02 0.  0.
        -12    1    1    2    0    0 -0.42442798190E+02  0.44085103209E+01 -0.79245324762E+01  0.43400740736E+02  0.00000000000E+00 0.  1.
         11    1    3    3    0    0  0.24844170313E+02 -0.32317458138E+00  0.64710905298E+01  0.25675129080E+02  0.51100000000E-03 0.  1.
        -11    1    3    3    0    0  0.17002563820E+02 -0.17071627550E+01  0.49964531877E+01  0.17803542508E+02  0.51100000000E-03 0. -1.
        -12    1    3    3    0    0  0.59606405735E+00 -0.23781729845E+01 -0.35430112413E+01  0.43085876759E+01  0.00000000000E+00 0.  1.
</event>
<event>
 7    1  0.3742599E-009  0.4778727E+02  0.7816164E-02  0.1312668E+00
        -11   -1    0    0    0    0  0.00000000000E+00  0.00000000000E+00  0.45593999997E+02  0.45594000000E+02  0.51100000000E-03 0.  1.
         11   -1    0    0    0    0 -0.00000000000E+00 -0.00000000000E+00 -0.45593999997E+02  0.45594000000E+02  0.51100000000E-03 0. -1.
    9900012    2    1    2    0    0  0.40127895618E+02  0.50340271673E+01 -0.15749089376E+02  0.47787271291E+02  0.20000001124E+02 0.  0.
        -12    1    1    2    0    0 -0.40127895618E+02 -0.50340271673E+01  0.15749089376E+02  0.43400728709E+02  0.00000000000E+00 0.  1.
         11    1    3    3    0    0  0.11231939857E+02  0.47468669795E+01 -0.40256029296E+01  0.12841133061E+02  0.51100000000E-03 0. -1.
        -11    1    3    3    0    0  0.21268183922E+00 -0.46426537070E+00 -0.55792159250E+01  0.56025375053E+01  0.51100000000E-03 0.  1.
        -12    1    3    3    0    0  0.28683273922E+02  0.75142555848E+00 -0.61442705218E+01  0.29343600725E+02  0.00000000000E+00 0.  1.
</event>
<event>
 7    1  0.3742599E-009  0.4778726E+02  0.7816164E-02  0.1312668E+00
        -11   -1    0    0    0    0  0.00000000000E+00  0.00000000000E+00  0.45593999997E+02  0.45594000000E+02  0.51100000000E-03 0.  1.
         11   -1    0    0    0    0 -0.00000000000E+00 -0.00000000000E+00 -0.45593999997E+02  0.45594000000E+02  0.51100000000E-03 0. -1.
    9900012    2    1    2    0    0 -0.34503321177E+02  0.25018294977E+02 -0.81993768188E+01  0.47787262264E+02  0.19999959968E+02 0.  0.
        -12    1    1    2    0    0  0.34503321177E+02 -0.25018294977E+02  0.81993768188E+01  0.43400737736E+02  0.00000000000E+00 0.  1.
         11    1    3    3    0    0 -0.70400414757E+01  0.10439940855E+02 -0.90220716665E+01  0.15490394651E+02  0.51100000000E-03 0. -1.
        -11    1    3    3    0    0 -0.43441387056E+01  0.55083797052E+01  0.23942122159E+01  0.74125596433E+01  0.51100000000E-03 0.  1.
         12    1    3    3    0    0 -0.23119140995E+02  0.90699744171E+01 -0.15715173681E+01  0.24884307970E+02  0.00000000000E+00 0. -1.
</event>
<event>
 7    1  0.3742599E-009  0.4778727E+02  0.7816164E-02  0.1312668E+00
        -11   -1    0    0    0    0  0.00000000000E+00  0.00000000000E+00  0.45593999997E+02  0.45594000000E+02  0.51100000000E-03 0. -1.
         11   -1    0    0    0    0 -0.00000000000E+00 -0.00000000000E+00 -0.45593999997E+02  0.45594000000E+02  0.51100000000E-03 0.  1.
    9900012    2    1    2    0    0  0.39339477082E+02 -0.29434437264E+01  0.18093227525E+02  0.47787271891E+02  0.20000003862E+02 0.  0.
        -12    1    1    2    0    0 -0.39339477082E+02  0.29434437264E+01 -0.18093227525E+02  0.43400728109E+02  0.00000000000E+00 0.  1.
         11    1    3    3    0    0  0.81653189517E+01  0.11107311984E+00  0.13866136893E+02  0.16092063989E+02  0.51100000000E-03 0.  1.
        -11    1    3    3    0    0  0.15717555695E+02 -0.27223378572E+01  0.22183381553E+01  0.16105083200E+02  0.51100000000E-03 0. -1.
        -12    1    3    3    0    0  0.15456602435E+02 -0.33217898903E+00  0.20087524765E+01  0.15590124702E+02  0.00000000000E+00 0.  1.
</event>
<event>
 7    1  0.3742599E-009  0.4778727E+02  0.7816164E-02  0.1312668E+00
        -11   -1    0    0    0    0  0.00000000000E+00  0.00000000000E+00  0.45593999997E+02  0.45594000000E+02  0.51100000000E-03 0.  1.
         11   -1    0    0    0    0 -0.00000000000E+00 -0.00000000000E+00 -0.45593999997E+02  0.45594000000E+02  0.51100000000E-03 0. -1.
    9900012    2    1    2    0    0 -0.26944818842E+02 -0.26930611472E+02 -0.20792840332E+02  0.47787270677E+02  0.19999998325E+02 0.  0.
        -12    1    1    2    0    0  0.26944818842E+02  0.26930611472E+02  0.20792840332E+02  0.43400729323E+02  0.00000000000E+00 0.  1.
         11    1    3    3    0    0 -0.91117698828E+01 -0.11602550868E+02 -0.10096088834E+02  0.17876648093E+02  0.51100000000E-03 0. -1.
        -11    1    3    3    0    0 -0.22462871734E+01 -0.28666756117E+01 -0.92048662264E+01  0.98991513594E+01  0.51100000000E-03 0.  1.
        -12    1    3    3    0    0 -0.15586761786E+02 -0.12461384992E+02 -0.14918852712E+01  0.20011471224E+02  0.00000000000E+00 0.  1.
</event>
<event>
 7    1  0.3742599E-009  0.4778727E+02  0.7816164E-02  0.1312668E+00
        -11   -1    0    0    0    0  0.00000000000E+00  0.00000000000E+00  0.45593999997E+02  0.45594000000E+02  0.51100000000E-03 0. -1.
         11   -1    0    0    0    0 -0.00000000000E+00 -0.00000000000E+00 -0.45593999997E+02  0.45594000000E+02  0.51100000000E-03 0.  1.
    9900012    2    1    2    0    0  0.99762181389E+01 -0.12654353230E-01  0.42238588322E+02  0.47787269224E+02  0.19999991700E+02 0.  0.
        -12    1    1    2    0    0 -0.99762181389E+01  0.12654353230E-01 -0.42238588322E+02  0.43400730776E+02  0.00000000000E+00 0.  1.
         11    1    3    3    0    0  0.57670810006E+01  0.18565390594E+01  0.99968689807E+01  0.11689454659E+02  0.51100000000E-03 0. -1.
        -11    1    3    3    0    0  0.72375195238E+01  0.38046271098E+01  0.25506789165E+02  0.26785316315E+02  0.51100000000E-03 0.  1.
        -12    1    3    3    0    0 -0.30283823855E+01 -0.56738205224E+01  0.67349301758E+01  0.93124982505E+01  0.00000000000E+00 0.  1.
</event>
<event>
 7    1  0.3742599E-009  0.4778728E+02  0.7816164E-02  0.1312668E+00
        -11   -1    0    0    0    0  0.00000000000E+00  0.00000000000E+00  0.45593999997E+02  0.45594000000E+02  0.51100000000E-03 0.  1.
         11   -1    0    0    0    0 -0.00000000000E+00 -0.00000000000E+00 -0.45593999997E+02  0.45594000000E+02  0.51100000000E-03 0. -1.
    9900012    2    1    2    0    0 -0.99000787240E+00 -0.69706432705E+01 -0.42825836444E+02  0.47787282836E+02  0.20000053764E+02 0.  0.
        -12    1    1    2    0    0  0.99000787240E+00  0.69706432705E+01  0.42825836444E+02  0.43400717164E+02  0.00000000000E+00 0.  1.
         11    1    3    3    0    0  0.50272866711E+01  0.25485178255E+01 -0.14748549066E+02  0.15788864880E+02  0.51100000000E-03 0. -1.
        -11    1    3    3    0    0 -0.44224883980E+01  0.77488265291E+00 -0.52593235785E+01  0.69151523137E+01  0.51100000000E-03 0.  1.
        -12    1    3    3    0    0 -0.15948061454E+01 -0.10294043749E+02 -0.22817963799E+02  0.25083265642E+02  0.00000000000E+00 0.  1.
</event>
<event>
 7    1  0.3742599E-009  0.4778727E+02  0.7816164E-02  0.1312668E+00
        -11   -1    0    0    0    0  0.00000000000E+00  0.00000000000E+00  0.45593999997E+02  0.45594000000E+02  0.51100000000E-03 0. -1.
         11   -1    0    0    0    0 -0.00000000000E+00 -0.00000000000E+00 -0.45593999997E+02  0.45594000000E+02  0.51100000000E-03 0.  1.
    9900012    2    1    2    0    0 -0.33411740820E+02 -0.13565027418E+02  0.24150967247E+02  0.47787267144E+02  0.19999982214E+02 0.  0.
        -12    1    1    2    0    0  0.33411740820E+02  0.13565027418E+02 -0.24150967247E+02  0.43400732856E+02  0.00000000000E+00 0.  1.
         11    1    3    3    0    0 -0.12758893271E+02 -0.58941096705E+01  0.12839374761E+02  0.19036266200E+02  0.51100000000E-03 0. -1.
        -11    1    3    3    0    0 -0.19953222759E+02 -0.11117754138E+02  0.90473807731E+01  0.24568082031E+02  0.51100000000E-03 0.  1.
        -12    1    3    3    0    0 -0.69962478978E+00  0.34468363906E+01  0.22642117127E+01  0.41829189126E+01  0.00000000000E+00 0.  1.
</event>
<event>
 7    1  0.3742599E-009  0.4778727E+02  0.7816164E-02  0.1312668E+00
        -11   -1    0    0    0    0  0.00000000000E+00  0.00000000000E+00  0.45593999997E+02  0.45594000000E+02  0.51100000000E-03 0. -1.
         11   -1    0    0    0    0 -0.00000000000E+00 -0.00000000000E+00 -0.45593999997E+02  0.45594000000E+02  0.51100000000E-03 0.  1.
    9900012    2    1    2    0    0  0.44804078031E+01  0.41559530121E+02  0.11677113673E+02  0.47787267498E+02  0.19999983832E+02 0.  0.
        -12    1    1    2    0    0 -0.44804078031E+01 -0.41559530121E+02 -0.11677113673E+02  0.43400732502E+02  0.00000000000E+00 0.  1.
         11    1    3    3    0    0  0.45228438868E+01  0.23277032755E+02  0.41088620339E+01  0.24065724967E+02  0.51100000000E-03 0. -1.
        -11    1    3    3    0    0 -0.28394133164E+01  0.17999384081E+02  0.31611460000E+01  0.18494132571E+02  0.51100000000E-03 0.  1.
        -12    1    3    3    0    0  0.27969772327E+01  0.28311328453E+00  0.44071056392E+01  0.52274099597E+01  0.00000000000E+00 0.  1.
</event>
<event>
 7    1  0.3742599E-009  0.4778727E+02  0.7816164E-02  0.1312668E+00
        -11   -1    0    0    0    0  0.00000000000E+00  0.00000000000E+00  0.45593999997E+02  0.45594000000E+02  0.51100000000E-03 0.  1.
         11   -1    0    0    0    0 -0.00000000000E+00 -0.00000000000E+00 -0.45593999997E+02  0.45594000000E+02  0.51100000000E-03 0. -1.
    9900012    2    1    2    0    0  0.20787741154E+02  0.37939667017E+02  0.34748984614E+01  0.47787269189E+02  0.19999991539E+02 0.  0.
        -12    1    1    2    0    0 -0.20787741154E+02 -0.37939667017E+02 -0.34748984614E+01  0.43400730811E+02  0.00000000000E+00 0.  1.
         11    1    3    3    0    0  0.76644073168E+01  0.55080439614E+01 -0.27772792510E+01  0.98384433778E+01  0.51100000000E-03 0. -1.
        -11    1    3    3    0    0  0.11026926742E+01 -0.12052909988E+01  0.78557228373E+00  0.18126725021E+01  0.51100000000E-03 0.  1.
         12    1    3    3    0    0  0.12020641164E+02  0.33636914054E+02  0.54666054286E+01  0.36136153309E+02  0.00000000000E+00 0. -1.
</event>
<event>
 7    1  0.3742599E-009  0.4778727E+02  0.7816164E-02  0.1312668E+00
        -11   -1    0    0    0    0  0.00000000000E+00  0.00000000000E+00  0.45593999997E+02  0.45594000000E+02  0.51100000000E-03 0.  1.
         11   -1    0    0    0    0 -0.00000000000E+00 -0.00000000000E+00 -0.45593999997E+02  0.45594000000E+02  0.51100000000E-03 0. -1.
    9900012    2    1    2    0    0 -0.20102158265E+02  0.54680629830E+00 -0.38460730276E+02  0.47787268008E+02  0.19999986157E+02 0.  0.
        -12    1    1    2    0    0  0.20102158265E+02 -0.54680629830E+00  0.38460730276E+02  0.43400731992E+02  0.00000000000E+00 0.  1.
         11    1    3    3    0    0 -0.77434884776E+01  0.19973217149E+01 -0.23292967651E+02  0.24627489723E+02  0.51100000000E-03 0. -1.
        -11    1    3    3    0    0  0.10082042311E+01 -0.17190467349E+01 -0.74726328980E+01  0.77338114884E+01  0.51100000000E-03 0.  1.
         12    1    3    3    0    0 -0.13366874018E+02  0.26853131836E+00 -0.76951297276E+01  0.15425966797E+02  0.00000000000E+00 0. -1.
</event>
<event>
 7    1  0.3742599E-009  0.4778727E+02  0.7816164E-02  0.1312668E+00
        -11   -1    0    0    0    0  0.00000000000E+00  0.00000000000E+00  0.45593999997E+02  0.45594000000E+02  0.51100000000E-03 0. -1.
         11   -1    0    0    0    0 -0.00000000000E+00 -0.00000000000E+00 -0.45593999997E+02  0.45594000000E+02  0.51100000000E-03 0.  1.
    9900012    2    1    2    0    0 -0.17271800189E+02 -0.27007541287E+02  0.29255783304E+02  0.47787271609E+02  0.20000002572E+02 0.  0.
        -12    1    1    2    0    0  0.17271800189E+02  0.27007541287E+02 -0.29255783304E+02  0.43400728391E+02  0.00000000000E+00 0.  1.
         11    1    3    3    0    0 -0.74622792116E+01 -0.19984912327E+02  0.11738833753E+02  0.24349179655E+02  0.51100000000E-03 0. -1.
        -11    1    3    3    0    0 -0.62081768037E+01 -0.92566311878E+01  0.14226858810E+02  0.18072913214E+02  0.51100000000E-03 0.  1.
        -12    1    3    3    0    0 -0.36013441740E+01  0.22340022279E+01  0.32900907415E+01  0.53651787389E+01  0.00000000000E+00 0.  1.
</event>
<event>
 7    1  0.3742599E-009  0.4778727E+02  0.7816164E-02  0.1312668E+00
        -11   -1    0    0    0    0  0.00000000000E+00  0.00000000000E+00  0.45593999997E+02  0.45594000000E+02  0.51100000000E-03 0. -1.
         11   -1    0    0    0    0 -0.00000000000E+00 -0.00000000000E+00 -0.45593999997E+02  0.45594000000E+02  0.51100000000E-03 0.  1.
    9900012    2    1    2    0    0 -0.32390460981E+02  0.10922259165E+02 -0.26742955231E+02  0.47787270025E+02  0.19999995353E+02 0.  0.
        -12    1    1    2    0    0  0.32390460981E+02 -0.10922259165E+02  0.26742955231E+02  0.43400729975E+02  0.00000000000E+00 0.  1.
         11    1    3    3    0    0 -0.11764374126E+02  0.84494253764E+01 -0.13130173160E+02  0.19549801412E+02  0.51100000000E-03 0. -1.
        -11    1    3    3    0    0 -0.65095479399E+01 -0.58046597640E+00 -0.12052640825E+02  0.13710481620E+02  0.51100000000E-03 0.  1.
         12    1    3    3    0    0 -0.14116538916E+02  0.30532997646E+01 -0.15601412463E+01  0.14526986994E+02  0.00000000000E+00 0. -1.
</event>
<event>
 7    1  0.3742599E-009  0.4778727E+02  0.7816164E-02  0.1312668E+00
        -11   -1    0    0    0    0  0.00000000000E+00  0.00000000000E+00  0.45593999997E+02  0.45594000000E+02  0.51100000000E-03 0.  1.
         11   -1    0    0    0    0 -0.00000000000E+00 -0.00000000000E+00 -0.45593999997E+02  0.45594000000E+02  0.51100000000E-03 0. -1.
    9900012    2    1    2    0    0 -0.17550744050E+02 -0.17814945672E+02 -0.35471431588E+02  0.47787269996E+02  0.19999995221E+02 0.  0.
        -12    1    1    2    0    0  0.17550744050E+02  0.17814945672E+02  0.35471431588E+02  0.43400730004E+02  0.00000000000E+00 0.  1.
         11    1    3    3    0    0 -0.34813071345E+01 -0.40425396306E+01  0.41277509774E+00  0.53508886712E+01  0.51100000000E-03 0. -1.
        -11    1    3    3    0    0 -0.96862452188E+00 -0.76051499901E+01 -0.84100220846E+01  0.11380026870E+02  0.51100000000E-03 0.  1.
         12    1    3    3    0    0 -0.13100812393E+02 -0.61672560509E+01 -0.27474184601E+02  0.31056354455E+02  0.00000000000E+00 0. -1.
</event>
<event>
 7    1  0.3742599E-009  0.4778726E+02  0.7816164E-02  0.1312668E+00
        -11   -1    0    0    0    0  0.00000000000E+00  0.00000000000E+00  0.45593999997E+02  0.45594000000E+02  0.51100000000E-03 0.  1.
         11   -1    0    0    0    0 -0.00000000000E+00 -0.00000000000E+00 -0.45593999997E+02  0.45594000000E+02  0.51100000000E-03 0. -1.
    9900012    2    1    2    0    0 -0.20862886417E+02  0.13261093372E+02 -0.35672221982E+02  0.47787262123E+02  0.19999959326E+02 0.  0.
        -12    1    1    2    0    0  0.20862886417E+02 -0.13261093372E+02  0.35672221982E+02  0.43400737877E+02  0.00000000000E+00 0.  1.
         11    1    3    3    0    0 -0.95157920359E+01  0.62593035644E+01 -0.24675660170E+02  0.27177516154E+02  0.51100000000E-03 0. -1.
        -11    1    3    3    0    0  0.18554738884E+01  0.18759813797E+01 -0.40537774126E+01  0.48368585941E+01  0.51100000000E-03 0.  1.
         12    1    3    3    0    0 -0.13202568269E+02  0.51258084280E+01 -0.69427843995E+01  0.15772887376E+02  0.00000000000E+00 0. -1.
</event>
<event>
 7    1  0.3742599E-009  0.4778726E+02  0.7816164E-02  0.1312668E+00
        -11   -1    0    0    0    0  0.00000000000E+00  0.00000000000E+00  0.45593999997E+02  0.45594000000E+02  0.51100000000E-03 0.  1.
         11   -1    0    0    0    0 -0.00000000000E+00 -0.00000000000E+00 -0.45593999997E+02  0.45594000000E+02  0.51100000000E-03 0. -1.
    9900012    2    1    2    0    0  0.25267273307E+02 -0.14720394504E+02 -0.32070215021E+02  0.47787264912E+02  0.19999972040E+02 0.  0.
        -12    1    1    2    0    0 -0.25267273307E+02  0.14720394504E+02  0.32070215021E+02  0.43400735088E+02  0.00000000000E+00 0.  1.
         11    1    3    3    0    0  0.13907570051E+01  0.86594634043E+00  0.20935646564E+01  0.26583982665E+01  0.51100000000E-03 0.  1.
        -11    1    3    3    0    0  0.88653132740E+01 -0.45367650624E+01 -0.69513530393E+01  0.12144847715E+02  0.51100000000E-03 0. -1.
        -12    1    3    3    0    0  0.15011203028E+02 -0.11049575782E+02 -0.27212426638E+02  0.32984018931E+02  0.00000000000E+00 0.  1.
</event>
<event>
 7    1  0.3742599E-009  0.4778727E+02  0.7816164E-02  0.1312668E+00
        -11   -1    0    0    0    0  0.00000000000E+00  0.00000000000E+00  0.45593999997E+02  0.45594000000E+02  0.51100000000E-03 0. -1.
         11   -1    0    0    0    0 -0.00000000000E+00 -0.00000000000E+00 -0.45593999997E+02  0.45594000000E+02  0.51100000000E-03 0.  1.
    9900012    2    1    2    0    0  0.56446377855E+01 -0.15991972523E+02  0.39950194118E+02  0.47787272691E+02  0.20000007507E+02 0.  0.
        -12    1    1    2    0    0 -0.56446377855E+01  0.15991972523E+02 -0.39950194118E+02  0.43400727309E+02  0.00000000000E+00 0.  1.
         11    1    3    3    0    0 -0.47631967447E+01 -0.84690999739E+01  0.23108048810E+02  0.25067820361E+02  0.51100000000E-03 0. -1.
        -11    1    3    3    0    0  0.32435925588E+01  0.85481849643E+00  0.76983921034E+01  0.83974310707E+01  0.51100000000E-03 0.  1.
         12    1    3    3    0    0  0.71642419714E+01 -0.83776910458E+01  0.91437532043E+01  0.14322021259E+02  0.00000000000E+00 0. -1.
</event>
<event>
 7    1  0.3742599E-009  0.4778727E+02  0.7816164E-02  0.1312668E+00
        -11   -1    0    0    0    0  0.00000000000E+00  0.00000000000E+00  0.45593999997E+02  0.45594000000E+02  0.51100000000E-03 0.  1.
         11   -1    0    0    0    0 -0.00000000000E+00 -0.00000000000E+00 -0.45593999997E+02  0.45594000000E+02  0.51100000000E-03 0. -1.
    9900012    2    1    2    0    0 -0.27121554360E+02 -0.32342344409E+02 -0.10100383453E+02  0.47787266150E+02  0.19999977685E+02 0.  0.
        -12    1    1    2    0    0  0.27121554360E+02  0.32342344409E+02  0.10100383453E+02  0.43400733850E+02  0.00000000000E+00 0.  1.
         11    1    3    3    0    0 -0.12444364330E+02 -0.20547489215E+02 -0.41339249238E+00  0.24025661494E+02  0.51100000000E-03 0. -1.
        -11    1    3    3    0    0 -0.30670180122E+01 -0.93079883198E+01 -0.38299539649E+01  0.10522062235E+02  0.51100000000E-03 0.  1.
        -12    1    3    3    0    0 -0.11610172018E+02 -0.24868668746E+01 -0.58570369961E+01  0.13239542421E+02  0.00000000000E+00 0.  1.
</event>
<event>
 7    1  0.3742599E-009  0.4778727E+02  0.7816164E-02  0.1312668E+00
        -11   -1    0    0    0    0  0.00000000000E+00  0.00000000000E+00  0.45593999997E+02  0.45594000000E+02  0.51100000000E-03 0.  1.
         11   -1    0    0    0    0 -0.00000000000E+00 -0.00000000000E+00 -0.45593999997E+02  0.45594000000E+02  0.51100000000E-03 0. -1.
    9900012    2    1    2    0    0  0.52237659337E+01 -0.41158249246E+02 -0.12741041808E+02  0.47787270077E+02  0.19999995587E+02 0.  0.
        -12    1    1    2    0    0 -0.52237659337E+01  0.41158249246E+02  0.12741041808E+02  0.43400729923E+02  0.00000000000E+00 0.  1.
         11    1    3    3    0    0  0.61627534771E+01 -0.11407780708E+02 -0.42695067404E+00  0.12973021169E+02  0.51100000000E-03 0. -1.
        -11    1    3    3    0    0 -0.48286584648E+00  0.13473837483E+01 -0.86656555810E+00  0.16731821534E+01  0.51100000000E-03 0.  1.
         12    1    3    3    0    0 -0.45612169689E+00 -0.31097852286E+02 -0.11447525575E+02  0.33141066754E+02  0.00000000000E+00 0. -1.
</event>
<event>
 7    1  0.3742599E-009  0.4778727E+02  0.7816164E-02  0.1312668E+00
        -11   -1    0    0    0    0  0.00000000000E+00  0.00000000000E+00  0.45593999997E+02  0.45594000000E+02  0.51100000000E-03 0.  1.
         11   -1    0    0    0    0 -0.00000000000E+00 -0.00000000000E+00 -0.45593999997E+02  0.45594000000E+02  0.51100000000E-03 0. -1.
    9900012    2    1    2    0    0  0.13154407466E+02 -0.41188147467E+02 -0.37578595012E+01  0.47787269182E+02  0.19999991507E+02 0.  0.
        -12    1    1    2    0    0 -0.13154407466E+02  0.41188147467E+02  0.37578595012E+01  0.43400730818E+02  0.00000000000E+00 0.  1.
         11    1    3    3    0    0 -0.30307198781E+01 -0.83876465982E+01 -0.40863731640E+01  0.98100114339E+01  0.51100000000E-03 0. -1.
        -11    1    3    3    0    0  0.36956670839E+01 -0.20821027615E+01  0.21723216703E+01  0.47657201770E+01  0.51100000000E-03 0.  1.
        -12    1    3    3    0    0  0.12489460260E+02 -0.30718398107E+02 -0.18438080074E+01  0.33211537571E+02  0.00000000000E+00 0.  1.
</event>
<event>
 7    1  0.3742599E-009  0.4778727E+02  0.7816164E-02  0.1312668E+00
        -11   -1    0    0    0    0  0.00000000000E+00  0.00000000000E+00  0.45593999997E+02  0.45594000000E+02  0.51100000000E-03 0.  1.
         11   -1    0    0    0    0 -0.00000000000E+00 -0.00000000000E+00 -0.45593999997E+02  0.45594000000E+02  0.51100000000E-03 0. -1.
    9900012    2    1    2    0    0 -0.58984013213E+01 -0.42621721326E+02 -0.56763272313E+01  0.47787274686E+02  0.20000016604E+02 0.  0.
        -12    1    1    2    0    0  0.58984013213E+01  0.42621721326E+02  0.56763272313E+01  0.43400725314E+02  0.00000000000E+00 0.  1.
         11    1    3    3    0    0 -0.58317192743E+00 -0.11504120060E+02  0.67320183140E+00  0.11538547084E+02  0.51100000000E-03 0. -1.
        -11    1    3    3    0    0  0.14854533541E+01 -0.10059368459E+01 -0.50412383318E+01  0.53509405514E+01  0.51100000000E-03 0.  1.
         12    1    3    3    0    0 -0.68006827480E+01 -0.30111664420E+02 -0.13082907309E+01  0.30897787051E+02  0.00000000000E+00 0. -1.
</event>
<event>
 7    1  0.3742599E-009  0.4778727E+02  0.7816164E-02  0.1312668E+00
        -11   -1    0    0    0    0  0.00000000000E+00  0.00000000000E+00  0.45593999997E+02  0.45594000000E+02  0.51100000000E-03 0.  1.
         11   -1    0    0    0    0 -0.00000000000E+00 -0.00000000000E+00 -0.45593999997E+02  0.45594000000E+02  0.51100000000E-03 0. -1.
    9900012    2    1    2    0    0 -0.42276814962E+02 -0.67209428302E+01 -0.71500354440E+01  0.47787272325E+02  0.20000005837E+02 0.  0.
        -12    1    1    2    0    0  0.42276814962E+02  0.67209428302E+01  0.71500354440E+01  0.43400727675E+02  0.00000000000E+00 0.  1.
         11    1    3    3    0    0 -0.17472328404E+02 -0.13732641111E+00 -0.41329841740E+01  0.17955018152E+02  0.51100000000E-03 0. -1.
        -11    1    3    3    0    0 -0.26698725452E+02 -0.49114797381E+01 -0.25938187697E+01  0.27270358817E+02  0.51100000000E-03 0.  1.
        -12    1    3    3    0    0  0.18942388928E+01 -0.16721366810E+01 -0.42323250024E+00  0.25618953554E+01  0.00000000000E+00 0.  1.
</event>
<event>
 7    1  0.3742599E-009  0.4778727E+02  0.7816164E-02  0.1312668E+00
        -11   -1    0    0    0    0  0.00000000000E+00  0.00000000000E+00  0.45593999997E+02  0.45594000000E+02  0.51100000000E-03 0.  1.
         11   -1    0    0    0    0 -0.00000000000E+00 -0.00000000000E+00 -0.45593999997E+02  0.45594000000E+02  0.51100000000E-03 0. -1.
    9900012    2    1    2    0    0 -0.23886257993E+02  0.28671615316E+02 -0.22158710228E+02  0.47787270920E+02  0.19999999431E+02 0.  0.
        -12    1    1    2    0    0  0.23886257993E+02 -0.28671615316E+02  0.22158710228E+02  0.43400729080E+02  0.00000000000E+00 0.  1.
         11    1    3    3    0    0  0.98777067412E+00  0.66767419828E+01 -0.39601824129E+00  0.67610210116E+01  0.51100000000E-03 0. -1.
        -11    1    3    3    0    0 -0.20052109151E+01  0.21829244406E+01 -0.64859979010E+01  0.71312130076E+01  0.51100000000E-03 0.  1.
         12    1    3    3    0    0 -0.22868817752E+02  0.19811948892E+02 -0.15276694086E+02  0.33895036900E+02  0.00000000000E+00 0. -1.
</event>
<event>
 7    1  0.3742599E-009  0.4778727E+02  0.7816164E-02  0.1312668E+00
        -11   -1    0    0    0    0  0.00000000000E+00  0.00000000000E+00  0.45593999997E+02  0.45594000000E+02  0.51100000000E-03 0.  1.
         11   -1    0    0    0    0 -0.00000000000E+00 -0.00000000000E+00 -0.45593999997E+02  0.45594000000E+02  0.51100000000E-03 0. -1.
    9900012    2    1    2    0    0 -0.10356267838E+02 -0.38540270198E+02 -0.17059269355E+02  0.47787269806E+02  0.19999994354E+02 0.  0.
        -12    1    1    2    0    0  0.10356267838E+02  0.38540270198E+02  0.17059269355E+02  0.43400730194E+02  0.00000000000E+00 0.  1.
         11    1    3    3    0    0 -0.11559619655E+02 -0.21612972420E+02 -0.93637903236E+01  0.26237872492E+02  0.51100000000E-03 0. -1.
        -11    1    3    3    0    0 -0.30144286350E+01 -0.37201249527E+01  0.13749235451E+01  0.49816186802E+01  0.51100000000E-03 0.  1.
        -12    1    3    3    0    0  0.42177804522E+01 -0.13207172825E+02 -0.90704025767E+01  0.16567778634E+02  0.00000000000E+00 0.  1.
</event>
<event>
 7    1  0.3742599E-009  0.4778728E+02  0.7816164E-02  0.1312668E+00
        -11   -1    0    0    0    0  0.00000000000E+00  0.00000000000E+00  0.45593999997E+02  0.45594000000E+02  0.51100000000E-03 0.  1.
         11   -1    0    0    0    0 -0.00000000000E+00 -0.00000000000E+00 -0.45593999997E+02  0.45594000000E+02  0.51100000000E-03 0. -1.
    9900012    2    1    2    0    0  0.99711707671E+01  0.64907680479E+01 -0.41738094654E+02  0.47787275793E+02  0.20000021650E+02 0.  0.
        -12    1    1    2    0    0 -0.99711707671E+01 -0.64907680479E+01  0.41738094654E+02  0.43400724207E+02  0.00000000000E+00 0.  1.
         11    1    3    3    0    0  0.31328639684E+01  0.53435912203E+01 -0.29103302095E+02  0.29755184369E+02  0.51100000000E-03 0. -1.
        -11    1    3    3    0    0  0.12058363378E+01  0.34184518150E+01 -0.11227278855E+02  0.11797950874E+02  0.51100000000E-03 0.  1.
         12    1    3    3    0    0  0.56324704609E+01 -0.22712749874E+01 -0.14075137050E+01  0.62341405495E+01  0.00000000000E+00 0. -1.
</event>
<event>
 7    1  0.3742599E-009  0.4778727E+02  0.7816164E-02  0.1312668E+00
        -11   -1    0    0    0    0  0.00000000000E+00  0.00000000000E+00  0.45593999997E+02  0.45594000000E+02  0.51100000000E-03 0. -1.
         11   -1    0    0    0    0 -0.00000000000E+00 -0.00000000000E+00 -0.45593999997E+02  0.45594000000E+02  0.51100000000E-03 0.  1.
    9900012    2    1    2    0    0 -0.35606062184E+02 -0.24415302563E+02  0.44412616009E+01  0.47787268806E+02  0.19999989796E+02 0.  0.
        -12    1    1    2    0    0  0.35606062184E+02  0.24415302563E+02 -0.44412616009E+01  0.43400731194E+02  0.00000000000E+00 0.  1.
         11    1    3    3    0    0 -0.60755095485E+01 -0.91687926384E+01  0.62405036759E+01  0.12646045276E+02  0.51100000000E-03 0. -1.
        -11    1    3    3    0    0 -0.19331289805E+02 -0.11992604647E+02  0.37926171427E+01  0.23063071712E+02  0.51100000000E-03 0.  1.
        -12    1    3    3    0    0 -0.10199262831E+02 -0.32539052779E+01 -0.55918592177E+01  0.12078151819E+02  0.00000000000E+00 0.  1.
</event>
<event>
 7    1  0.3742599E-009  0.4778729E+02  0.7816164E-02  0.1312668E+00
        -11   -1    0    0    0    0  0.00000000000E+00  0.00000000000E+00  0.45593999997E+02  0.45594000000E+02  0.51100000000E-03 0. -1.
         11   -1    0    0    0    0 -0.00000000000E+00 -0.00000000000E+00 -0.45593999997E+02  0.45594000000E+02  0.51100000000E-03 0.  1.
    9900012    2    1    2    0    0  0.99841696579E+01 -0.41293889191E+02 -0.88742897902E+01  0.47787286324E+02  0.20000069665E+02 0.  0.
        -12    1    1    2    0    0 -0.99841696579E+01  0.41293889191E+02  0.88742897902E+01  0.43400713676E+02  0.00000000000E+00 0.  1.
         11    1    3    3    0    0 -0.18918891799E+01 -0.23648901975E+02 -0.11268435443E+02  0.26264566375E+02  0.51100000000E-03 0. -1.
        -11    1    3    3    0    0  0.12078884770E+01 -0.20517124984E+01  0.98590824082E+00  0.25769233728E+01  0.51100000000E-03 0.  1.
         12    1    3    3    0    0  0.10668170361E+02 -0.15593274718E+02  0.14082374120E+01  0.18945796576E+02  0.00000000000E+00 0. -1.
</event>
<event>
 7    1  0.3742599E-009  0.4778726E+02  0.7816164E-02  0.1312668E+00
        -11   -1    0    0    0    0  0.00000000000E+00  0.00000000000E+00  0.45593999997E+02  0.45594000000E+02  0.51100000000E-03 0.  1.
         11   -1    0    0    0    0 -0.00000000000E+00 -0.00000000000E+00 -0.45593999997E+02  0.45594000000E+02  0.51100000000E-03 0. -1.
    9900012    2    1    2    0    0 -0.11439769621E+02 -0.21209165534E+02 -0.36096079017E+02  0.47787263232E+02  0.19999964378E+02 0.  0.
        -12    1    1    2    0    0  0.11439769621E+02  0.21209165534E+02  0.36096079017E+02  0.43400736768E+02  0.00000000000E+00 0.  1.
         11    1    3    3    0    0 -0.12172543958E+02 -0.68221618261E+01 -0.14487696423E+02  0.20114822055E+02  0.51100000000E-03 0.  1.
        -11    1    3    3    0    0 -0.37813418197E+01 -0.28362740850E+01 -0.43754546644E+01  0.64410868977E+01  0.51100000000E-03 0. -1.
        -12    1    3    3    0    0  0.45141161564E+01 -0.11550729622E+02 -0.17232927930E+02  0.21231354279E+02  0.00000000000E+00 0.  1.
</event>
<event>
 7    1  0.3742599E-009  0.4778727E+02  0.7816164E-02  0.1312668E+00
        -11   -1    0    0    0    0  0.00000000000E+00  0.00000000000E+00  0.45593999997E+02  0.45594000000E+02  0.51100000000E-03 0.  1.
         11   -1    0    0    0    0 -0.00000000000E+00 -0.00000000000E+00 -0.45593999997E+02  0.45594000000E+02  0.51100000000E-03 0. -1.
    9900012    2    1    2    0    0  0.15833361968E+02 -0.38561292762E+02 -0.12081170175E+02  0.47787270473E+02  0.19999997394E+02 0.  0.
        -12    1    1    2    0    0 -0.15833361968E+02  0.38561292762E+02  0.12081170175E+02  0.43400729527E+02  0.00000000000E+00 0.  1.
         11    1    3    3    0    0  0.70998594921E+01 -0.38789045858E+01 -0.56023915673E+01  0.98407671006E+01  0.51100000000E-03 0. -1.
        -11    1    3    3    0    0  0.42961378488E+01 -0.27134128624E+01 -0.34178121702E+00  0.50927619657E+01  0.51100000000E-03 0.  1.
         12    1    3    3    0    0  0.44373646272E+01 -0.31968975314E+02 -0.61369973902E+01  0.32853741407E+02  0.00000000000E+00 0. -1.
</event>
<event>
 7    1  0.3742599E-009  0.4778727E+02  0.7816164E-02  0.1312668E+00
        -11   -1    0    0    0    0  0.00000000000E+00  0.00000000000E+00  0.45593999997E+02  0.45594000000E+02  0.51100000000E-03 0. -1.
         11   -1    0    0    0    0 -0.00000000000E+00 -0.00000000000E+00 -0.45593999997E+02  0.45594000000E+02  0.51100000000E-03 0.  1.
    9900012    2    1    2    0    0  0.42127328959E+01  0.43144641956E+02  0.21014872825E+01  0.47787268477E+02  0.19999988293E+02 0.  0.
        -12    1    1    2    0    0 -0.42127328959E+01 -0.43144641956E+02 -0.21014872825E+01  0.43400731523E+02  0.00000000000E+00 0.  1.
         11    1    3    3    0    0  0.36234963805E+01  0.43538511339E+01  0.23637629141E+01  0.61378433583E+01  0.51100000000E-03 0.  1.
        -11    1    3    3    0    0  0.36228238249E+01  0.31359396681E+02  0.51265877446E+01  0.31981533967E+02  0.51100000000E-03 0. -1.
         12    1    3    3    0    0 -0.30335873095E+01  0.74313941405E+01 -0.53888633762E+01  0.96678911518E+01  0.00000000000E+00 0. -1.
</event>
<event>
 7    1  0.3742599E-009  0.4778727E+02  0.7816164E-02  0.1312668E+00
        -11   -1    0    0    0    0  0.00000000000E+00  0.00000000000E+00  0.45593999997E+02  0.45594000000E+02  0.51100000000E-03 0.  1.
         11   -1    0    0    0    0 -0.00000000000E+00 -0.00000000000E+00 -0.45593999997E+02  0.45594000000E+02  0.51100000000E-03 0. -1.
    9900012    2    1    2    0    0  0.53843493223E+01  0.28025494236E+02 -0.32698678413E+02  0.47787272878E+02  0.20000008359E+02 0.  0.
        -12    1    1    2    0    0 -0.53843493223E+01 -0.28025494236E+02  0.32698678413E+02  0.43400727122E+02  0.00000000000E+00 0.  1.
         11    1    3    3    0    0  0.88307716891E+01  0.13692249272E+02 -0.15111047542E+02  0.22221700584E+02  0.51100000000E-03 0. -1.
        -11    1    3    3    0    0  0.14397784758E+00  0.13883744262E+02 -0.98496381080E+01  0.17023350301E+02  0.51100000000E-03 0.  1.
        -12    1    3    3    0    0 -0.35904002144E+01  0.44950070161E+00 -0.77379927623E+01  0.85422219926E+01  0.00000000000E+00 0.  1.
</event>
<event>
 7    1  0.5140991E-009  0.4778727E+02  0.7816164E-02  0.1312668E+00
        -11   -1    0    0    0    0  0.00000000000E+00  0.00000000000E+00  0.45593999997E+02  0.45594000000E+02  0.51100000000E-03 0. -1.
         11   -1    0    0    0    0 -0.00000000000E+00 -0.00000000000E+00 -0.45593999997E+02  0.45594000000E+02  0.51100000000E-03 0.  1.
    9900012    2    1    2    0    0 -0.41239962107E+02 -0.59076423166E+01  0.12165048665E+02  0.47787272801E+02  0.20000008011E+02 0.  0.
        -12    1    1    2    0    0  0.41239962107E+02  0.59076423166E+01 -0.12165048665E+02  0.43400727199E+02  0.00000000000E+00 0.  1.
         11    1    3    3    0    0 -0.20389666606E+02 -0.41901918032E+01  0.51939186763E+01  0.21453974064E+02  0.51100000000E-03 0. -1.
        -11    1    3    3    0    0 -0.14344237609E+02  0.32776019165E+01  0.97749505182E+01  0.17664922440E+02  0.51100000000E-03 0.  1.
        -12    1    3    3    0    0 -0.65060578923E+01 -0.49950524299E+01 -0.28038205299E+01  0.86683762978E+01  0.00000000000E+00 0.  1.
</event>
<event>
 7    1  0.3742599E-009  0.4778727E+02  0.7816164E-02  0.1312668E+00
        -11   -1    0    0    0    0  0.00000000000E+00  0.00000000000E+00  0.45593999997E+02  0.45594000000E+02  0.51100000000E-03 0. -1.
         11   -1    0    0    0    0 -0.00000000000E+00 -0.00000000000E+00 -0.45593999997E+02  0.45594000000E+02  0.51100000000E-03 0.  1.
    9900012    2    1    2    0    0 -0.42743138409E+02 -0.47032357764E+01  0.58759548731E+01  0.47787272431E+02  0.20000006324E+02 0.  0.
        -12    1    1    2    0    0  0.42743138409E+02  0.47032357764E+01 -0.58759548731E+01  0.43400727569E+02  0.00000000000E+00 0.  1.
         11    1    3    3    0    0 -0.22572151468E+02 -0.16381251394E+01  0.72236483144E+01  0.23756400635E+02  0.51100000000E-03 0. -1.
        -11    1    3    3    0    0 -0.23764761911E+01  0.34141926217E+01  0.22880769911E+01  0.47475938035E+01  0.51100000000E-03 0.  1.
         12    1    3    3    0    0 -0.17794510749E+02 -0.64793032587E+01 -0.36357704324E+01  0.19283277993E+02  0.00000000000E+00 0. -1.
</event>
<event>
 7    1  0.3742599E-009  0.4778727E+02  0.7816164E-02  0.1312668E+00
        -11   -1    0    0    0    0  0.00000000000E+00  0.00000000000E+00  0.45593999997E+02  0.45594000000E+02  0.51100000000E-03 0. -1.
         11   -1    0    0    0    0 -0.00000000000E+00 -0.00000000000E+00 -0.45593999997E+02  0.45594000000E+02  0.51100000000E-03 0.  1.
    9900012    2    1    2    0    0 -0.95176281487E+01 -0.36892881479E+02  0.20783484664E+02  0.47787272078E+02  0.20000004712E+02 0.  0.
        -12    1    1    2    0    0  0.95176281487E+01  0.36892881479E+02 -0.20783484664E+02  0.43400727922E+02  0.00000000000E+00 0.  1.
         11    1    3    3    0    0 -0.13615674466E+01 -0.46594593906E+01  0.73560003017E+01  0.88133517134E+01  0.51100000000E-03 0. -1.
        -11    1    3    3    0    0  0.80350111177E+00 -0.25148577350E+02  0.89633497085E+01  0.26710263851E+02  0.51100000000E-03 0.  1.
         12    1    3    3    0    0 -0.89595618138E+01 -0.70848447390E+01  0.44641346533E+01  0.12263656513E+02  0.00000000000E+00 0. -1.
</event>
<event>
 7    1  0.3742599E-009  0.4778727E+02  0.7816164E-02  0.1312668E+00
        -11   -1    0    0    0    0  0.00000000000E+00  0.00000000000E+00  0.45593999997E+02  0.45594000000E+02  0.51100000000E-03 0. -1.
         11   -1    0    0    0    0 -0.00000000000E+00 -0.00000000000E+00 -0.45593999997E+02  0.45594000000E+02  0.51100000000E-03 0.  1.
    9900012    2    1    2    0    0 -0.59208920884E+01  0.41704595381E+02  0.10454328482E+02  0.47787271630E+02  0.20000002670E+02 0.  0.
        -12    1    1    2    0    0  0.59208920884E+01 -0.41704595381E+02 -0.10454328482E+02  0.43400728370E+02  0.00000000000E+00 0.  1.
         11    1    3    3    0    0  0.26706454707E+01  0.15626251845E+01  0.95587207426E+00  0.32384929182E+01  0.51100000000E-03 0.  1.
        -11    1    3    3    0    0 -0.26673373490E+01 -0.53340698686E-01 -0.48274176957E+00  0.27111941356E+01  0.51100000000E-03 0. -1.
         12    1    3    3    0    0 -0.59242002101E+01  0.40195310896E+02  0.99811981773E+01  0.41837584576E+02  0.00000000000E+00 0. -1.
</event>
<event>
 7    1  0.3742599E-009  0.4778727E+02  0.7816164E-02  0.1312668E+00
        -11   -1    0    0    0    0  0.00000000000E+00  0.00000000000E+00  0.45593999997E+02  0.45594000000E+02  0.51100000000E-03 0.  1.
         11   -1    0    0    0    0 -0.00000000000E+00 -0.00000000000E+00 -0.45593999997E+02  0.45594000000E+02  0.51100000000E-03 0. -1.
    9900012    2    1    2    0    0 -0.27690389894E+02  0.33160109437E+02  0.41560403118E+01  0.47787271648E+02  0.20000002753E+02 0.  0.
        -12    1    1    2    0    0  0.27690389894E+02 -0.33160109437E+02 -0.41560403118E+01  0.43400728352E+02  0.00000000000E+00 0.  1.
         11    1    3    3    0    0  0.87991320732E+00  0.43973629088E+01  0.60184637454E+00  0.45247394537E+01  0.51100000000E-03 0. -1.
        -11    1    3    3    0    0 -0.13831778962E+02  0.48024657246E+01  0.38161327161E+01  0.15130917205E+02  0.51100000000E-03 0.  1.
        -12    1    3    3    0    0 -0.14738524139E+02  0.23960280804E+02 -0.26193877888E+00  0.28131614990E+02  0.00000000000E+00 0.  1.
</event>
<event>
 7    1  0.3742599E-009  0.4778727E+02  0.7816164E-02  0.1312668E+00
        -11   -1    0    0    0    0  0.00000000000E+00  0.00000000000E+00  0.45593999997E+02  0.45594000000E+02  0.51100000000E-03 0. -1.
         11   -1    0    0    0    0 -0.00000000000E+00 -0.00000000000E+00 -0.45593999997E+02  0.45594000000E+02  0.51100000000E-03 0.  1.
    9900012    2    1    2    0    0  0.14081063785E+02 -0.11553613598E+02  0.39393662863E+02  0.47787273989E+02  0.20000013426E+02 0.  0.
        -12    1    1    2    0    0 -0.14081063785E+02  0.11553613598E+02 -0.39393662863E+02  0.43400726011E+02  0.00000000000E+00 0.  1.
         11    1    3    3    0    0  0.62771469222E+01 -0.68877769064E+01  0.20464068806E+02  0.22486043595E+02  0.51100000000E-03 0. -1.
        -11    1    3    3    0    0  0.73112485981E+01 -0.19876629728E+01  0.20706851982E+02  0.22049464380E+02  0.51100000000E-03 0.  1.
        -12    1    3    3    0    0  0.49266826514E+00 -0.26781737183E+01 -0.17772579245E+01  0.32517660148E+01  0.00000000000E+00 0.  1.
</event>
<event>
 7    1  0.3742599E-009  0.4778727E+02  0.7816164E-02  0.1312668E+00
        -11   -1    0    0    0    0  0.00000000000E+00  0.00000000000E+00  0.45593999997E+02  0.45594000000E+02  0.51100000000E-03 0.  1.
         11   -1    0    0    0    0 -0.00000000000E+00 -0.00000000000E+00 -0.45593999997E+02  0.45594000000E+02  0.51100000000E-03 0. -1.
    9900012    2    1    2    0    0 -0.29275552953E+02 -0.75924736434E+01 -0.31127471560E+02  0.47787272558E+02  0.20000006903E+02 0.  0.
        -12    1    1    2    0    0  0.29275552953E+02  0.75924736434E+01  0.31127471560E+02  0.43400727442E+02  0.00000000000E+00 0.  1.
         11    1    3    3    0    0 -0.11780795071E+02 -0.10151532182E+00 -0.10859634218E+01  0.11831177231E+02  0.51100000000E-03 0. -1.
        -11    1    3    3    0    0 -0.29557140256E+01  0.59304970029E+00 -0.33664210924E+01  0.45189317964E+01  0.51100000000E-03 0.  1.
         12    1    3    3    0    0 -0.14539043857E+02 -0.80840080218E+01 -0.26675087046E+02  0.31437163531E+02  0.00000000000E+00 0. -1.
</event>
<event>
 7    1  0.3742599E-009  0.4778727E+02  0.7816164E-02  0.1312668E+00
        -11   -1    0    0    0    0  0.00000000000E+00  0.00000000000E+00  0.45593999997E+02  0.45594000000E+02  0.51100000000E-03 0.  1.
         11   -1    0    0    0    0 -0.00000000000E+00 -0.00000000000E+00 -0.45593999997E+02  0.45594000000E+02  0.51100000000E-03 0. -1.
    9900012    2    1    2    0    0 -0.10407460296E+02  0.16521269264E+02 -0.38760234204E+02  0.47787270473E+02  0.19999997394E+02 0.  0.
        -12    1    1    2    0    0  0.10407460296E+02 -0.16521269264E+02  0.38760234204E+02  0.43400729527E+02  0.00000000000E+00 0.  1.
         11    1    3    3    0    0 -0.66263118895E+01  0.47235946263E+01 -0.26782567582E+02  0.27991539471E+02  0.51100000000E-03 0. -1.
        -11    1    3    3    0    0 -0.10645393761E+01 -0.16385677024E+01 -0.22876163728E+01  0.30085440214E+01  0.51100000000E-03 0.  1.
        -12    1    3    3    0    0 -0.27166090300E+01  0.13436242341E+02 -0.96900502499E+01  0.16787186980E+02  0.00000000000E+00 0.  1.
</event>
<event>
 7    1  0.3742599E-009  0.4778727E+02  0.7816164E-02  0.1312668E+00
        -11   -1    0    0    0    0  0.00000000000E+00  0.00000000000E+00  0.45593999997E+02  0.45594000000E+02  0.51100000000E-03 0.  1.
         11   -1    0    0    0    0 -0.00000000000E+00 -0.00000000000E+00 -0.45593999997E+02  0.45594000000E+02  0.51100000000E-03 0. -1.
    9900012    2    1    2    0    0  0.41287315125E+02  0.68706749035E+01 -0.11479318964E+02  0.47787270424E+02  0.19999997170E+02 0.  0.
        -12    1    1    2    0    0 -0.41287315125E+02 -0.68706749035E+01  0.11479318964E+02  0.43400729576E+02  0.00000000000E+00 0.  1.
         11    1    3    3    0    0  0.17361050639E+02  0.64684274992E+01 -0.54298885929E+01  0.19306225006E+02  0.51100000000E-03 0. -1.
        -11    1    3    3    0    0  0.17533774440E+02  0.38864706689E+01 -0.96185449307E+01  0.20372881662E+02  0.51100000000E-03 0.  1.
        -12    1    3    3    0    0  0.63924900466E+01 -0.34842232647E+01  0.35691145592E+01  0.81081637557E+01  0.00000000000E+00 0.  1.
</event>
<event>
 7    1  0.3742599E-009  0.4778727E+02  0.7816164E-02  0.1312668E+00
        -11   -1    0    0    0    0  0.00000000000E+00  0.00000000000E+00  0.45593999997E+02  0.45594000000E+02  0.51100000000E-03 0.  1.
         11   -1    0    0    0    0 -0.00000000000E+00 -0.00000000000E+00 -0.45593999997E+02  0.45594000000E+02  0.51100000000E-03 0. -1.
    9900012    2    1    2    0    0  0.19107852922E+02  0.29613906302E+02 -0.25328432267E+02  0.47787274535E+02  0.20000015916E+02 0.  0.
        -12    1    1    2    0    0 -0.19107852922E+02 -0.29613906302E+02  0.25328432267E+02  0.43400725465E+02  0.00000000000E+00 0.  1.
         11    1    3    3    0    0 -0.51036338495E+00  0.74939678006E-02 -0.49597095040E+01  0.49859046892E+01  0.51100000000E-03 0. -1.
        -11    1    3    3    0    0  0.25103074212E+01  0.50000427673E+00 -0.51849147069E+01  0.57822995775E+01  0.51100000000E-03 0.  1.
        -12    1    3    3    0    0  0.17107908886E+02  0.29106408057E+02 -0.15183808056E+02  0.37019070269E+02  0.00000000000E+00 0.  1.
</event>
<event>
 7    1  0.3742599E-009  0.4778727E+02  0.7816164E-02  0.1312668E+00
        -11   -1    0    0    0    0  0.00000000000E+00  0.00000000000E+00  0.45593999997E+02  0.45594000000E+02  0.51100000000E-03 0.  1.
         11   -1    0    0    0    0 -0.00000000000E+00 -0.00000000000E+00 -0.45593999997E+02  0.45594000000E+02  0.51100000000E-03 0. -1.
    9900012    2    1    2    0    0  0.31153089335E+02  0.62196205174E+00 -0.30211283223E+02  0.47787269063E+02  0.19999990966E+02 0.  0.
        -12    1    1    2    0    0 -0.31153089335E+02 -0.62196205174E+00  0.30211283223E+02  0.43400730937E+02  0.00000000000E+00 0.  1.
         11    1    3    3    0    0  0.20880159230E+02 -0.33054122516E+01 -0.15630076167E+02  0.26290798407E+02  0.51100000000E-03 0. -1.
        -11    1    3    3    0    0  0.12059719776E+02  0.46423360165E+01 -0.14694950686E+02  0.19568589645E+02  0.51100000000E-03 0.  1.
        -12    1    3    3    0    0 -0.17867896709E+01 -0.71496171310E+00  0.11374363050E+00  0.19278810111E+01  0.00000000000E+00 0.  1.
</event>
<event>
 7    1  0.3742599E-009  0.4778727E+02  0.7816164E-02  0.1312668E+00
        -11   -1    0    0    0    0  0.00000000000E+00  0.00000000000E+00  0.45593999997E+02  0.45594000000E+02  0.51100000000E-03 0. -1.
         11   -1    0    0    0    0 -0.00000000000E+00 -0.00000000000E+00 -0.45593999997E+02  0.45594000000E+02  0.51100000000E-03 0.  1.
    9900012    2    1    2    0    0 -0.24088357388E+02 -0.35317923143E+02 -0.74845614638E+01  0.47787270547E+02  0.19999997731E+02 0.  0.
        -12    1    1    2    0    0  0.24088357388E+02  0.35317923143E+02  0.74845614638E+01  0.43400729453E+02  0.00000000000E+00 0.  1.
         11    1    3    3    0    0 -0.88867924859E+01 -0.21079995310E+02 -0.30493568802E+01  0.23078991759E+02  0.51100000000E-03 0. -1.
        -11    1    3    3    0    0 -0.15078926179E+02 -0.79148878586E+01 -0.62309192569E+01  0.18134051384E+02  0.51100000000E-03 0.  1.
         12    1    3    3    0    0 -0.12263872239E+00 -0.63230399744E+01  0.17957146733E+01  0.65742274042E+01  0.00000000000E+00 0. -1.
</event>
<event>
 7    1  0.3742599E-009  0.4778722E+02  0.7816164E-02  0.1312668E+00
        -11   -1    0    0    0    0  0.00000000000E+00  0.00000000000E+00  0.45593999997E+02  0.45594000000E+02  0.51100000000E-03 0. -1.
         11   -1    0    0    0    0 -0.00000000000E+00 -0.00000000000E+00 -0.45593999997E+02  0.45594000000E+02  0.51100000000E-03 0.  1.
    9900012    2    1    2    0    0 -0.23832912791E+02 -0.14042821560E+02  0.33442768276E+02  0.47787224438E+02  0.19999787500E+02 0.  0.
        -12    1    1    2    0    0  0.23832912791E+02  0.14042821560E+02 -0.33442768276E+02  0.43400775562E+02  0.00000000000E+00 0.  1.
         11    1    3    3    0    0 -0.18085932504E+02 -0.11149634771E+02  0.22296985862E+02  0.30798878046E+02  0.51100000000E-03 0. -1.
        -11    1    3    3    0    0 -0.16642421245E+01 -0.68742391285E+01  0.54543245818E+01  0.89316584322E+01  0.51100000000E-03 0.  1.
         12    1    3    3    0    0 -0.40827381623E+01  0.39810523396E+01  0.56914578316E+01  0.80566879598E+01  0.00000000000E+00 0. -1.
</event>
<event>
 7    1  0.3742599E-009  0.4778727E+02  0.7816164E-02  0.1312668E+00
        -11   -1    0    0    0    0  0.00000000000E+00  0.00000000000E+00  0.45593999997E+02  0.45594000000E+02  0.51100000000E-03 0. -1.
         11   -1    0    0    0    0 -0.00000000000E+00 -0.00000000000E+00 -0.45593999997E+02  0.45594000000E+02  0.51100000000E-03 0.  1.
    9900012    2    1    2    0    0  0.26025985034E+02 -0.51677692435E+01  0.34344799767E+02  0.47787274119E+02  0.20000014020E+02 0.  0.
        -12    1    1    2    0    0 -0.26025985034E+02  0.51677692435E+01 -0.34344799767E+02  0.43400725881E+02  0.00000000000E+00 0.  1.
         11    1    3    3    0    0  0.67800667895E+01 -0.53779046246E+01  0.18032191872E+01  0.88398395641E+01  0.51100000000E-03 0. -1.
        -11    1    3    3    0    0  0.31048070517E+00 -0.10943437388E+01  0.71821945781E+01  0.72717195838E+01  0.51100000000E-03 0.  1.
        -12    1    3    3    0    0  0.18935437539E+02  0.13044791199E+01  0.25359386001E+02  0.31675714971E+02  0.00000000000E+00 0.  1.
</event>
<event>
 7    1  0.3742599E-009  0.4778727E+02  0.7816164E-02  0.1312668E+00
        -11   -1    0    0    0    0  0.00000000000E+00  0.00000000000E+00  0.45593999997E+02  0.45594000000E+02  0.51100000000E-03 0.  1.
         11   -1    0    0    0    0 -0.00000000000E+00 -0.00000000000E+00 -0.45593999997E+02  0.45594000000E+02  0.51100000000E-03 0. -1.
    9900012    2    1    2    0    0 -0.42647292304E+02  0.31655823601E+00  0.80455718715E+01  0.47787274468E+02  0.20000015609E+02 0.  0.
        -12    1    1    2    0    0  0.42647292304E+02 -0.31655823601E+00 -0.80455718715E+01  0.43400725532E+02  0.00000000000E+00 0.  1.
         11    1    3    3    0    0 -0.88445694846E+01 -0.58275631649E+00 -0.39467979137E+01  0.97027433402E+01  0.51100000000E-03 0. -1.
        -11    1    3    3    0    0  0.10613746222E+01 -0.41328891863E+00  0.96979002326E+00  0.14959334107E+01  0.51100000000E-03 0.  1.
        -12    1    3    3    0    0 -0.34864097442E+02  0.13126034711E+01  0.11022579762E+02  0.36588597717E+02  0.00000000000E+00 0.  1.
</event>
<event>
 7    1  0.3742599E-009  0.4778728E+02  0.7816164E-02  0.1312668E+00
        -11   -1    0    0    0    0  0.00000000000E+00  0.00000000000E+00  0.45593999997E+02  0.45594000000E+02  0.51100000000E-03 0.  1.
         11   -1    0    0    0    0 -0.00000000000E+00 -0.00000000000E+00 -0.45593999997E+02  0.45594000000E+02  0.51100000000E-03 0. -1.
    9900012    2    1    2    0    0 -0.26436325459E+02  0.34290965329E+02  0.29787956552E+01  0.47787276152E+02  0.20000023288E+02 0.  0.
        -12    1    1    2    0    0  0.26436325459E+02 -0.34290965329E+02 -0.29787956552E+01  0.43400723848E+02  0.00000000000E+00 0.  1.
         11    1    3    3    0    0 -0.28171000435E+01  0.46831867575E+00 -0.23322097262E+01  0.36870825194E+01  0.51100000000E-03 0. -1.
        -11    1    3    3    0    0  0.71642910129E+00  0.51352687059E+00  0.26157879451E+01  0.27603129060E+01  0.51100000000E-03 0.  1.
        -12    1    3    3    0    0 -0.24335654517E+02  0.33309119783E+02  0.26952174363E+01  0.41339880727E+02  0.00000000000E+00 0.  1.
</event>
<event>
 7    1  0.3742599E-009  0.4778727E+02  0.7816164E-02  0.1312668E+00
        -11   -1    0    0    0    0  0.00000000000E+00  0.00000000000E+00  0.45593999997E+02  0.45594000000E+02  0.51100000000E-03 0.  1.
         11   -1    0    0    0    0 -0.00000000000E+00 -0.00000000000E+00 -0.45593999997E+02  0.45594000000E+02  0.51100000000E-03 0. -1.
    9900012    2    1    2    0    0  0.10802140031E+02  0.33268083963E+02 -0.25693805053E+02  0.47787271228E+02  0.20000000837E+02 0.  0.
        -12    1    1    2    0    0 -0.10802140031E+02 -0.33268083963E+02  0.25693805053E+02  0.43400728772E+02  0.00000000000E+00 0.  1.
         11    1    3    3    0    0  0.46310022122E+01  0.47124961812E+01 -0.31356791303E+01  0.73134318631E+01  0.51100000000E-03 0. -1.
        -11    1    3    3    0    0  0.10297423480E+02  0.92635224359E+01 -0.10077977772E+02  0.17129372857E+02  0.51100000000E-03 0.  1.
         12    1    3    3    0    0 -0.41262856606E+01  0.19292065346E+02 -0.12480148151E+02  0.23344466508E+02  0.00000000000E+00 0. -1.
</event>
<event>
 7    1  0.3742599E-009  0.4778728E+02  0.7816164E-02  0.1312668E+00
        -11   -1    0    0    0    0  0.00000000000E+00  0.00000000000E+00  0.45593999997E+02  0.45594000000E+02  0.51100000000E-03 0.  1.
         11   -1    0    0    0    0 -0.00000000000E+00 -0.00000000000E+00 -0.45593999997E+02  0.45594000000E+02  0.51100000000E-03 0. -1.
    9900012    2    1    2    0    0  0.24226042909E+02  0.35017076041E+02 -0.83979696301E+01  0.47787278077E+02  0.20000032066E+02 0.  0.
        -12    1    1    2    0    0 -0.24226042909E+02 -0.35017076041E+02  0.83979696301E+01  0.43400721923E+02  0.00000000000E+00 0.  1.
         11    1    3    3    0    0  0.80334724554E+01  0.80421805973E+01 -0.21414378660E+01  0.11567156299E+02  0.51100000000E-03 0. -1.
        -11    1    3    3    0    0  0.13971561131E+02  0.99590430543E+01  0.18206180250E+01  0.17254034578E+02  0.51100000000E-03 0.  1.
         12    1    3    3    0    0  0.22210093228E+01  0.17015852390E+02 -0.80771497891E+01  0.18966087200E+02  0.00000000000E+00 0. -1.
</event>
<event>
 7    1  0.3742599E-009  0.4778727E+02  0.7816164E-02  0.1312668E+00
        -11   -1    0    0    0    0  0.00000000000E+00  0.00000000000E+00  0.45593999997E+02  0.45594000000E+02  0.51100000000E-03 0.  1.
         11   -1    0    0    0    0 -0.00000000000E+00 -0.00000000000E+00 -0.45593999997E+02  0.45594000000E+02  0.51100000000E-03 0. -1.
    9900012    2    1    2    0    0 -0.24799702369E+02 -0.19084704472E+02 -0.30072780979E+02  0.47787270304E+02  0.19999996623E+02 0.  0.
        -12    1    1    2    0    0  0.24799702369E+02  0.19084704472E+02  0.30072780979E+02  0.43400729696E+02  0.00000000000E+00 0.  1.
         11    1    3    3    0    0 -0.95393620806E-01 -0.18398614225E+01 -0.47170388233E+01  0.50640542570E+01  0.51100000000E-03 0. -1.
        -11    1    3    3    0    0 -0.22537829044E+02 -0.19754202376E+02 -0.18803790195E+02  0.35380287950E+02  0.51100000000E-03 0.  1.
         12    1    3    3    0    0 -0.21664797041E+01  0.25093593256E+01 -0.65519519609E+01  0.73429280965E+01  0.00000000000E+00 0. -1.
</event>
<event>
 7    1  0.3742599E-009  0.4778727E+02  0.7816164E-02  0.1312668E+00
        -11   -1    0    0    0    0  0.00000000000E+00  0.00000000000E+00  0.45593999997E+02  0.45594000000E+02  0.51100000000E-03 0. -1.
         11   -1    0    0    0    0 -0.00000000000E+00 -0.00000000000E+00 -0.45593999997E+02  0.45594000000E+02  0.51100000000E-03 0.  1.
    9900012    2    1    2    0    0 -0.20148983706E+01  0.21936166410E+02  0.37394760826E+02  0.47787270174E+02  0.19999996029E+02 0.  0.
        -12    1    1    2    0    0  0.20148983706E+01 -0.21936166410E+02 -0.37394760826E+02  0.43400729826E+02  0.00000000000E+00 0.  1.
         11    1    3    3    0    0 -0.34653902575E+01  0.25116455005E+01  0.45493483700E+01  0.62461078769E+01  0.51100000000E-03 0. -1.
        -11    1    3    3    0    0  0.23056785625E+01  0.21796024748E+02  0.24737503804E+02  0.33050369789E+02  0.51100000000E-03 0.  1.
        -12    1    3    3    0    0 -0.85518667550E+00 -0.23715038382E+01  0.81079086519E+01  0.84907925078E+01  0.00000000000E+00 0.  1.
</event>
<event>
 7    1  0.3742599E-009  0.4778727E+02  0.7816164E-02  0.1312668E+00
        -11   -1    0    0    0    0  0.00000000000E+00  0.00000000000E+00  0.45593999997E+02  0.45594000000E+02  0.51100000000E-03 0. -1.
         11   -1    0    0    0    0 -0.00000000000E+00 -0.00000000000E+00 -0.45593999997E+02  0.45594000000E+02  0.51100000000E-03 0.  1.
    9900012    2    1    2    0    0  0.12039654624E+02 -0.24514965760E+02  0.33729606816E+02  0.47787271831E+02  0.20000003586E+02 0.  0.
        -12    1    1    2    0    0 -0.12039654624E+02  0.24514965760E+02 -0.33729606816E+02  0.43400728169E+02  0.00000000000E+00 0.  1.
         11    1    3    3    0    0  0.19700153158E+01 -0.14093982651E+02  0.14694991766E+02  0.20456394857E+02  0.51100000000E-03 0. -1.
        -11    1    3    3    0    0  0.60949388463E+01 -0.90333566873E+01  0.20209316408E+02  0.22960101971E+02  0.51100000000E-03 0.  1.
        -12    1    3    3    0    0  0.39747004616E+01 -0.13876264219E+01 -0.11747013576E+01  0.43707750029E+01  0.00000000000E+00 0.  1.
</event>
<event>
 7    1  0.4054062E-009  0.4778727E+02  0.7816164E-02  0.1312668E+00
        -11   -1    0    0    0    0  0.00000000000E+00  0.00000000000E+00  0.45593999997E+02  0.45594000000E+02  0.51100000000E-03 0.  1.
         11   -1    0    0    0    0 -0.00000000000E+00 -0.00000000000E+00 -0.45593999997E+02  0.45594000000E+02  0.51100000000E-03 0. -1.
    9900012    2    1    2    0    0  0.27337150736E+02  0.29767678360E+02  0.15817369421E+02  0.47787266588E+02  0.19999979679E+02 0.  0.
        -12    1    1    2    0    0 -0.27337150736E+02 -0.29767678360E+02 -0.15817369421E+02  0.43400733412E+02  0.00000000000E+00 0.  1.
         11    1    3    3    0    0  0.19461673844E+02  0.17227608010E+02  0.52848921756E+01  0.26523146724E+02  0.51100000000E-03 0. -1.
        -11    1    3    3    0    0  0.32101422080E+01 -0.13493149873E+01  0.52711124245E+00  0.35218617880E+01  0.51100000000E-03 0.  1.
        -12    1    3    3    0    0  0.46653346838E+01  0.13889385337E+02  0.10005366003E+02  0.17742258075E+02  0.00000000000E+00 0.  1.
</event>
<event>
 7    1  0.3742599E-009  0.4778724E+02  0.7816164E-02  0.1312668E+00
        -11   -1    0    0    0    0  0.00000000000E+00  0.00000000000E+00  0.45593999997E+02  0.45594000000E+02  0.51100000000E-03 0.  1.
         11   -1    0    0    0    0 -0.00000000000E+00 -0.00000000000E+00 -0.45593999997E+02  0.45594000000E+02  0.51100000000E-03 0. -1.
    9900012    2    1    2    0    0 -0.23338861397E+02  0.29556507041E+02 -0.21571652914E+02  0.47787242297E+02  0.19999868927E+02 0.  0.
        -12    1    1    2    0    0  0.23338861397E+02 -0.29556507041E+02  0.21571652914E+02  0.43400757703E+02  0.00000000000E+00 0.  1.
         11    1    3    3    0    0 -0.81617212440E+01  0.20243682111E+01 -0.26422271581E+00  0.84131786041E+01  0.51100000000E-03 0. -1.
        -11    1    3    3    0    0 -0.27593924203E+01  0.11291187582E+01 -0.53332593194E+01  0.61100581771E+01  0.51100000000E-03 0.  1.
         12    1    3    3    0    0 -0.12417747732E+02  0.26403020072E+02 -0.15974170879E+02  0.33264005515E+02  0.00000000000E+00 0. -1.
</event>
<event>
 7    1  0.3742599E-009  0.4778727E+02  0.7816164E-02  0.1312668E+00
        -11   -1    0    0    0    0  0.00000000000E+00  0.00000000000E+00  0.45593999997E+02  0.45594000000E+02  0.51100000000E-03 0. -1.
         11   -1    0    0    0    0 -0.00000000000E+00 -0.00000000000E+00 -0.45593999997E+02  0.45594000000E+02  0.51100000000E-03 0.  1.
    9900012    2    1    2    0    0 -0.19757119343E+02 -0.34462920829E+02  0.17481029898E+02  0.47787273242E+02  0.20000010022E+02 0.  0.
        -12    1    1    2    0    0  0.19757119343E+02  0.34462920829E+02 -0.17481029898E+02  0.43400726758E+02  0.00000000000E+00 0.  1.
         11    1    3    3    0    0  0.11814755419E+01 -0.24869967945E+00 -0.53094764990E+00  0.13189547584E+01  0.51100000000E-03 0. -1.
        -11    1    3    3    0    0 -0.56605122211E+01 -0.89915655887E+01 -0.20248242819E+01  0.10816171410E+02  0.51100000000E-03 0.  1.
         12    1    3    3    0    0 -0.15278082664E+02 -0.25222655561E+02  0.20036801830E+02  0.35652147074E+02  0.00000000000E+00 0. -1.
</event>
<event>
 7    1  0.3742599E-009  0.4778727E+02  0.7816164E-02  0.1312668E+00
        -11   -1    0    0    0    0  0.00000000000E+00  0.00000000000E+00  0.45593999997E+02  0.45594000000E+02  0.51100000000E-03 0.  1.
         11   -1    0    0    0    0 -0.00000000000E+00 -0.00000000000E+00 -0.45593999997E+02  0.45594000000E+02  0.51100000000E-03 0. -1.
    9900012    2    1    2    0    0 -0.27040930473E+02 -0.14681721168E+02 -0.30608144072E+02  0.47787270273E+02  0.19999996481E+02 0.  0.
        -12    1    1    2    0    0  0.27040930473E+02  0.14681721168E+02  0.30608144072E+02  0.43400729727E+02  0.00000000000E+00 0.  1.
         11    1    3    3    0    0 -0.44785530910E+01  0.33417497077E+01 -0.67507939354E+01  0.87634438389E+01  0.51100000000E-03 0. -1.
        -11    1    3    3    0    0  0.10435532573E+01 -0.22706192343E+01 -0.20915665537E+01  0.32587368746E+01  0.51100000000E-03 0.  1.
         12    1    3    3    0    0 -0.23605930640E+02 -0.15752851641E+02 -0.21765783583E+02  0.35765089559E+02  0.00000000000E+00 0. -1.
</event>
<event>
 7    1  0.3742599E-009  0.4778727E+02  0.7816164E-02  0.1312668E+00
        -11   -1    0    0    0    0  0.00000000000E+00  0.00000000000E+00  0.45593999997E+02  0.45594000000E+02  0.51100000000E-03 0.  1.
         11   -1    0    0    0    0 -0.00000000000E+00 -0.00000000000E+00 -0.45593999997E+02  0.45594000000E+02  0.51100000000E-03 0. -1.
    9900012    2    1    2    0    0  0.35220797299E+02 -0.56804990988E+01 -0.24715387768E+02  0.47787273913E+02  0.20000013077E+02 0.  0.
        -12    1    1    2    0    0 -0.35220797299E+02  0.56804990988E+01  0.24715387768E+02  0.43400726087E+02  0.00000000000E+00 0.  1.
         11    1    3    3    0    0  0.24290143179E+02  0.38675227940E+00 -0.13321772436E+02  0.27706141090E+02  0.51100000000E-03 0. -1.
        -11    1    3    3    0    0  0.71417010122E+01 -0.45462201026E+00 -0.39761432963E+00  0.71671941466E+01  0.51100000000E-03 0.  1.
        -12    1    3    3    0    0  0.37889531071E+01 -0.56126293679E+01 -0.10996001003E+02  0.12913938676E+02  0.00000000000E+00 0.  1.
</event>
<event>
 7    1  0.3742599E-009  0.4778727E+02  0.7816164E-02  0.1312668E+00
        -11   -1    0    0    0    0  0.00000000000E+00  0.00000000000E+00  0.45593999997E+02  0.45594000000E+02  0.51100000000E-03 0.  1.
         11   -1    0    0    0    0 -0.00000000000E+00 -0.00000000000E+00 -0.45593999997E+02  0.45594000000E+02  0.51100000000E-03 0. -1.
    9900012    2    1    2    0    0 -0.17628827529E+02 -0.29666634617E+02 -0.26319930828E+02  0.47787268113E+02  0.19999986635E+02 0.  0.
        -12    1    1    2    0    0  0.17628827529E+02  0.29666634617E+02  0.26319930828E+02  0.43400731887E+02  0.00000000000E+00 0.  1.
         11    1    3    3    0    0 -0.54526644419E+01 -0.55179456937E+01 -0.13157525997E+01  0.78683212542E+01  0.51100000000E-03 0.  1.
        -11    1    3    3    0    0 -0.14058043592E+02 -0.17825940762E+02 -0.24347402568E+02  0.33289469292E+02  0.51100000000E-03 0. -1.
        -12    1    3    3    0    0  0.18818805041E+01 -0.63227481608E+01 -0.65677565981E+00  0.66294775665E+01  0.00000000000E+00 0.  1.
</event>
<event>
 7    1  0.3742599E-009  0.4778726E+02  0.7816164E-02  0.1312668E+00
        -11   -1    0    0    0    0  0.00000000000E+00  0.00000000000E+00  0.45593999997E+02  0.45594000000E+02  0.51100000000E-03 0.  1.
         11   -1    0    0    0    0 -0.00000000000E+00 -0.00000000000E+00 -0.45593999997E+02  0.45594000000E+02  0.51100000000E-03 0. -1.
    9900012    2    1    2    0    0  0.28465513441E+01  0.17616157880E+02 -0.39562507461E+02  0.47787264181E+02  0.19999968708E+02 0.  0.
        -12    1    1    2    0    0 -0.28465513441E+01 -0.17616157880E+02  0.39562507461E+02  0.43400735819E+02  0.00000000000E+00 0.  1.
         11    1    3    3    0    0  0.70688876617E+01  0.87661675591E+01 -0.30512357507E+02  0.32524126850E+02  0.51100000000E-03 0. -1.
        -11    1    3    3    0    0 -0.55538714271E+00  0.27196639050E+00  0.12326987149E+01  0.13791181888E+01  0.51100000000E-03 0.  1.
        -12    1    3    3    0    0 -0.36669491749E+01  0.85780239300E+01 -0.10282848669E+02  0.13884019142E+02  0.00000000000E+00 0.  1.
</event>
<event>
 7    1  0.3742599E-009  0.4778727E+02  0.7816164E-02  0.1312668E+00
        -11   -1    0    0    0    0  0.00000000000E+00  0.00000000000E+00  0.45593999997E+02  0.45594000000E+02  0.51100000000E-03 0.  1.
         11   -1    0    0    0    0 -0.00000000000E+00 -0.00000000000E+00 -0.45593999997E+02  0.45594000000E+02  0.51100000000E-03 0. -1.
    9900012    2    1    2    0    0  0.10747237498E+02  0.23677097314E+02 -0.34749324247E+02  0.47787267441E+02  0.19999983569E+02 0.  0.
        -12    1    1    2    0    0 -0.10747237498E+02 -0.23677097314E+02  0.34749324247E+02  0.43400732559E+02  0.00000000000E+00 0.  1.
         11    1    3    3    0    0  0.55481910973E+00  0.22905695464E+01 -0.12884317955E+02  0.13098098432E+02  0.51100000000E-03 0. -1.
        -11    1    3    3    0    0  0.83693668648E+01  0.14980114908E+02 -0.22153806500E+02  0.28022157074E+02  0.51100000000E-03 0.  1.
        -12    1    3    3    0    0  0.18230515237E+01  0.64064128591E+01  0.28880020819E+00  0.66670119349E+01  0.00000000000E+00 0.  1.
</event>
<event>
 7    1  0.3742599E-009  0.4778727E+02  0.7816164E-02  0.1312668E+00
        -11   -1    0    0    0    0  0.00000000000E+00  0.00000000000E+00  0.45593999997E+02  0.45594000000E+02  0.51100000000E-03 0.  1.
         11   -1    0    0    0    0 -0.00000000000E+00 -0.00000000000E+00 -0.45593999997E+02  0.45594000000E+02  0.51100000000E-03 0. -1.
    9900012    2    1    2    0    0 -0.51614648095E+01 -0.40767626795E+02 -0.13963639212E+02  0.47787270357E+02  0.19999996865E+02 0.  0.
        -12    1    1    2    0    0  0.51614648095E+01  0.40767626795E+02  0.13963639212E+02  0.43400729643E+02  0.00000000000E+00 0.  1.
         11    1    3    3    0    0  0.16722643284E+01 -0.72449868265E-01 -0.24915486105E+01  0.30015881974E+01  0.51100000000E-03 0. -1.
        -11    1    3    3    0    0 -0.53737199535E+01 -0.77137038288E+01  0.10872940134E+01  0.94636304572E+01  0.51100000000E-03 0.  1.
         12    1    3    3    0    0 -0.14600091843E+01 -0.32981473098E+02 -0.12559384615E+02  0.35322051702E+02  0.00000000000E+00 0. -1.
</event>
<event>
 7    1  0.3742599E-009  0.4778727E+02  0.7816164E-02  0.1312668E+00
        -11   -1    0    0    0    0  0.00000000000E+00  0.00000000000E+00  0.45593999997E+02  0.45594000000E+02  0.51100000000E-03 0.  1.
         11   -1    0    0    0    0 -0.00000000000E+00 -0.00000000000E+00 -0.45593999997E+02  0.45594000000E+02  0.51100000000E-03 0. -1.
    9900012    2    1    2    0    0 -0.16599246691E+02  0.60885301305E+01 -0.39636067449E+02  0.47787273824E+02  0.20000012672E+02 0.  0.
        -12    1    1    2    0    0  0.16599246691E+02 -0.60885301305E+01  0.39636067449E+02  0.43400726176E+02  0.00000000000E+00 0.  1.
         11    1    3    3    0    0 -0.97943471978E+01 -0.17312620194E+01 -0.19445620555E+02  0.21841672652E+02  0.51100000000E-03 0. -1.
        -11    1    3    3    0    0 -0.48418497682E+01  0.10426263944E+02 -0.19460020191E+02  0.22601833446E+02  0.51100000000E-03 0.  1.
         12    1    3    3    0    0 -0.19630497246E+01 -0.26064717943E+01 -0.73042670244E+00  0.33437677257E+01  0.00000000000E+00 0. -1.
</event>
<event>
 7    1  0.3742599E-009  0.4778728E+02  0.7816164E-02  0.1312668E+00
        -11   -1    0    0    0    0  0.00000000000E+00  0.00000000000E+00  0.45593999997E+02  0.45594000000E+02  0.51100000000E-03 0.  1.
         11   -1    0    0    0    0 -0.00000000000E+00 -0.00000000000E+00 -0.45593999997E+02  0.45594000000E+02  0.51100000000E-03 0. -1.
    9900012    2    1    2    0    0  0.42288083732E+02  0.52526433711E+01 -0.82310712951E+01  0.47787276241E+02  0.20000023693E+02 0.  0.
        -12    1    1    2    0    0 -0.42288083732E+02 -0.52526433711E+01  0.82310712951E+01  0.43400723759E+02  0.00000000000E+00 0.  1.
         11    1    3    3    0    0  0.30412103159E+02  0.31795226299E+01  0.22031250391E+01  0.30657122221E+02  0.51100000000E-03 0. -1.
        -11    1    3    3    0    0  0.58566133460E+01 -0.20987910919E+01 -0.54540965072E+01  0.82735731642E+01  0.51100000000E-03 0.  1.
        -12    1    3    3    0    0  0.60193672277E+01  0.41719118332E+01 -0.49800998269E+01  0.88565808556E+01  0.00000000000E+00 0.  1.
</event>
<event>
 7    1  0.3742599E-009  0.4778725E+02  0.7816164E-02  0.1312668E+00
        -11   -1    0    0    0    0  0.00000000000E+00  0.00000000000E+00  0.45593999997E+02  0.45594000000E+02  0.51100000000E-03 0. -1.
         11   -1    0    0    0    0 -0.00000000000E+00 -0.00000000000E+00 -0.45593999997E+02  0.45594000000E+02  0.51100000000E-03 0.  1.
    9900012    2    1    2    0    0  0.18450567838E+02 -0.10196459369E+02  0.37937232953E+02  0.47787252526E+02  0.19999915565E+02 0.  0.
        -12    1    1    2    0    0 -0.18450567838E+02  0.10196459369E+02 -0.37937232953E+02  0.43400747474E+02  0.00000000000E+00 0.  1.
         11    1    3    3    0    0  0.32708961409E+01  0.54540803387E+00 -0.52314488672E+00  0.33570690075E+01  0.51100000000E-03 0.  1.
        -11    1    3    3    0    0  0.10856264465E+01 -0.91298191603E-01 -0.81776280129E+00  0.13622247984E+01  0.51100000000E-03 0. -1.
         12    1    3    3    0    0  0.14094045250E+02 -0.10650569211E+02  0.39278140641E+02  0.43067958720E+02  0.00000000000E+00 0. -1.
</event>
<event>
 7    1  0.3742599E-009  0.4778727E+02  0.7816164E-02  0.1312668E+00
        -11   -1    0    0    0    0  0.00000000000E+00  0.00000000000E+00  0.45593999997E+02  0.45594000000E+02  0.51100000000E-03 0.  1.
         11   -1    0    0    0    0 -0.00000000000E+00 -0.00000000000E+00 -0.45593999997E+02  0.45594000000E+02  0.51100000000E-03 0. -1.
    9900012    2    1    2    0    0 -0.38892280489E+02  0.19256403623E+02  0.45235907522E+00  0.47787272000E+02  0.20000004359E+02 0.  0.
        -12    1    1    2    0    0  0.38892280489E+02 -0.19256403623E+02 -0.45235907522E+00  0.43400728000E+02  0.00000000000E+00 0.  1.
         11    1    3    3    0    0 -0.34797051108E+01 -0.13705433790E+01 -0.63193322539E-01  0.37404184885E+01  0.51100000000E-03 0. -1.
        -11    1    3    3    0    0 -0.21644419843E+02  0.14028035450E+02  0.80517909919E+01  0.27020326189E+02  0.51100000000E-03 0.  1.
        -12    1    3    3    0    0 -0.13768155535E+02  0.65989115521E+01 -0.75362385941E+01  0.17026527323E+02  0.00000000000E+00 0.  1.
</event>
<event>
 7    1  0.3742599E-009  0.4778732E+02  0.7816164E-02  0.1312668E+00
        -11   -1    0    0    0    0  0.00000000000E+00  0.00000000000E+00  0.45593999997E+02  0.45594000000E+02  0.51100000000E-03 0. -1.
         11   -1    0    0    0    0 -0.00000000000E+00 -0.00000000000E+00 -0.45593999997E+02  0.45594000000E+02  0.51100000000E-03 0.  1.
    9900012    2    1    2    0    0 -0.15458346855E+01  0.43354368288E+02  0.12760475100E+01  0.47787318533E+02  0.20000216519E+02 0.  0.
        -12    1    1    2    0    0  0.15458346855E+01 -0.43354368288E+02 -0.12760475100E+01  0.43400681467E+02  0.00000000000E+00 0.  1.
         11    1    3    3    0    0  0.81798209826E+00 -0.63453451923E+00 -0.98424634970E+00  0.14284501767E+01  0.51100000000E-03 0.  1.
        -11    1    3    3    0    0  0.30819978361E+01  0.11220213683E+02  0.57114145732E+01  0.12961950564E+02  0.51100000000E-03 0. -1.
         12    1    3    3    0    0 -0.54458146199E+01  0.32768689125E+02 -0.34511207135E+01  0.33396917792E+02  0.00000000000E+00 0. -1.
</event>
<event>
 7    1  0.3742599E-009  0.4778727E+02  0.7816164E-02  0.1312668E+00
        -11   -1    0    0    0    0  0.00000000000E+00  0.00000000000E+00  0.45593999997E+02  0.45594000000E+02  0.51100000000E-03 0.  1.
         11   -1    0    0    0    0 -0.00000000000E+00 -0.00000000000E+00 -0.45593999997E+02  0.45594000000E+02  0.51100000000E-03 0. -1.
    9900012    2    1    2    0    0  0.27234826618E+02 -0.14971306332E+02 -0.30294354727E+02  0.47787265875E+02  0.19999976431E+02 0.  0.
        -12    1    1    2    0    0 -0.27234826618E+02  0.14971306332E+02  0.30294354727E+02  0.43400734125E+02  0.00000000000E+00 0.  1.
         11    1    3    3    0    0  0.20416343528E+02 -0.10521378412E+02 -0.20838659999E+02  0.31012517433E+02  0.51100000000E-03 0. -1.
        -11    1    3    3    0    0  0.65732757904E+01  0.14799780611E+01 -0.83637840957E+01  0.10740166402E+02  0.51100000000E-03 0.  1.
         12    1    3    3    0    0  0.24520729973E+00 -0.59299059811E+01 -0.10919106331E+01  0.60345820399E+01  0.00000000000E+00 0. -1.
</event>
<event>
 7    1  0.3742599E-009  0.4778726E+02  0.7816164E-02  0.1312668E+00
        -11   -1    0    0    0    0  0.00000000000E+00  0.00000000000E+00  0.45593999997E+02  0.45594000000E+02  0.51100000000E-03 0.  1.
         11   -1    0    0    0    0 -0.00000000000E+00 -0.00000000000E+00 -0.45593999997E+02  0.45594000000E+02  0.51100000000E-03 0. -1.
    9900012    2    1    2    0    0  0.25506514693E+02 -0.84918636380E+01 -0.34072425898E+02  0.47787259841E+02  0.19999948918E+02 0.  0.
        -12    1    1    2    0    0 -0.25506514693E+02  0.84918636380E+01  0.34072425898E+02  0.43400740159E+02  0.00000000000E+00 0.  1.
         11    1    3    3    0    0  0.60377172714E+01  0.27320808715E+00 -0.91767508507E+00  0.61131661462E+01  0.51100000000E-03 0. -1.
        -11    1    3    3    0    0  0.12763756803E+02  0.13225308144E+01 -0.13822492135E+02  0.18860643270E+02  0.51100000000E-03 0.  1.
         12    1    3    3    0    0  0.67050406186E+01 -0.10087602540E+02 -0.19332258678E+02  0.22813450425E+02  0.00000000000E+00 0. -1.
</event>
<event>
 7    1  0.5176692E-009  0.4778726E+02  0.7816164E-02  0.1312668E+00
        -11   -1    0    0    0    0  0.00000000000E+00  0.00000000000E+00  0.45593999997E+02  0.45594000000E+02  0.51100000000E-03 0. -1.
         11   -1    0    0    0    0 -0.00000000000E+00 -0.00000000000E+00 -0.45593999997E+02  0.45594000000E+02  0.51100000000E-03 0.  1.
    9900012    2    1    2    0    0 -0.11125060864E+02  0.34370133872E+02  0.24053093230E+02  0.47787258352E+02  0.19999942131E+02 0.  0.
        -12    1    1    2    0    0  0.11125060864E+02 -0.34370133872E+02 -0.24053093230E+02  0.43400741648E+02  0.00000000000E+00 0.  1.
         11    1    3    3    0    0 -0.44679071275E+01  0.10534982726E+02  0.12744411180E+02  0.17127990884E+02  0.51100000000E-03 0. -1.
        -11    1    3    3    0    0 -0.77571369564E+01  0.24240087708E+02  0.13017641198E+02  0.28586955215E+02  0.51100000000E-03 0.  1.
        -12    1    3    3    0    0  0.10999832202E+01 -0.40493656073E+00 -0.17089591487E+01  0.20723122532E+01  0.00000000000E+00 0.  1.
</event>
<event>
 7    1  0.3742599E-009  0.4778726E+02  0.7816164E-02  0.1312668E+00
        -11   -1    0    0    0    0  0.00000000000E+00  0.00000000000E+00  0.45593999997E+02  0.45594000000E+02  0.51100000000E-03 0. -1.
         11   -1    0    0    0    0 -0.00000000000E+00 -0.00000000000E+00 -0.45593999997E+02  0.45594000000E+02  0.51100000000E-03 0.  1.
    9900012    2    1    2    0    0 -0.38395191762E+02 -0.20085672736E+02  0.24492497813E+01  0.47787264705E+02  0.19999971094E+02 0.  0.
        -12    1    1    2    0    0  0.38395191762E+02  0.20085672736E+02 -0.24492497813E+01  0.43400735295E+02  0.00000000000E+00 0.  1.
         11    1    3    3    0    0 -0.83712513303E+01  0.15530376353E+01  0.19460868974E+00  0.85163165473E+01  0.51100000000E-03 0. -1.
        -11    1    3    3    0    0  0.46906887750E+00 -0.24758527070E+01  0.20619702207E+01  0.32560088592E+01  0.51100000000E-03 0.  1.
         12    1    3    3    0    0 -0.30493009309E+02 -0.19162857664E+02  0.19267087086E+00  0.36014939298E+02  0.00000000000E+00 0. -1.
</event>
<event>
 7    1  0.3742599E-009  0.4778728E+02  0.7816164E-02  0.1312668E+00
        -11   -1    0    0    0    0  0.00000000000E+00  0.00000000000E+00  0.45593999997E+02  0.45594000000E+02  0.51100000000E-03 0.  1.
         11   -1    0    0    0    0 -0.00000000000E+00 -0.00000000000E+00 -0.45593999997E+02  0.45594000000E+02  0.51100000000E-03 0. -1.
    9900012    2    1    2    0    0  0.84294034231E+01 -0.11409916787E+02 -0.41016848169E+02  0.47787275618E+02  0.20000020854E+02 0.  0.
        -12    1    1    2    0    0 -0.84294034231E+01  0.11409916787E+02  0.41016848169E+02  0.43400724382E+02  0.00000000000E+00 0.  1.
         11    1    3    3    0    0 -0.37897841292E+00  0.97393525228E+00 -0.17028608247E+02  0.17060646928E+02  0.51100000000E-03 0. -1.
        -11    1    3    3    0    0  0.54220835267E+01  0.59600708906E-02 -0.32160314257E+01  0.63041164080E+01  0.51100000000E-03 0.  1.
         12    1    3    3    0    0  0.33862983093E+01 -0.12389812111E+02 -0.20772208496E+02  0.24422512282E+02  0.00000000000E+00 0. -1.
</event>
<event>
 7    1  0.3742599E-009  0.4778727E+02  0.7816164E-02  0.1312668E+00
        -11   -1    0    0    0    0  0.00000000000E+00  0.00000000000E+00  0.45593999997E+02  0.45594000000E+02  0.51100000000E-03 0. -1.
         11   -1    0    0    0    0 -0.00000000000E+00 -0.00000000000E+00 -0.45593999997E+02  0.45594000000E+02  0.51100000000E-03 0.  1.
    9900012    2    1    2    0    0  0.14448875723E+02  0.40785222425E+02 -0.33791844726E+01  0.47787271139E+02  0.20000000433E+02 0.  0.
        -12    1    1    2    0    0 -0.14448875723E+02 -0.40785222425E+02  0.33791844726E+01  0.43400728861E+02  0.00000000000E+00 0.  1.
         11    1    3    3    0    0 -0.18426069572E+01  0.14510973465E+02  0.36173169163E+01  0.15068129719E+02  0.51100000000E-03 0. -1.
        -11    1    3    3    0    0  0.11759317997E+01  0.36839456601E+01 -0.36772223859E+01  0.53363129557E+01  0.51100000000E-03 0.  1.
         12    1    3    3    0    0  0.15115550881E+02  0.22590303300E+02 -0.33192790030E+01  0.27382828464E+02  0.00000000000E+00 0. -1.
</event>
<event>
 7    1  0.3742599E-009  0.4778726E+02  0.7816164E-02  0.1312668E+00
        -11   -1    0    0    0    0  0.00000000000E+00  0.00000000000E+00  0.45593999997E+02  0.45594000000E+02  0.51100000000E-03 0.  1.
         11   -1    0    0    0    0 -0.00000000000E+00 -0.00000000000E+00 -0.45593999997E+02  0.45594000000E+02  0.51100000000E-03 0. -1.
    9900012    2    1    2    0    0  0.48324997207E+01  0.88243404547E+00 -0.43121830524E+02  0.47787262551E+02  0.19999961275E+02 0.  0.
        -12    1    1    2    0    0 -0.48324997207E+01 -0.88243404547E+00  0.43121830524E+02  0.43400737449E+02  0.00000000000E+00 0.  1.
         11    1    3    3    0    0 -0.31016453162E+01 -0.54194508495E+01 -0.18455924267E+02  0.19483628820E+02  0.51100000000E-03 0. -1.
        -11    1    3    3    0    0  0.57388441668E+00  0.13919864779E+01  0.53253091723E+00  0.15970469991E+01  0.51100000000E-03 0.  1.
         12    1    3    3    0    0  0.73602606202E+01  0.49098984171E+01 -0.25198437174E+02  0.26706586732E+02  0.00000000000E+00 0. -1.
</event>
<event>
 7    1  0.3742599E-009  0.4778729E+02  0.7816164E-02  0.1312668E+00
        -11   -1    0    0    0    0  0.00000000000E+00  0.00000000000E+00  0.45593999997E+02  0.45594000000E+02  0.51100000000E-03 0. -1.
         11   -1    0    0    0    0 -0.00000000000E+00 -0.00000000000E+00 -0.45593999997E+02  0.45594000000E+02  0.51100000000E-03 0.  1.
    9900012    2    1    2    0    0 -0.31790244591E+02  0.23132426371E+02  0.18381871611E+02  0.47787285664E+02  0.20000066655E+02 0.  0.
        -12    1    1    2    0    0  0.31790244591E+02 -0.23132426371E+02 -0.18381871611E+02  0.43400714336E+02  0.00000000000E+00 0.  1.
         11    1    3    3    0    0 -0.16236323783E+02  0.33408102196E+01  0.70680943561E+01  0.18020465615E+02  0.51100000000E-03 0. -1.
        -11    1    3    3    0    0 -0.76971039955E+01  0.73596419456E+01  0.10626265301E+02  0.15044176747E+02  0.51100000000E-03 0.  1.
         12    1    3    3    0    0 -0.78568168130E+01  0.12431974206E+02  0.68751195385E+00  0.14722643302E+02  0.00000000000E+00 0. -1.
</event>
<event>
 7    1  0.3742599E-009  0.4778726E+02  0.7816164E-02  0.1312668E+00
        -11   -1    0    0    0    0  0.00000000000E+00  0.00000000000E+00  0.45593999997E+02  0.45594000000E+02  0.51100000000E-03 0.  1.
         11   -1    0    0    0    0 -0.00000000000E+00 -0.00000000000E+00 -0.45593999997E+02  0.45594000000E+02  0.51100000000E-03 0. -1.
    9900012    2    1    2    0    0 -0.10245093207E+02 -0.17750983671E+02 -0.38256561156E+02  0.47787264665E+02  0.19999970916E+02 0.  0.
        -12    1    1    2    0    0  0.10245093207E+02  0.17750983671E+02  0.38256561156E+02  0.43400735335E+02  0.00000000000E+00 0.  1.
         11    1    3    3    0    0 -0.12134303177E+02 -0.35660278171E+01 -0.16817290652E+02  0.21042317675E+02  0.51100000000E-03 0. -1.
        -11    1    3    3    0    0 -0.17414570603E+01 -0.56971792952E+01 -0.12722617323E+02  0.14048327887E+02  0.51100000000E-03 0.  1.
        -12    1    3    3    0    0  0.36306670301E+01 -0.84877765587E+01 -0.87166531808E+01  0.12696619104E+02  0.00000000000E+00 0.  1.
</event>
<event>
 7    1  0.3742599E-009  0.4778727E+02  0.7816164E-02  0.1312668E+00
        -11   -1    0    0    0    0  0.00000000000E+00  0.00000000000E+00  0.45593999997E+02  0.45594000000E+02  0.51100000000E-03 0. -1.
         11   -1    0    0    0    0 -0.00000000000E+00 -0.00000000000E+00 -0.45593999997E+02  0.45594000000E+02  0.51100000000E-03 0.  1.
    9900012    2    1    2    0    0  0.32594910427E+02 -0.21450714295E+02  0.19001630711E+02  0.47787270753E+02  0.19999998672E+02 0.  0.
        -12    1    1    2    0    0 -0.32594910427E+02  0.21450714295E+02 -0.19001630711E+02  0.43400729247E+02  0.00000000000E+00 0.  1.
         11    1    3    3    0    0  0.14033185544E+02 -0.16243469703E+02  0.79296950643E+01  0.22883633203E+02  0.51100000000E-03 0. -1.
        -11    1    3    3    0    0 -0.13270643043E+01 -0.54328849152E+00 -0.38118343271E+00  0.14837665326E+01  0.51100000000E-03 0.  1.
         12    1    3    3    0    0  0.19888789187E+02 -0.46639561002E+01  0.11453119080E+02  0.23419871017E+02  0.00000000000E+00 0. -1.
</event>
<event>
 7    1  0.3742599E-009  0.4778727E+02  0.7816164E-02  0.1312668E+00
        -11   -1    0    0    0    0  0.00000000000E+00  0.00000000000E+00  0.45593999997E+02  0.45594000000E+02  0.51100000000E-03 0.  1.
         11   -1    0    0    0    0 -0.00000000000E+00 -0.00000000000E+00 -0.45593999997E+02  0.45594000000E+02  0.51100000000E-03 0. -1.
    9900012    2    1    2    0    0 -0.31505851357E+02  0.24867374613E+02 -0.16511154549E+02  0.47787271729E+02  0.20000003122E+02 0.  0.
        -12    1    1    2    0    0  0.31505851357E+02 -0.24867374613E+02  0.16511154549E+02  0.43400728271E+02  0.00000000000E+00 0.  1.
         11    1    3    3    0    0 -0.42655846482E+01 -0.75397328366E-01 -0.25824855537E+01  0.49869959940E+01  0.51100000000E-03 0.  1.
        -11    1    3    3    0    0 -0.19580119146E+02  0.94084072501E+01 -0.20963809861E+01  0.21824161066E+02  0.51100000000E-03 0. -1.
         12    1    3    3    0    0 -0.76601475632E+01  0.15534364691E+02 -0.11832288010E+02  0.20976114669E+02  0.00000000000E+00 0. -1.
</event>
<event>
 7    1  0.3742599E-009  0.4778724E+02  0.7816164E-02  0.1312668E+00
        -11   -1    0    0    0    0  0.00000000000E+00  0.00000000000E+00  0.45593999997E+02  0.45594000000E+02  0.51100000000E-03 0. -1.
         11   -1    0    0    0    0 -0.00000000000E+00 -0.00000000000E+00 -0.45593999997E+02  0.45594000000E+02  0.51100000000E-03 0.  1.
    9900012    2    1    2    0    0  0.14881376365E+02 -0.26964227313E+02  0.30579426692E+02  0.47787236713E+02  0.19999843468E+02 0.  0.
        -12    1    1    2    0    0 -0.14881376365E+02  0.26964227313E+02 -0.30579426692E+02  0.43400763287E+02  0.00000000000E+00 0.  1.
         11    1    3    3    0    0  0.94701466476E+01 -0.23072998132E+02  0.22436801012E+02  0.33547830932E+02  0.51100000000E-03 0. -1.
        -11    1    3    3    0    0  0.32286621668E+01 -0.59488656237E+01  0.14739523680E+01  0.69271781730E+01  0.51100000000E-03 0.  1.
         12    1    3    3    0    0  0.21825675502E+01  0.20576364430E+01  0.66686733123E+01  0.73122276079E+01  0.00000000000E+00 0. -1.
</event>
<event>
 7    1  0.3742599E-009  0.4778727E+02  0.7816164E-02  0.1312668E+00
        -11   -1    0    0    0    0  0.00000000000E+00  0.00000000000E+00  0.45593999997E+02  0.45594000000E+02  0.51100000000E-03 0. -1.
         11   -1    0    0    0    0 -0.00000000000E+00 -0.00000000000E+00 -0.45593999997E+02  0.45594000000E+02  0.51100000000E-03 0.  1.
    9900012    2    1    2    0    0 -0.13715945872E+02  0.37478110026E+02  0.17055418107E+02  0.47787272021E+02  0.20000004452E+02 0.  0.
        -12    1    1    2    0    0  0.13715945872E+02 -0.37478110026E+02 -0.17055418107E+02  0.43400727979E+02  0.00000000000E+00 0.  1.
         11    1    3    3    0    0 -0.10146484667E+02  0.16681064301E+02  0.67212175931E+01  0.20649063502E+02  0.51100000000E-03 0.  1.
        -11    1    3    3    0    0 -0.49876059434E+01  0.20764637684E+02  0.12353139190E+02  0.24670760817E+02  0.51100000000E-03 0. -1.
         12    1    3    3    0    0  0.14181447386E+01  0.32408041382E-01 -0.20189386763E+01  0.24674477015E+01  0.00000000000E+00 0. -1.
</event>
<event>
 7    1  0.3742599E-009  0.4778727E+02  0.7816164E-02  0.1312668E+00
        -11   -1    0    0    0    0  0.00000000000E+00  0.00000000000E+00  0.45593999997E+02  0.45594000000E+02  0.51100000000E-03 0. -1.
         11   -1    0    0    0    0 -0.00000000000E+00 -0.00000000000E+00 -0.45593999997E+02  0.45594000000E+02  0.51100000000E-03 0.  1.
    9900012    2    1    2    0    0  0.42928281947E+02 -0.49043950729E+01 -0.40906092053E+01  0.47787267683E+02  0.19999984675E+02 0.  0.
        -12    1    1    2    0    0 -0.42928281947E+02  0.49043950729E+01  0.40906092053E+01  0.43400732317E+02  0.00000000000E+00 0.  1.
         11    1    3    3    0    0  0.11158219876E+02  0.27308086180E+01  0.27811698260E+00  0.11490889253E+02  0.51100000000E-03 0. -1.
        -11    1    3    3    0    0  0.12110158587E+02  0.30258613566E+01  0.28349794058E+01  0.12800347122E+02  0.51100000000E-03 0.  1.
        -12    1    3    3    0    0  0.19659903484E+02 -0.10661065048E+02 -0.72037055937E+01  0.23496031308E+02  0.00000000000E+00 0.  1.
</event>
<event>
 7    1  0.3742599E-009  0.4778727E+02  0.7816164E-02  0.1312668E+00
        -11   -1    0    0    0    0  0.00000000000E+00  0.00000000000E+00  0.45593999997E+02  0.45594000000E+02  0.51100000000E-03 0.  1.
         11   -1    0    0    0    0 -0.00000000000E+00 -0.00000000000E+00 -0.45593999997E+02  0.45594000000E+02  0.51100000000E-03 0. -1.
    9900012    2    1    2    0    0 -0.15353229295E+02 -0.76209345567E+01 -0.39872586913E+02  0.47787268665E+02  0.19999989150E+02 0.  0.
        -12    1    1    2    0    0  0.15353229295E+02  0.76209345567E+01  0.39872586913E+02  0.43400731335E+02  0.00000000000E+00 0.  1.
         11    1    3    3    0    0 -0.10800500857E+01 -0.21347574402E+01 -0.24946659627E+01  0.34564513656E+01  0.51100000000E-03 0. -1.
        -11    1    3    3    0    0 -0.16931848046E+02 -0.88653525977E+01 -0.26840020630E+02  0.32949486530E+02  0.51100000000E-03 0.  1.
         12    1    3    3    0    0  0.26586688361E+01  0.33791754812E+01 -0.10537900320E+02  0.11381330769E+02  0.00000000000E+00 0. -1.
</event>
<event>
 7    1  0.3742599E-009  0.4778727E+02  0.7816164E-02  0.1312668E+00
        -11   -1    0    0    0    0  0.00000000000E+00  0.00000000000E+00  0.45593999997E+02  0.45594000000E+02  0.51100000000E-03 0.  1.
         11   -1    0    0    0    0 -0.00000000000E+00 -0.00000000000E+00 -0.45593999997E+02  0.45594000000E+02  0.51100000000E-03 0. -1.
    9900012    2    1    2    0    0  0.43067569367E+01  0.41737077669E+02  0.11094659751E+02  0.47787270943E+02  0.19999999539E+02 0.  0.
        -12    1    1    2    0    0 -0.43067569367E+01 -0.41737077669E+02 -0.11094659751E+02  0.43400729057E+02  0.00000000000E+00 0.  1.
         11    1    3    3    0    0  0.54081221936E+00  0.98186192188E+01  0.75010983555E+01  0.12367871200E+02  0.51100000000E-03 0. -1.
        -11    1    3    3    0    0  0.74358725453E+01  0.12952817562E+02  0.57027310065E+01  0.15987145602E+02  0.51100000000E-03 0.  1.
        -12    1    3    3    0    0 -0.36699278280E+01  0.18965640889E+02 -0.21091696115E+01  0.19432254142E+02  0.00000000000E+00 0.  1.
</event>
<event>
 7    1  0.3742599E-009  0.4778726E+02  0.7816164E-02  0.1312668E+00
        -11   -1    0    0    0    0  0.00000000000E+00  0.00000000000E+00  0.45593999997E+02  0.45594000000E+02  0.51100000000E-03 0. -1.
         11   -1    0    0    0    0 -0.00000000000E+00 -0.00000000000E+00 -0.45593999997E+02  0.45594000000E+02  0.51100000000E-03 0.  1.
    9900012    2    1    2    0    0 -0.11015314193E+02  0.17281465962E+02  0.38257520231E+02  0.47787261910E+02  0.19999958351E+02 0.  0.
        -12    1    1    2    0    0  0.11015314193E+02 -0.17281465962E+02 -0.38257520231E+02  0.43400738090E+02  0.00000000000E+00 0.  1.
         11    1    3    3    0    0 -0.97046801680E+01  0.55473127495E+01  0.13323628756E+02  0.17391738826E+02  0.51100000000E-03 0. -1.
        -11    1    3    3    0    0  0.40077182647E+01  0.48551008579E+01  0.33617228769E+01  0.71368754361E+01  0.51100000000E-03 0.  1.
         12    1    3    3    0    0 -0.53183522896E+01  0.68790523550E+01  0.21572168598E+02  0.23258647647E+02  0.00000000000E+00 0. -1.
</event>
<event>
 7    1  0.3742599E-009  0.4778727E+02  0.7816164E-02  0.1312668E+00
        -11   -1    0    0    0    0  0.00000000000E+00  0.00000000000E+00  0.45593999997E+02  0.45594000000E+02  0.51100000000E-03 0.  1.
         11   -1    0    0    0    0 -0.00000000000E+00 -0.00000000000E+00 -0.45593999997E+02  0.45594000000E+02  0.51100000000E-03 0. -1.
    9900012    2    1    2    0    0  0.49062820044E+01 -0.24051128345E+01 -0.43055396245E+02  0.47787270552E+02  0.19999997753E+02 0.  0.
        -12    1    1    2    0    0 -0.49062820044E+01  0.24051128345E+01  0.43055396245E+02  0.43400729448E+02  0.00000000000E+00 0.  1.
         11    1    3    3    0    0  0.62841129374E+01 -0.58982169913E+01 -0.12582272356E+02  0.15250987410E+02  0.51100000000E-03 0.  1.
        -11    1    3    3    0    0  0.89860701831E+00  0.36509091090E+01 -0.26032148714E+01  0.45731127062E+01  0.51100000000E-03 0. -1.
         12    1    3    3    0    0 -0.22764379512E+01 -0.15780495219E+00 -0.27869909017E+02  0.27963170435E+02  0.00000000000E+00 0. -1.
</event>
<event>
 7    1  0.3742599E-009  0.4778728E+02  0.7816164E-02  0.1312668E+00
        -11   -1    0    0    0    0  0.00000000000E+00  0.00000000000E+00  0.45593999997E+02  0.45594000000E+02  0.51100000000E-03 0. -1.
         11   -1    0    0    0    0 -0.00000000000E+00 -0.00000000000E+00 -0.45593999997E+02  0.45594000000E+02  0.51100000000E-03 0.  1.
    9900012    2    1    2    0    0  0.19140230213E+02  0.38944441537E+02  0.77754391275E+00  0.47787279801E+02  0.20000039925E+02 0.  0.
        -12    1    1    2    0    0 -0.19140230213E+02 -0.38944441537E+02 -0.77754391275E+00  0.43400720199E+02  0.00000000000E+00 0.  1.
         11    1    3    3    0    0  0.76678723718E+01  0.82588931068E+01  0.48670903934E+01  0.12275754609E+02  0.51100000000E-03 0. -1.
        -11    1    3    3    0    0  0.64790575304E+00 -0.42025417992E+00 -0.24129186211E+01  0.25334900777E+01  0.51100000000E-03 0.  1.
        -12    1    3    3    0    0  0.10824452088E+02  0.31105802610E+02 -0.16766278595E+01  0.32978035115E+02  0.00000000000E+00 0.  1.
</event>
<event>
 7    1  0.3742599E-009  0.4778726E+02  0.7816164E-02  0.1312668E+00
        -11   -1    0    0    0    0  0.00000000000E+00  0.00000000000E+00  0.45593999997E+02  0.45594000000E+02  0.51100000000E-03 0.  1.
         11   -1    0    0    0    0 -0.00000000000E+00 -0.00000000000E+00 -0.45593999997E+02  0.45594000000E+02  0.51100000000E-03 0. -1.
    9900012    2    1    2    0    0  0.35630692505E+02  0.10957157324E+01 -0.24756357115E+02  0.47787261999E+02  0.19999958760E+02 0.  0.
        -12    1    1    2    0    0 -0.35630692505E+02 -0.10957157324E+01  0.24756357115E+02  0.43400738001E+02  0.00000000000E+00 0.  1.
         11    1    3    3    0    0  0.95276467491E+01 -0.51201515050E+01 -0.90373471949E+01  0.14094880226E+02  0.51100000000E-03 0. -1.
        -11    1    3    3    0    0  0.31612463552E+01 -0.34923502848E+01 -0.12089986948E+01  0.48632979690E+01  0.51100000000E-03 0.  1.
        -12    1    3    3    0    0  0.22941799401E+02  0.97082175222E+01 -0.14510011226E+02  0.28829083804E+02  0.00000000000E+00 0.  1.
</event>
<event>
 7    1  0.3742599E-009  0.4778727E+02  0.7816164E-02  0.1312668E+00
        -11   -1    0    0    0    0  0.00000000000E+00  0.00000000000E+00  0.45593999997E+02  0.45594000000E+02  0.51100000000E-03 0.  1.
         11   -1    0    0    0    0 -0.00000000000E+00 -0.00000000000E+00 -0.45593999997E+02  0.45594000000E+02  0.51100000000E-03 0. -1.
    9900012    2    1    2    0    0  0.23084715279E+01 -0.33011662972E+02 -0.28080676370E+02  0.47787270532E+02  0.19999997664E+02 0.  0.
        -12    1    1    2    0    0 -0.23084715279E+01  0.33011662972E+02  0.28080676370E+02  0.43400729468E+02  0.00000000000E+00 0.  1.
         11    1    3    3    0    0 -0.34374604710E+00 -0.26437929183E+02 -0.17340178610E+02  0.31619045768E+02  0.51100000000E-03 0. -1.
        -11    1    3    3    0    0 -0.23667104306E+01 -0.33125430712E+01 -0.23577371547E+00  0.40779712318E+01  0.51100000000E-03 0.  1.
        -12    1    3    3    0    0  0.50189280056E+01 -0.32611907179E+01 -0.10504724044E+02  0.12090253532E+02  0.00000000000E+00 0.  1.
</event>
<event>
 7    1  0.3742599E-009  0.4778725E+02  0.7816164E-02  0.1312668E+00
        -11   -1    0    0    0    0  0.00000000000E+00  0.00000000000E+00  0.45593999997E+02  0.45594000000E+02  0.51100000000E-03 0. -1.
         11   -1    0    0    0    0 -0.00000000000E+00 -0.00000000000E+00 -0.45593999997E+02  0.45594000000E+02  0.51100000000E-03 0.  1.
    9900012    2    1    2    0    0 -0.14296353036E+02  0.40559435768E+02 -0.58456687028E+01  0.47787246752E+02  0.19999889241E+02 0.  0.
        -12    1    1    2    0    0  0.14296353036E+02 -0.40559435768E+02  0.58456687028E+01  0.43400753248E+02  0.00000000000E+00 0.  1.
         11    1    3    3    0    0  0.25275624723E+01 -0.45212911061E+00 -0.30065682824E+00  0.25852248594E+01  0.51100000000E-03 0.  1.
        -11    1    3    3    0    0  0.61286280535E+00  0.26189079855E+01 -0.18635207072E+00  0.26961096436E+01  0.51100000000E-03 0. -1.
         12    1    3    3    0    0 -0.17436778314E+02  0.38392656893E+02 -0.53586598038E+01  0.42505912249E+02  0.00000000000E+00 0. -1.
</event>
<event>
 7    1  0.3742599E-009  0.4778726E+02  0.7816164E-02  0.1312668E+00
        -11   -1    0    0    0    0  0.00000000000E+00  0.00000000000E+00  0.45593999997E+02  0.45594000000E+02  0.51100000000E-03 0.  1.
         11   -1    0    0    0    0 -0.00000000000E+00 -0.00000000000E+00 -0.45593999997E+02  0.45594000000E+02  0.51100000000E-03 0. -1.
    9900012    2    1    2    0    0 -0.29707871292E+02 -0.95720899817E+01 -0.30156946558E+02  0.47787263266E+02  0.19999964536E+02 0.  0.
        -12    1    1    2    0    0  0.29707871292E+02  0.95720899817E+01  0.30156946558E+02  0.43400736734E+02  0.00000000000E+00 0.  1.
         11    1    3    3    0    0  0.17174126726E+01  0.67113515312E+00 -0.11338914566E+01  0.21646336360E+01  0.51100000000E-03 0. -1.
        -11    1    3    3    0    0 -0.10715901777E+02  0.20203643635E+01 -0.11523269852E+02  0.15864998310E+02  0.51100000000E-03 0.  1.
         12    1    3    3    0    0 -0.20709382188E+02 -0.12263589498E+02 -0.17499785250E+02  0.29757631320E+02  0.00000000000E+00 0. -1.
</event>
<event>
 7    1  0.3742599E-009  0.4778726E+02  0.7816164E-02  0.1312668E+00
        -11   -1    0    0    0    0  0.00000000000E+00  0.00000000000E+00  0.45593999997E+02  0.45594000000E+02  0.51100000000E-03 0.  1.
         11   -1    0    0    0    0 -0.00000000000E+00 -0.00000000000E+00 -0.45593999997E+02  0.45594000000E+02  0.51100000000E-03 0. -1.
    9900012    2    1    2    0    0 -0.29924684706E+00  0.19380087015E+02 -0.38832292880E+02  0.47787259318E+02  0.19999946534E+02 0.  0.
        -12    1    1    2    0    0  0.29924684706E+00 -0.19380087015E+02  0.38832292880E+02  0.43400740682E+02  0.00000000000E+00 0.  1.
         11    1    3    3    0    0  0.39259848551E+01  0.74156301557E+01 -0.10351838066E+02  0.13325369762E+02  0.51100000000E-03 0. -1.
        -11    1    3    3    0    0  0.46077207516E+01  0.42807170696E+01 -0.16737024286E+02  0.17879698302E+02  0.51100000000E-03 0.  1.
        -12    1    3    3    0    0 -0.88329524537E+01  0.76837397898E+01 -0.11743430529E+02  0.16582191254E+02  0.00000000000E+00 0.  1.
</event>
<event>
 7    1  0.3742599E-009  0.4778727E+02  0.7816164E-02  0.1312668E+00
        -11   -1    0    0    0    0  0.00000000000E+00  0.00000000000E+00  0.45593999997E+02  0.45594000000E+02  0.51100000000E-03 0.  1.
         11   -1    0    0    0    0 -0.00000000000E+00 -0.00000000000E+00 -0.45593999997E+02  0.45594000000E+02  0.51100000000E-03 0. -1.
    9900012    2    1    2    0    0  0.92817470476E+01 -0.42311174604E+02 -0.26902135437E+01  0.47787267592E+02  0.19999984258E+02 0.  0.
        -12    1    1    2    0    0 -0.92817470476E+01  0.42311174604E+02  0.26902135437E+01  0.43400732408E+02  0.00000000000E+00 0.  1.
         11    1    3    3    0    0  0.13607744858E+01  0.51008799427E-01 -0.41737306257E+00  0.14242575727E+01  0.51100000000E-03 0.  1.
        -11    1    3    3    0    0  0.11038490517E+02 -0.28059544003E+02  0.40384753691E+01  0.30421958617E+02  0.51100000000E-03 0. -1.
         12    1    3    3    0    0 -0.31175179556E+01 -0.14302639401E+02 -0.63113158502E+01  0.15941051402E+02  0.00000000000E+00 0. -1.
</event>
<event>
 7    1  0.3742599E-009  0.4778727E+02  0.7816164E-02  0.1312668E+00
        -11   -1    0    0    0    0  0.00000000000E+00  0.00000000000E+00  0.45593999997E+02  0.45594000000E+02  0.51100000000E-03 0.  1.
         11   -1    0    0    0    0 -0.00000000000E+00 -0.00000000000E+00 -0.45593999997E+02  0.45594000000E+02  0.51100000000E-03 0. -1.
    9900012    2    1    2    0    0 -0.34474861441E+02  0.20500371096E+02 -0.16578357958E+02  0.47787271446E+02  0.20000001831E+02 0.  0.
        -12    1    1    2    0    0  0.34474861441E+02 -0.20500371096E+02  0.16578357958E+02  0.43400728554E+02  0.00000000000E+00 0.  1.
         11    1    3    3    0    0 -0.20925758167E+02  0.11599970130E+02 -0.14666461399E+02  0.28063352475E+02  0.51100000000E-03 0. -1.
        -11    1    3    3    0    0 -0.74827993003E+01  0.37507808568E+00 -0.47643656448E+01  0.88787470511E+01  0.51100000000E-03 0.  1.
        -12    1    3    3    0    0 -0.60663039730E+01  0.85253228799E+01  0.28524690852E+01  0.10845171920E+02  0.00000000000E+00 0.  1.
</event>
<event>
 7    1  0.3742599E-009  0.4778727E+02  0.7816164E-02  0.1312668E+00
        -11   -1    0    0    0    0  0.00000000000E+00  0.00000000000E+00  0.45593999997E+02  0.45594000000E+02  0.51100000000E-03 0.  1.
         11   -1    0    0    0    0 -0.00000000000E+00 -0.00000000000E+00 -0.45593999997E+02  0.45594000000E+02  0.51100000000E-03 0. -1.
    9900012    2    1    2    0    0 -0.40119283633E+02  0.10496370481E+02 -0.12802053093E+02  0.47787271021E+02  0.19999999894E+02 0.  0.
        -12    1    1    2    0    0  0.40119283633E+02 -0.10496370481E+02  0.12802053093E+02  0.43400728979E+02  0.00000000000E+00 0.  1.
         11    1    3    3    0    0 -0.25578016833E+01 -0.31624745009E+01 -0.54513297787E+00  0.41037500710E+01  0.51100000000E-03 0. -1.
        -11    1    3    3    0    0 -0.23817261572E+02  0.24898700051E+01 -0.45801305024E+01  0.24381119686E+02  0.51100000000E-03 0.  1.
         12    1    3    3    0    0 -0.13744220377E+02  0.11168974977E+02 -0.76767896125E+01  0.19302401264E+02  0.00000000000E+00 0. -1.
</event>
<event>
 7    1  0.4195255E-009  0.4778727E+02  0.7816164E-02  0.1312668E+00
        -11   -1    0    0    0    0  0.00000000000E+00  0.00000000000E+00  0.45593999997E+02  0.45594000000E+02  0.51100000000E-03 0. -1.
         11   -1    0    0    0    0 -0.00000000000E+00 -0.00000000000E+00 -0.45593999997E+02  0.45594000000E+02  0.51100000000E-03 0.  1.
    9900012    2    1    2    0    0 -0.24943835121E+02  0.11789085138E+02  0.33502923245E+02  0.47787270688E+02  0.19999998373E+02 0.  0.
        -12    1    1    2    0    0  0.24943835121E+02 -0.11789085138E+02 -0.33502923245E+02  0.43400729312E+02  0.00000000000E+00 0.  1.
         11    1    3    3    0    0 -0.57922409742E+01  0.47734789363E+01  0.15737535740E+02  0.17435773229E+02  0.51100000000E-03 0. -1.
        -11    1    3    3    0    0 -0.19473992496E+02  0.87593847177E+01  0.18666840545E+02  0.28362195623E+02  0.51100000000E-03 0.  1.
        -12    1    3    3    0    0  0.32239834987E+00 -0.17437785158E+01 -0.90145304059E+00  0.19893018354E+01  0.00000000000E+00 0.  1.
</event>
<event>
 7    1  0.3742599E-009  0.4778727E+02  0.7816164E-02  0.1312668E+00
        -11   -1    0    0    0    0  0.00000000000E+00  0.00000000000E+00  0.45593999997E+02  0.45594000000E+02  0.51100000000E-03 0. -1.
         11   -1    0    0    0    0 -0.00000000000E+00 -0.00000000000E+00 -0.45593999997E+02  0.45594000000E+02  0.51100000000E-03 0.  1.
    9900012    2    1    2    0    0  0.35819640050E+02  0.79544780362E+01  0.23179797721E+02  0.47787270092E+02  0.19999995657E+02 0.  0.
        -12    1    1    2    0    0 -0.35819640050E+02 -0.79544780362E+01 -0.23179797721E+02  0.43400729908E+02  0.00000000000E+00 0.  1.
         11    1    3    3    0    0  0.84720881786E+01  0.67143017684E+01  0.68446883912E+00  0.10831741513E+02  0.51100000000E-03 0. -1.
        -11    1    3    3    0    0  0.26856788318E+01  0.20446225054E+01 -0.26578034414E+00  0.33858516550E+01  0.51100000000E-03 0.  1.
         12    1    3    3    0    0  0.24661873040E+02 -0.80444623769E+00  0.22761109226E+02  0.33569676924E+02  0.00000000000E+00 0. -1.
</event>
<event>
 7    1  0.3742599E-009  0.4778727E+02  0.7816164E-02  0.1312668E+00
        -11   -1    0    0    0    0  0.00000000000E+00  0.00000000000E+00  0.45593999997E+02  0.45594000000E+02  0.51100000000E-03 0. -1.
         11   -1    0    0    0    0 -0.00000000000E+00 -0.00000000000E+00 -0.45593999997E+02  0.45594000000E+02  0.51100000000E-03 0.  1.
    9900012    2    1    2    0    0 -0.16753152721E+02 -0.39862840417E+02 -0.37295118207E+01  0.47787269238E+02  0.19999991765E+02 0.  0.
        -12    1    1    2    0    0  0.16753152721E+02  0.39862840417E+02  0.37295118207E+01  0.43400730762E+02  0.00000000000E+00 0.  1.
         11    1    3    3    0    0  0.10339848763E+01 -0.12535055095E+02 -0.78432406652E-01  0.12577872748E+02  0.51100000000E-03 0. -1.
        -11    1    3    3    0    0  0.18762805970E+01 -0.14756262601E+01  0.57443498585E+00  0.24551736298E+01  0.51100000000E-03 0.  1.
         12    1    3    3    0    0 -0.19663418194E+02 -0.25852159062E+02 -0.42255143999E+01  0.32754222860E+02  0.00000000000E+00 0. -1.
</event>
<event>
 7    1  0.3742599E-009  0.4778727E+02  0.7816164E-02  0.1312668E+00
        -11   -1    0    0    0    0  0.00000000000E+00  0.00000000000E+00  0.45593999997E+02  0.45594000000E+02  0.51100000000E-03 0.  1.
         11   -1    0    0    0    0 -0.00000000000E+00 -0.00000000000E+00 -0.45593999997E+02  0.45594000000E+02  0.51100000000E-03 0. -1.
    9900012    2    1    2    0    0  0.19288876485E+02  0.25467587583E+02 -0.29376258536E+02  0.47787270295E+02  0.19999996583E+02 0.  0.
        -12    1    1    2    0    0 -0.19288876485E+02 -0.25467587583E+02  0.29376258536E+02  0.43400729705E+02  0.00000000000E+00 0.  1.
         11    1    3    3    0    0  0.11671256601E+02  0.89448782700E+01 -0.16861319691E+02  0.22372598863E+02  0.51100000000E-03 0. -1.
        -11    1    3    3    0    0  0.21729773998E+01  0.82597248327E+01 -0.12946348706E+02  0.15509765639E+02  0.51100000000E-03 0.  1.
        -12    1    3    3    0    0  0.54446424835E+01  0.82629844803E+01  0.43140986105E+00  0.99049057927E+01  0.00000000000E+00 0.  1.
</event>
<event>
 7    1  0.3742599E-009  0.4778727E+02  0.7816164E-02  0.1312668E+00
        -11   -1    0    0    0    0  0.00000000000E+00  0.00000000000E+00  0.45593999997E+02  0.45594000000E+02  0.51100000000E-03 0.  1.
         11   -1    0    0    0    0 -0.00000000000E+00 -0.00000000000E+00 -0.45593999997E+02  0.45594000000E+02  0.51100000000E-03 0. -1.
    9900012    2    1    2    0    0  0.95502236878E+01  0.39043694643E+02  0.16370910859E+02  0.47787267446E+02  0.19999983594E+02 0.  0.
        -12    1    1    2    0    0 -0.95502236878E+01 -0.39043694643E+02 -0.16370910859E+02  0.43400732554E+02  0.00000000000E+00 0.  1.
         11    1    3    3    0    0 -0.32971876356E+01 -0.63135915568E-01  0.20050580708E+01  0.38594935648E+01  0.51100000000E-03 0. -1.
        -11    1    3    3    0    0  0.21681099681E+01  0.28652939623E+01  0.27558908422E+00  0.36036869910E+01  0.51100000000E-03 0.  1.
        -12    1    3    3    0    0  0.10679301355E+02  0.36241536596E+02  0.14090263704E+02  0.40324086890E+02  0.00000000000E+00 0.  1.
</event>
<event>
 7    1  0.3742599E-009  0.4778727E+02  0.7816164E-02  0.1312668E+00
        -11   -1    0    0    0    0  0.00000000000E+00  0.00000000000E+00  0.45593999997E+02  0.45594000000E+02  0.51100000000E-03 0.  1.
         11   -1    0    0    0    0 -0.00000000000E+00 -0.00000000000E+00 -0.45593999997E+02  0.45594000000E+02  0.51100000000E-03 0. -1.
    9900012    2    1    2    0    0  0.48768002750E+01  0.89074691462E+01 -0.42195939046E+02  0.47787268906E+02  0.19999990248E+02 0.  0.
        -12    1    1    2    0    0 -0.48768002750E+01 -0.89074691462E+01  0.42195939046E+02  0.43400731094E+02  0.00000000000E+00 0.  1.
         11    1    3    3    0    0  0.35139055542E+01 -0.12476626169E+01 -0.73380209707E+00  0.38003499876E+01  0.51100000000E-03 0. -1.
        -11    1    3    3    0    0  0.15508580149E+01  0.49237057603E+01 -0.51233443240E+01  0.72730115028E+01  0.51100000000E-03 0.  1.
         12    1    3    3    0    0 -0.18796329414E+00  0.52314260028E+01 -0.36338792625E+02  0.36713907415E+02  0.00000000000E+00 0. -1.
</event>
<event>
 7    1  0.3742599E-009  0.4778727E+02  0.7816164E-02  0.1312668E+00
        -11   -1    0    0    0    0  0.00000000000E+00  0.00000000000E+00  0.45593999997E+02  0.45594000000E+02  0.51100000000E-03 0. -1.
         11   -1    0    0    0    0 -0.00000000000E+00 -0.00000000000E+00 -0.45593999997E+02  0.45594000000E+02  0.51100000000E-03 0.  1.
    9900012    2    1    2    0    0  0.20366463354E+02 -0.31917123882E+02  0.21216207599E+02  0.47787273147E+02  0.20000009587E+02 0.  0.
        -12    1    1    2    0    0 -0.20366463354E+02  0.31917123882E+02 -0.21216207599E+02  0.43400726853E+02  0.00000000000E+00 0.  1.
         11    1    3    3    0    0 -0.80336498549E+00 -0.34160106162E+01  0.61435343385E+01  0.70751352113E+01  0.51100000000E-03 0. -1.
        -11    1    3    3    0    0  0.18310018250E+01 -0.80288642520E+01  0.84145398673E+01  0.11773687201E+02  0.51100000000E-03 0.  1.
        -12    1    3    3    0    0  0.19338826515E+02 -0.20472249014E+02  0.66581333933E+01  0.28938450735E+02  0.00000000000E+00 0.  1.
</event>
<event>
 7    1  0.3742599E-009  0.4778727E+02  0.7816164E-02  0.1312668E+00
        -11   -1    0    0    0    0  0.00000000000E+00  0.00000000000E+00  0.45593999997E+02  0.45594000000E+02  0.51100000000E-03 0. -1.
         11   -1    0    0    0    0 -0.00000000000E+00 -0.00000000000E+00 -0.45593999997E+02  0.45594000000E+02  0.51100000000E-03 0.  1.
    9900012    2    1    2    0    0 -0.34411384662E+02 -0.89395746815E+01  0.24891039413E+02  0.47787271516E+02  0.20000002151E+02 0.  0.
        -12    1    1    2    0    0  0.34411384662E+02  0.89395746815E+01 -0.24891039413E+02  0.43400728484E+02  0.00000000000E+00 0.  1.
         11    1    3    3    0    0 -0.81199356708E+01 -0.55557574979E+01  0.13461329251E+02  0.16673547377E+02  0.51100000000E-03 0. -1.
        -11    1    3    3    0    0 -0.18082913934E+02 -0.42631924427E+01  0.13045792863E+02  0.22701526333E+02  0.51100000000E-03 0.  1.
        -12    1    3    3    0    0 -0.82085350577E+01  0.87937525911E+00 -0.16160827011E+01  0.84121978066E+01  0.00000000000E+00 0.  1.
</event>
<event>
 7    1  0.3742599E-009  0.4778727E+02  0.7816164E-02  0.1312668E+00
        -11   -1    0    0    0    0  0.00000000000E+00  0.00000000000E+00  0.45593999997E+02  0.45594000000E+02  0.51100000000E-03 0.  1.
         11   -1    0    0    0    0 -0.00000000000E+00 -0.00000000000E+00 -0.45593999997E+02  0.45594000000E+02  0.51100000000E-03 0. -1.
    9900012    2    1    2    0    0  0.40524681741E+02 -0.15449875492E+02  0.16355166410E+01  0.47787269619E+02  0.19999993500E+02 0.  0.
        -12    1    1    2    0    0 -0.40524681741E+02  0.15449875492E+02 -0.16355166410E+01  0.43400730381E+02  0.00000000000E+00 0.  1.
         11    1    3    3    0    0  0.10146274090E+02  0.11226510039E+01  0.18409632984E+01  0.10372866976E+02  0.51100000000E-03 0. -1.
        -11    1    3    3    0    0  0.30814088034E+01  0.13117993484E+01 -0.32144117129E+01  0.46420190290E+01  0.51100000000E-03 0.  1.
        -12    1    3    3    0    0  0.27296998848E+02 -0.17884325844E+02  0.30089650555E+01  0.32772383613E+02  0.00000000000E+00 0.  1.
</event>
<event>
 7    1  0.3742599E-009  0.4778727E+02  0.7816164E-02  0.1312668E+00
        -11   -1    0    0    0    0  0.00000000000E+00  0.00000000000E+00  0.45593999997E+02  0.45594000000E+02  0.51100000000E-03 0.  1.
         11   -1    0    0    0    0 -0.00000000000E+00 -0.00000000000E+00 -0.45593999997E+02  0.45594000000E+02  0.51100000000E-03 0. -1.
    9900012    2    1    2    0    0  0.16426422142E+02  0.37546998763E+02 -0.14283521784E+02  0.47787268957E+02  0.19999990482E+02 0.  0.
        -12    1    1    2    0    0 -0.16426422142E+02 -0.37546998763E+02  0.14283521784E+02  0.43400731043E+02  0.00000000000E+00 0.  1.
         11    1    3    3    0    0  0.29480367455E+01  0.12716137378E+02 -0.78243460039E+01  0.15218786453E+02  0.51100000000E-03 0. -1.
        -11    1    3    3    0    0  0.86557737044E+01  0.41596432071E+01 -0.60265686486E+01  0.11337750216E+02  0.51100000000E-03 0.  1.
        -12    1    3    3    0    0  0.48226116919E+01  0.20671218179E+02 -0.43260713171E+00  0.21230732287E+02  0.00000000000E+00 0.  1.
</event>
<event>
 7    1  0.3742599E-009  0.4778728E+02  0.7816164E-02  0.1312668E+00
        -11   -1    0    0    0    0  0.00000000000E+00  0.00000000000E+00  0.45593999997E+02  0.45594000000E+02  0.51100000000E-03 0. -1.
         11   -1    0    0    0    0 -0.00000000000E+00 -0.00000000000E+00 -0.45593999997E+02  0.45594000000E+02  0.51100000000E-03 0.  1.
    9900012    2    1    2    0    0 -0.27426173057E+02  0.32044338889E+02  0.10226814788E+02  0.47787281526E+02  0.20000047788E+02 0.  0.
        -12    1    1    2    0    0  0.27426173057E+02 -0.32044338889E+02 -0.10226814788E+02  0.43400718474E+02  0.00000000000E+00 0.  1.
         11    1    3    3    0    0 -0.87927060161E+00  0.11229476096E+01 -0.22488419549E+01  0.26629717468E+01  0.51100000000E-03 0. -1.
        -11    1    3    3    0    0 -0.34498878270E+01  0.57580303801E+01 -0.33242705637E+01  0.74904882964E+01  0.51100000000E-03 0.  1.
         12    1    3    3    0    0 -0.23097014628E+02  0.25163360899E+02  0.15799927306E+02  0.37633821483E+02  0.00000000000E+00 0. -1.
</event>
<event>
 7    1  0.3742599E-009  0.4778727E+02  0.7816164E-02  0.1312668E+00
        -11   -1    0    0    0    0  0.00000000000E+00  0.00000000000E+00  0.45593999997E+02  0.45594000000E+02  0.51100000000E-03 0.  1.
         11   -1    0    0    0    0 -0.00000000000E+00 -0.00000000000E+00 -0.45593999997E+02  0.45594000000E+02  0.51100000000E-03 0. -1.
    9900012    2    1    2    0    0  0.19064821623E+02  0.84520556018E+01 -0.38062035508E+02  0.47787271730E+02  0.20000003125E+02 0.  0.
        -12    1    1    2    0    0 -0.19064821623E+02 -0.84520556018E+01  0.38062035508E+02  0.43400728270E+02  0.00000000000E+00 0.  1.
         11    1    3    3    0    0  0.27123680143E+01  0.34331152655E+01 -0.10121375280E+02  0.11026579637E+02  0.51100000000E-03 0. -1.
        -11    1    3    3    0    0  0.43146157217E+01  0.86594036598E+01 -0.57511944734E+01  0.11255106339E+02  0.51100000000E-03 0.  1.
         12    1    3    3    0    0  0.12037837887E+02 -0.36404633235E+01 -0.22189465754E+02  0.25505585753E+02  0.00000000000E+00 0. -1.
</event>
<event>
 7    1  0.3742599E-009  0.4778727E+02  0.7816164E-02  0.1312668E+00
        -11   -1    0    0    0    0  0.00000000000E+00  0.00000000000E+00  0.45593999997E+02  0.45594000000E+02  0.51100000000E-03 0.  1.
         11   -1    0    0    0    0 -0.00000000000E+00 -0.00000000000E+00 -0.45593999997E+02  0.45594000000E+02  0.51100000000E-03 0. -1.
    9900012    2    1    2    0    0  0.31094819540E+01 -0.36025664857E+00 -0.43287699191E+02  0.47787267700E+02  0.19999984753E+02 0.  0.
        -12    1    1    2    0    0 -0.31094819540E+01  0.36025664857E+00  0.43287699191E+02  0.43400732300E+02  0.00000000000E+00 0.  1.
         11    1    3    3    0    0  0.13906041765E+01 -0.39654328042E+01 -0.11705082923E+02  0.12436535040E+02  0.51100000000E-03 0. -1.
        -11    1    3    3    0    0  0.24121255267E+01 -0.51182752850E+01 -0.20290716470E+02  0.21064858570E+02  0.51100000000E-03 0.  1.
        -12    1    3    3    0    0 -0.69324774920E+00  0.87234514406E+01 -0.11291899798E+02  0.14285874091E+02  0.00000000000E+00 0.  1.
</event>
<event>
 7    1  0.3742599E-009  0.4778727E+02  0.7816164E-02  0.1312668E+00
        -11   -1    0    0    0    0  0.00000000000E+00  0.00000000000E+00  0.45593999997E+02  0.45594000000E+02  0.51100000000E-03 0.  1.
         11   -1    0    0    0    0 -0.00000000000E+00 -0.00000000000E+00 -0.45593999997E+02  0.45594000000E+02  0.51100000000E-03 0. -1.
    9900012    2    1    2    0    0 -0.39798715487E+02 -0.59626210296E+01 -0.16252156519E+02  0.47787271947E+02  0.20000004117E+02 0.  0.
        -12    1    1    2    0    0  0.39798715487E+02  0.59626210296E+01  0.16252156519E+02  0.43400728053E+02  0.00000000000E+00 0.  1.
         11    1    3    3    0    0 -0.67998812416E+01 -0.49733210386E+01 -0.45745144910E+00  0.84369170401E+01  0.51100000000E-03 0. -1.
        -11    1    3    3    0    0  0.98059894813E+00  0.82600484326E+00 -0.25150792655E+01  0.28230271467E+01  0.51100000000E-03 0.  1.
         12    1    3    3    0    0 -0.33979433194E+02 -0.18153048342E+01 -0.13279625805E+02  0.36527327761E+02  0.00000000000E+00 0. -1.
</event>
<event>
 7    1  0.3742599E-009  0.4778727E+02  0.7816164E-02  0.1312668E+00
        -11   -1    0    0    0    0  0.00000000000E+00  0.00000000000E+00  0.45593999997E+02  0.45594000000E+02  0.51100000000E-03 0.  1.
         11   -1    0    0    0    0 -0.00000000000E+00 -0.00000000000E+00 -0.45593999997E+02  0.45594000000E+02  0.51100000000E-03 0. -1.
    9900012    2    1    2    0    0  0.43234281647E+02  0.26747542334E+01  0.26955362325E+01  0.47787270337E+02  0.19999996774E+02 0.  0.
        -12    1    1    2    0    0 -0.43234281647E+02 -0.26747542334E+01 -0.26955362325E+01  0.43400729663E+02  0.00000000000E+00 0.  1.
         11    1    3    3    0    0  0.20751181614E+02  0.72425243216E+00  0.33765561818E+01  0.21036568443E+02  0.51100000000E-03 0. -1.
        -11    1    3    3    0    0  0.17270321939E+02  0.59681291338E+01 -0.49188709394E+01  0.18922945775E+02  0.51100000000E-03 0.  1.
         12    1    3    3    0    0  0.52127780943E+01 -0.40176273325E+01  0.42378509901E+01  0.78277561189E+01  0.00000000000E+00 0. -1.
</event>
<event>
 7    1  0.3742599E-009  0.4778726E+02  0.7816164E-02  0.1312668E+00
        -11   -1    0    0    0    0  0.00000000000E+00  0.00000000000E+00  0.45593999997E+02  0.45594000000E+02  0.51100000000E-03 0.  1.
         11   -1    0    0    0    0 -0.00000000000E+00 -0.00000000000E+00 -0.45593999997E+02  0.45594000000E+02  0.51100000000E-03 0. -1.
    9900012    2    1    2    0    0 -0.41538371891E+02  0.11191396058E+02 -0.57393488275E+01  0.47787264867E+02  0.19999971835E+02 0.  0.
        -12    1    1    2    0    0  0.41538371891E+02 -0.11191396058E+02  0.57393488275E+01  0.43400735133E+02  0.00000000000E+00 0.  1.
         11    1    3    3    0    0 -0.18402829465E+02  0.41681471047E+01 -0.81024412817E+01  0.20535022220E+02  0.51100000000E-03 0. -1.
        -11    1    3    3    0    0 -0.11115898070E+01  0.34566469638E+01 -0.25116600381E+01  0.44150284868E+01  0.51100000000E-03 0.  1.
         12    1    3    3    0    0 -0.22023952619E+02  0.35666019899E+01  0.48747524923E+01  0.22837214160E+02  0.00000000000E+00 0. -1.
</event>
<event>
 7    1  0.3742599E-009  0.4778727E+02  0.7816164E-02  0.1312668E+00
        -11   -1    0    0    0    0  0.00000000000E+00  0.00000000000E+00  0.45593999997E+02  0.45594000000E+02  0.51100000000E-03 0.  1.
         11   -1    0    0    0    0 -0.00000000000E+00 -0.00000000000E+00 -0.45593999997E+02  0.45594000000E+02  0.51100000000E-03 0. -1.
    9900012    2    1    2    0    0 -0.31335021943E+02 -0.16269783793E+02 -0.25239527863E+02  0.47787271531E+02  0.20000002220E+02 0.  0.
        -12    1    1    2    0    0  0.31335021943E+02  0.16269783793E+02  0.25239527863E+02  0.43400728469E+02  0.00000000000E+00 0.  1.
         11    1    3    3    0    0 -0.25027637739E+02 -0.12694852668E+02 -0.24253377688E+02  0.37091350267E+02  0.51100000000E-03 0. -1.
        -11    1    3    3    0    0 -0.51647452889E+01 -0.58580520192E+00 -0.37967214753E+01  0.64368358575E+01  0.51100000000E-03 0.  1.
        -12    1    3    3    0    0 -0.11426389150E+01 -0.29891259229E+01  0.28105712999E+01  0.42590854071E+01  0.00000000000E+00 0.  1.
</event>
<event>
 7    1  0.3742599E-009  0.4778727E+02  0.7816164E-02  0.1312668E+00
        -11   -1    0    0    0    0  0.00000000000E+00  0.00000000000E+00  0.45593999997E+02  0.45594000000E+02  0.51100000000E-03 0. -1.
         11   -1    0    0    0    0 -0.00000000000E+00 -0.00000000000E+00 -0.45593999997E+02  0.45594000000E+02  0.51100000000E-03 0.  1.
    9900012    2    1    2    0    0  0.43365472344E+02  0.23779381508E+00 -0.17327818940E+01  0.47787271082E+02  0.20000000169E+02 0.  0.
        -12    1    1    2    0    0 -0.43365472344E+02 -0.23779381508E+00  0.17327818940E+01  0.43400728918E+02  0.00000000000E+00 0.  1.
         11    1    3    3    0    0 -0.42369314037E+00  0.54951746566E+00 -0.26737273018E-01  0.69440655610E+00  0.51100000000E-03 0. -1.
        -11    1    3    3    0    0  0.85750750396E+01  0.24416906706E+01 -0.70537285359E+01  0.11368766502E+02  0.51100000000E-03 0.  1.
         12    1    3    3    0    0  0.35214090445E+02 -0.27534143212E+01  0.53476839149E+01  0.35724098023E+02  0.00000000000E+00 0. -1.
</event>
<event>
 7    1  0.3742599E-009  0.4778726E+02  0.7816164E-02  0.1312668E+00
        -11   -1    0    0    0    0  0.00000000000E+00  0.00000000000E+00  0.45593999997E+02  0.45594000000E+02  0.51100000000E-03 0. -1.
         11   -1    0    0    0    0 -0.00000000000E+00 -0.00000000000E+00 -0.45593999997E+02  0.45594000000E+02  0.51100000000E-03 0.  1.
    9900012    2    1    2    0    0 -0.37692297666E+02 -0.19546097649E+02  0.89924886812E+01  0.47787261650E+02  0.19999957167E+02 0.  0.
        -12    1    1    2    0    0  0.37692297666E+02  0.19546097649E+02 -0.89924886812E+01  0.43400738350E+02  0.00000000000E+00 0.  1.
         11    1    3    3    0    0 -0.65518611036E+01 -0.23224379450E+01  0.20529378367E+01  0.72481139583E+01  0.51100000000E-03 0. -1.
        -11    1    3    3    0    0 -0.15288257166E+02  0.14095839427E+01  0.42322836911E+01  0.15925764019E+02  0.51100000000E-03 0.  1.
         12    1    3    3    0    0 -0.15852179396E+02 -0.18633243647E+02  0.27072671534E+01  0.24613383673E+02  0.00000000000E+00 0. -1.
</event>
<event>
 7    1  0.3742599E-009  0.4778727E+02  0.7816164E-02  0.1312668E+00
        -11   -1    0    0    0    0  0.00000000000E+00  0.00000000000E+00  0.45593999997E+02  0.45594000000E+02  0.51100000000E-03 0. -1.
         11   -1    0    0    0    0 -0.00000000000E+00 -0.00000000000E+00 -0.45593999997E+02  0.45594000000E+02  0.51100000000E-03 0.  1.
    9900012    2    1    2    0    0 -0.35881920178E+02  0.84279069908E+01  0.22914663156E+02  0.47787267294E+02  0.19999982899E+02 0.  0.
        -12    1    1    2    0    0  0.35881920178E+02 -0.84279069908E+01 -0.22914663156E+02  0.43400732706E+02  0.00000000000E+00 0.  1.
         11    1    3    3    0    0  0.51107476645E+00  0.15824134666E+01 -0.15975220561E+01  0.23059286149E+01  0.51100000000E-03 0. -1.
        -11    1    3    3    0    0 -0.11006672283E+02  0.52688121081E+01  0.12078704831E+02  0.17169808573E+02  0.51100000000E-03 0.  1.
         12    1    3    3    0    0 -0.25386322661E+02  0.15766814162E+01  0.12433480381E+02  0.28311530106E+02  0.00000000000E+00 0. -1.
</event>
<event>
 7    1  0.3742599E-009  0.4778726E+02  0.7816164E-02  0.1312668E+00
        -11   -1    0    0    0    0  0.00000000000E+00  0.00000000000E+00  0.45593999997E+02  0.45594000000E+02  0.51100000000E-03 0. -1.
         11   -1    0    0    0    0 -0.00000000000E+00 -0.00000000000E+00 -0.45593999997E+02  0.45594000000E+02  0.51100000000E-03 0.  1.
    9900012    2    1    2    0    0 -0.32190879021E+02  0.98980288457E+01  0.27375174537E+02  0.47787264429E+02  0.19999969838E+02 0.  0.
        -12    1    1    2    0    0  0.32190879021E+02 -0.98980288457E+01 -0.27375174537E+02  0.43400735571E+02  0.00000000000E+00 0.  1.
         11    1    3    3    0    0 -0.12706209005E+02  0.13488222550E+01  0.10189369707E+02  0.16342898275E+02  0.51100000000E-03 0. -1.
        -11    1    3    3    0    0 -0.20675032315E+02  0.10187697774E+02  0.12233935206E+02  0.26094354141E+02  0.51100000000E-03 0.  1.
         12    1    3    3    0    0  0.11903622991E+01 -0.16384911835E+01  0.49518696239E+01  0.53500120124E+01  0.00000000000E+00 0. -1.
</event>
<event>
 7    1  0.3742599E-009  0.4778727E+02  0.7816164E-02  0.1312668E+00
        -11   -1    0    0    0    0  0.00000000000E+00  0.00000000000E+00  0.45593999997E+02  0.45594000000E+02  0.51100000000E-03 0.  1.
         11   -1    0    0    0    0 -0.00000000000E+00 -0.00000000000E+00 -0.45593999997E+02  0.45594000000E+02  0.51100000000E-03 0. -1.
    9900012    2    1    2    0    0 -0.35812023540E+02 -0.64013239611E+01 -0.23667384530E+02  0.47787273405E+02  0.20000010763E+02 0.  0.
        -12    1    1    2    0    0  0.35812023540E+02  0.64013239611E+01  0.23667384530E+02  0.43400726595E+02  0.00000000000E+00 0.  1.
         11    1    3    3    0    0 -0.11203480502E+02 -0.72667428844E+01 -0.13370810227E+02  0.18897145125E+02  0.51100000000E-03 0. -1.
        -11    1    3    3    0    0 -0.64470400706E+01 -0.47220210208E+01 -0.30694744309E+01  0.85605771847E+01  0.51100000000E-03 0.  1.
        -12    1    3    3    0    0 -0.18161502968E+02  0.55874399441E+01 -0.72270998721E+01  0.20329551095E+02  0.00000000000E+00 0.  1.
</event>
<event>
 7    1  0.3742599E-009  0.4778727E+02  0.7816164E-02  0.1312668E+00
        -11   -1    0    0    0    0  0.00000000000E+00  0.00000000000E+00  0.45593999997E+02  0.45594000000E+02  0.51100000000E-03 0.  1.
         11   -1    0    0    0    0 -0.00000000000E+00 -0.00000000000E+00 -0.45593999997E+02  0.45594000000E+02  0.51100000000E-03 0. -1.
    9900012    2    1    2    0    0  0.10565604713E+02  0.12643645324E+02 -0.40151329623E+02  0.47787273733E+02  0.20000012258E+02 0.  0.
        -12    1    1    2    0    0 -0.10565604713E+02 -0.12643645324E+02  0.40151329623E+02  0.43400726267E+02  0.00000000000E+00 0.  1.
         11    1    3    3    0    0 -0.18569289619E+00 -0.54173906853E-01  0.88172216668E+00  0.90269092397E+00  0.51100000000E-03 0. -1.
        -11    1    3    3    0    0  0.93504608740E+01 -0.11752851029E+00 -0.21907834612E+02  0.23820120679E+02  0.51100000000E-03 0.  1.
         12    1    3    3    0    0  0.14008367356E+01  0.12815347741E+02 -0.19125217178E+02  0.23064462130E+02  0.00000000000E+00 0. -1.
</event>
<event>
 7    1  0.3742599E-009  0.4778727E+02  0.7816164E-02  0.1312668E+00
        -11   -1    0    0    0    0  0.00000000000E+00  0.00000000000E+00  0.45593999997E+02  0.45594000000E+02  0.51100000000E-03 0.  1.
         11   -1    0    0    0    0 -0.00000000000E+00 -0.00000000000E+00 -0.45593999997E+02  0.45594000000E+02  0.51100000000E-03 0. -1.
    9900012    2    1    2    0    0  0.15572598371E+02 -0.86493417761E+01 -0.39576584853E+02  0.47787274179E+02  0.20000014292E+02 0.  0.
        -12    1    1    2    0    0 -0.15572598371E+02  0.86493417761E+01  0.39576584853E+02  0.43400725821E+02  0.00000000000E+00 0.  1.
         11    1    3    3    0    0  0.90719233960E+01 -0.95270652072E+01 -0.19048591233E+02  0.23149807640E+02  0.51100000000E-03 0. -1.
        -11    1    3    3    0    0  0.73173316339E+01 -0.26379978172E+01 -0.19327095696E+02  0.20833602737E+02  0.51100000000E-03 0.  1.
        -12    1    3    3    0    0 -0.81665665933E+00  0.35157212483E+01 -0.12008979244E+01  0.38038638014E+01  0.00000000000E+00 0.  1.
</event>
<event>
 7    1  0.8512392E-009  0.4778727E+02  0.7816164E-02  0.1312668E+00
        -11   -1    0    0    0    0  0.00000000000E+00  0.00000000000E+00  0.45593999997E+02  0.45594000000E+02  0.51100000000E-03 0. -1.
         11   -1    0    0    0    0 -0.00000000000E+00 -0.00000000000E+00 -0.45593999997E+02  0.45594000000E+02  0.51100000000E-03 0.  1.
    9900012    2    1    2    0    0  0.26570609308E+02  0.33240894557E+02 -0.85246161798E+01  0.47787269235E+02  0.19999991749E+02 0.  0.
        -12    1    1    2    0    0 -0.26570609308E+02 -0.33240894557E+02  0.85246161798E+01  0.43400730765E+02  0.00000000000E+00 0.  1.
         11    1    3    3    0    0  0.11943378062E+02  0.11899785234E+02 -0.39075980740E+01  0.17306602529E+02  0.51100000000E-03 0. -1.
        -11    1    3    3    0    0  0.47730373287E+01  0.19091370582E+02 -0.52054494480E+01  0.20355810479E+02  0.51100000000E-03 0.  1.
        -12    1    3    3    0    0  0.98541939173E+01  0.22497387415E+01  0.58843134227E+00  0.10124856227E+02  0.00000000000E+00 0.  1.
</event>
<event>
 7    1  0.3742599E-009  0.4778728E+02  0.7816164E-02  0.1312668E+00
        -11   -1    0    0    0    0  0.00000000000E+00  0.00000000000E+00  0.45593999997E+02  0.45594000000E+02  0.51100000000E-03 0.  1.
         11   -1    0    0    0    0 -0.00000000000E+00 -0.00000000000E+00 -0.45593999997E+02  0.45594000000E+02  0.51100000000E-03 0. -1.
    9900012    2    1    2    0    0  0.24409329292E+02 -0.94368519312E+01 -0.34623016737E+02  0.47787276287E+02  0.20000023902E+02 0.  0.
        -12    1    1    2    0    0 -0.24409329292E+02  0.94368519312E+01  0.34623016737E+02  0.43400723713E+02  0.00000000000E+00 0.  1.
         11    1    3    3    0    0  0.16607264854E+02 -0.13255877630E+02 -0.22823765433E+02  0.31184031274E+02  0.51100000000E-03 0. -1.
        -11    1    3    3    0    0  0.67047701881E+01 -0.64160373098E+00 -0.49605149404E+01  0.83649451498E+01  0.51100000000E-03 0.  1.
        -12    1    3    3    0    0  0.10972942500E+01  0.44606294302E+01 -0.68387363633E+01  0.82382998629E+01  0.00000000000E+00 0.  1.
</event>
<event>
 7    1  0.3742599E-009  0.4778727E+02  0.7816164E-02  0.1312668E+00
        -11   -1    0    0    0    0  0.00000000000E+00  0.00000000000E+00  0.45593999997E+02  0.45594000000E+02  0.51100000000E-03 0.  1.
         11   -1    0    0    0    0 -0.00000000000E+00 -0.00000000000E+00 -0.45593999997E+02  0.45594000000E+02  0.51100000000E-03 0. -1.
    9900012    2    1    2    0    0  0.22480333797E+02  0.17919420530E+02 -0.32513875440E+02  0.47787272634E+02  0.20000007250E+02 0.  0.
        -12    1    1    2    0    0 -0.22480333797E+02 -0.17919420530E+02  0.32513875440E+02  0.43400727366E+02  0.00000000000E+00 0.  1.
         11    1    3    3    0    0 -0.20626730061E+01  0.96995545737E-01 -0.18934733117E+01  0.28016547805E+01  0.51100000000E-03 0.  1.
        -11    1    3    3    0    0  0.99740107756E+01  0.43582717793E+01 -0.35993269956E+01  0.11464317639E+02  0.51100000000E-03 0. -1.
         12    1    3    3    0    0  0.14568996027E+02  0.13464153205E+02 -0.27021075132E+02  0.33521300215E+02  0.00000000000E+00 0. -1.
</event>
<event>
 7    1  0.3742599E-009  0.4778727E+02  0.7816164E-02  0.1312668E+00
        -11   -1    0    0    0    0  0.00000000000E+00  0.00000000000E+00  0.45593999997E+02  0.45594000000E+02  0.51100000000E-03 0.  1.
         11   -1    0    0    0    0 -0.00000000000E+00 -0.00000000000E+00 -0.45593999997E+02  0.45594000000E+02  0.51100000000E-03 0. -1.
    9900012    2    1    2    0    0  0.36234233424E+02 -0.87215056753E+01 -0.22240483032E+02  0.47787269378E+02  0.19999992401E+02 0.  0.
        -12    1    1    2    0    0 -0.36234233424E+02  0.87215056753E+01  0.22240483032E+02  0.43400730622E+02  0.00000000000E+00 0.  1.
         11    1    3    3    0    0  0.17812507171E+01  0.43057847518E-01 -0.42008088309E+01  0.45630585346E+01  0.51100000000E-03 0. -1.
        -11    1    3    3    0    0  0.20758423377E+02  0.10822814952E+01 -0.37594529639E+01  0.21123848162E+02  0.51100000000E-03 0.  1.
         12    1    3    3    0    0  0.13694559329E+02 -0.98468450180E+01 -0.14280221237E+02  0.22100362681E+02  0.00000000000E+00 0. -1.
</event>
<event>
 7    1  0.3742599E-009  0.4778727E+02  0.7816164E-02  0.1312668E+00
        -11   -1    0    0    0    0  0.00000000000E+00  0.00000000000E+00  0.45593999997E+02  0.45594000000E+02  0.51100000000E-03 0.  1.
         11   -1    0    0    0    0 -0.00000000000E+00 -0.00000000000E+00 -0.45593999997E+02  0.45594000000E+02  0.51100000000E-03 0. -1.
    9900012    2    1    2    0    0  0.41273949280E+02 -0.10663243996E+02  0.81473803849E+01  0.47787268799E+02  0.19999989761E+02 0.  0.
        -12    1    1    2    0    0 -0.41273949280E+02  0.10663243996E+02 -0.81473803849E+01  0.43400731201E+02  0.00000000000E+00 0.  1.
         11    1    3    3    0    0  0.29624803464E+01  0.10545399980E+01 -0.11417096838E+01  0.33454215988E+01  0.51100000000E-03 0. -1.
        -11    1    3    3    0    0  0.13806051844E+02 -0.51642794094E+01  0.11895804058E+02  0.18941673733E+02  0.51100000000E-03 0.  1.
         12    1    3    3    0    0  0.24505417089E+02 -0.65535045843E+01 -0.26067139894E+01  0.25500173467E+02  0.00000000000E+00 0. -1.
</event>
<event>
 7    1  0.3742599E-009  0.4778727E+02  0.7816164E-02  0.1312668E+00
        -11   -1    0    0    0    0  0.00000000000E+00  0.00000000000E+00  0.45593999997E+02  0.45594000000E+02  0.51100000000E-03 0.  1.
         11   -1    0    0    0    0 -0.00000000000E+00 -0.00000000000E+00 -0.45593999997E+02  0.45594000000E+02  0.51100000000E-03 0. -1.
    9900012    2    1    2    0    0 -0.78049359668E+01 -0.42362517134E+02  0.53031445911E+01  0.47787271597E+02  0.20000002519E+02 0.  0.
        -12    1    1    2    0    0  0.78049359668E+01  0.42362517134E+02 -0.53031445911E+01  0.43400728403E+02  0.00000000000E+00 0.  1.
         11    1    3    3    0    0  0.35536893037E+00 -0.70860296415E+01  0.13456597360E+01  0.72214197733E+01  0.51100000000E-03 0. -1.
        -11    1    3    3    0    0 -0.88756747730E+01 -0.95277748531E+01  0.67312294896E+01  0.14658292773E+02  0.51100000000E-03 0.  1.
        -12    1    3    3    0    0  0.71536987578E+00 -0.25748712639E+02 -0.27737446344E+01  0.25907559050E+02  0.00000000000E+00 0.  1.
</event>
<event>
 7    1  0.3742599E-009  0.4778727E+02  0.7816164E-02  0.1312668E+00
        -11   -1    0    0    0    0  0.00000000000E+00  0.00000000000E+00  0.45593999997E+02  0.45594000000E+02  0.51100000000E-03 0.  1.
         11   -1    0    0    0    0 -0.00000000000E+00 -0.00000000000E+00 -0.45593999997E+02  0.45594000000E+02  0.51100000000E-03 0. -1.
    9900012    2    1    2    0    0  0.23725458654E+01 -0.84001338855E+01 -0.42513904652E+02  0.47787270606E+02  0.19999998001E+02 0.  0.
        -12    1    1    2    0    0 -0.23725458654E+01  0.84001338855E+01  0.42513904652E+02  0.43400729394E+02  0.00000000000E+00 0.  1.
         11    1    3    3    0    0 -0.42386020823E+01  0.21644707807E-02 -0.32190057495E+02  0.32467915764E+02  0.51100000000E-03 0. -1.
        -11    1    3    3    0    0 -0.14075128632E+00 -0.67457157591E+00  0.94815862190E-01  0.69559186631E+00  0.51100000000E-03 0.  1.
         12    1    3    3    0    0  0.67518992340E+01 -0.77277267804E+01 -0.10418663019E+02  0.14623762976E+02  0.00000000000E+00 0. -1.
</event>
<event>
 7    1  0.3742599E-009  0.4778726E+02  0.7816164E-02  0.1312668E+00
        -11   -1    0    0    0    0  0.00000000000E+00  0.00000000000E+00  0.45593999997E+02  0.45594000000E+02  0.51100000000E-03 0.  1.
         11   -1    0    0    0    0 -0.00000000000E+00 -0.00000000000E+00 -0.45593999997E+02  0.45594000000E+02  0.51100000000E-03 0. -1.
    9900012    2    1    2    0    0 -0.15137245080E+02 -0.39527833957E+01 -0.40482878948E+02  0.47787260685E+02  0.19999952766E+02 0.  0.
        -12    1    1    2    0    0  0.15137245080E+02  0.39527833957E+01  0.40482878948E+02  0.43400739315E+02  0.00000000000E+00 0.  1.
         11    1    3    3    0    0 -0.13681512032E+01 -0.18925203030E+01 -0.29986837390E+01  0.38007335134E+01  0.51100000000E-03 0. -1.
        -11    1    3    3    0    0  0.34723698176E+01  0.22767317899E+01 -0.13548623516E+02  0.14170605465E+02  0.51100000000E-03 0.  1.
        -12    1    3    3    0    0 -0.17241463694E+02 -0.43369948826E+01 -0.23935571693E+02  0.29815921707E+02  0.00000000000E+00 0.  1.
</event>
<event>
 7    1  0.3742599E-009  0.4778727E+02  0.7816164E-02  0.1312668E+00
        -11   -1    0    0    0    0  0.00000000000E+00  0.00000000000E+00  0.45593999997E+02  0.45594000000E+02  0.51100000000E-03 0. -1.
         11   -1    0    0    0    0 -0.00000000000E+00 -0.00000000000E+00 -0.45593999997E+02  0.45594000000E+02  0.51100000000E-03 0.  1.
    9900012    2    1    2    0    0 -0.29655995374E+01 -0.18030874654E+02  0.39366432655E+02  0.47787271419E+02  0.20000001708E+02 0.  0.
        -12    1    1    2    0    0  0.29655995374E+01  0.18030874654E+02 -0.39366432655E+02  0.43400728581E+02  0.00000000000E+00 0.  1.
         11    1    3    3    0    0 -0.63951728166E+01 -0.36262595275E+01  0.21592920112E+02  0.22810133553E+02  0.51100000000E-03 0. -1.
        -11    1    3    3    0    0  0.27941552730E+01 -0.10987005257E+02  0.18233667219E+02  0.21470635964E+02  0.51100000000E-03 0.  1.
        -12    1    3    3    0    0  0.63541800613E+00 -0.34176098688E+01 -0.46015467558E+00  0.35065019012E+01  0.00000000000E+00 0.  1.
</event>
<event>
 7    1  0.3742599E-009  0.4778727E+02  0.7816164E-02  0.1312668E+00
        -11   -1    0    0    0    0  0.00000000000E+00  0.00000000000E+00  0.45593999997E+02  0.45594000000E+02  0.51100000000E-03 0. -1.
         11   -1    0    0    0    0 -0.00000000000E+00 -0.00000000000E+00 -0.45593999997E+02  0.45594000000E+02  0.51100000000E-03 0.  1.
    9900012    2    1    2    0    0  0.15921044589E+02  0.95617295116E+01  0.39226483573E+02  0.47787270218E+02  0.19999996234E+02 0.  0.
        -12    1    1    2    0    0 -0.15921044589E+02 -0.95617295116E+01 -0.39226483573E+02  0.43400729782E+02  0.00000000000E+00 0.  1.
         11    1    3    3    0    0  0.12509155735E+02 -0.14174545094E+01  0.90895168602E+01  0.15527635734E+02  0.51100000000E-03 0.  1.
        -11    1    3    3    0    0  0.12440871971E+00  0.60660894590E+00  0.19186308200E+01  0.20160844297E+01  0.51100000000E-03 0. -1.
        -12    1    3    3    0    0  0.32874801341E+01  0.10372575075E+02  0.28218335893E+02  0.30243550055E+02  0.00000000000E+00 0.  1.
</event>
<event>
 7    1  0.3742599E-009  0.4778727E+02  0.7816164E-02  0.1312668E+00
        -11   -1    0    0    0    0  0.00000000000E+00  0.00000000000E+00  0.45593999997E+02  0.45594000000E+02  0.51100000000E-03 0.  1.
         11   -1    0    0    0    0 -0.00000000000E+00 -0.00000000000E+00 -0.45593999997E+02  0.45594000000E+02  0.51100000000E-03 0. -1.
    9900012    2    1    2    0    0  0.62769317124E+01 -0.24858189712E+02 -0.35018478090E+02  0.47787271029E+02  0.19999999931E+02 0.  0.
        -12    1    1    2    0    0 -0.62769317124E+01  0.24858189712E+02  0.35018478090E+02  0.43400728971E+02  0.00000000000E+00 0.  1.
         11    1    3    3    0    0  0.35691199442E+01 -0.25561010401E+02 -0.27223543943E+02  0.37513000612E+02  0.51100000000E-03 0. -1.
        -11    1    3    3    0    0 -0.11028949682E+00 -0.11585098022E+01 -0.65845736092E+01  0.66866223620E+01  0.51100000000E-03 0.  1.
         12    1    3    3    0    0  0.28181012650E+01  0.18613304908E+01 -0.12103605378E+01  0.35876480551E+01  0.00000000000E+00 0. -1.
</event>
<event>
 7    1  0.3742599E-009  0.4778727E+02  0.7816164E-02  0.1312668E+00
        -11   -1    0    0    0    0  0.00000000000E+00  0.00000000000E+00  0.45593999997E+02  0.45594000000E+02  0.51100000000E-03 0.  1.
         11   -1    0    0    0    0 -0.00000000000E+00 -0.00000000000E+00 -0.45593999997E+02  0.45594000000E+02  0.51100000000E-03 0. -1.
    9900012    2    1    2    0    0 -0.40863397141E+02  0.13604391680E+02 -0.53597052616E+01  0.47787272594E+02  0.20000007066E+02 0.  0.
        -12    1    1    2    0    0  0.40863397141E+02 -0.13604391680E+02  0.53597052616E+01  0.43400727406E+02  0.00000000000E+00 0.  1.
         11    1    3    3    0    0 -0.84028123836E+01  0.44002971771E+01 -0.11423435418E+01  0.95537856491E+01  0.51100000000E-03 0. -1.
        -11    1    3    3    0    0 -0.16421541005E+02  0.35932568806E+01  0.66342962241E+01  0.18071867381E+02  0.51100000000E-03 0.  1.
        -12    1    3    3    0    0 -0.16039043752E+02  0.56108376221E+01 -0.10851657944E+02  0.20161619564E+02  0.00000000000E+00 0.  1.
</event>
<event>
 7    1  0.3742599E-009  0.4778727E+02  0.7816164E-02  0.1312668E+00
        -11   -1    0    0    0    0  0.00000000000E+00  0.00000000000E+00  0.45593999997E+02  0.45594000000E+02  0.51100000000E-03 0.  1.
         11   -1    0    0    0    0 -0.00000000000E+00 -0.00000000000E+00 -0.45593999997E+02  0.45594000000E+02  0.51100000000E-03 0. -1.
    9900012    2    1    2    0    0  0.36554820811E+02  0.13632689855E+02  0.19013639548E+02  0.47787266757E+02  0.19999980450E+02 0.  0.
        -12    1    1    2    0    0 -0.36554820811E+02 -0.13632689855E+02 -0.19013639548E+02  0.43400733243E+02  0.00000000000E+00 0.  1.
         11    1    3    3    0    0  0.30073434142E+02  0.93066106454E+01  0.20867119833E+02  0.37768520400E+02  0.51100000000E-03 0. -1.
        -11    1    3    3    0    0 -0.77337211450E+00  0.42643155543E-02  0.85273642293E+00  0.11512090514E+01  0.51100000000E-03 0.  1.
         12    1    3    3    0    0  0.72547587833E+01  0.43218148939E+01 -0.27062167087E+01  0.88675373050E+01  0.00000000000E+00 0. -1.
</event>
<event>
 7    1  0.3742599E-009  0.4778727E+02  0.7816164E-02  0.1312668E+00
        -11   -1    0    0    0    0  0.00000000000E+00  0.00000000000E+00  0.45593999997E+02  0.45594000000E+02  0.51100000000E-03 0. -1.
         11   -1    0    0    0    0 -0.00000000000E+00 -0.00000000000E+00 -0.45593999997E+02  0.45594000000E+02  0.51100000000E-03 0.  1.
    9900012    2    1    2    0    0  0.36028317027E+02 -0.23570130592E+02  0.54801781712E+01  0.47787273777E+02  0.20000012457E+02 0.  0.
        -12    1    1    2    0    0 -0.36028317027E+02  0.23570130592E+02 -0.54801781712E+01  0.43400726223E+02  0.00000000000E+00 0.  1.
         11    1    3    3    0    0  0.12015667593E+02 -0.40922363215E+01 -0.12434914662E+01  0.12754173321E+02  0.51100000000E-03 0. -1.
        -11    1    3    3    0    0  0.21889076313E+01  0.25214845616E+01  0.74429687494E-01  0.33398714125E+01  0.51100000000E-03 0.  1.
        -12    1    3    3    0    0  0.21823741803E+02 -0.21999378832E+02  0.66492399500E+01  0.31693229043E+02  0.00000000000E+00 0.  1.
</event>
<event>
 7    1  0.3742599E-009  0.4778727E+02  0.7816164E-02  0.1312668E+00
        -11   -1    0    0    0    0  0.00000000000E+00  0.00000000000E+00  0.45593999997E+02  0.45594000000E+02  0.51100000000E-03 0. -1.
         11   -1    0    0    0    0 -0.00000000000E+00 -0.00000000000E+00 -0.45593999997E+02  0.45594000000E+02  0.51100000000E-03 0.  1.
    9900012    2    1    2    0    0  0.70272594624E+01 -0.32881141278E+02  0.27442155011E+02  0.47787266147E+02  0.19999977673E+02 0.  0.
        -12    1    1    2    0    0 -0.70272594624E+01  0.32881141278E+02 -0.27442155011E+02  0.43400733853E+02  0.00000000000E+00 0.  1.
         11    1    3    3    0    0 -0.78342957259E+00 -0.14870890945E+02  0.94563616121E+01  0.17640292928E+02  0.51100000000E-03 0. -1.
        -11    1    3    3    0    0  0.55899500529E+01 -0.17693501362E+02  0.19892218946E+02  0.27203086349E+02  0.51100000000E-03 0.  1.
        -12    1    3    3    0    0  0.22207389822E+01 -0.31674897142E+00 -0.19064255476E+01  0.29438868705E+01  0.00000000000E+00 0.  1.
</event>
<event>
 7    1  0.3742599E-009  0.4778727E+02  0.7816164E-02  0.1312668E+00
        -11   -1    0    0    0    0  0.00000000000E+00  0.00000000000E+00  0.45593999997E+02  0.45594000000E+02  0.51100000000E-03 0. -1.
         11   -1    0    0    0    0 -0.00000000000E+00 -0.00000000000E+00 -0.45593999997E+02  0.45594000000E+02  0.51100000000E-03 0.  1.
    9900012    2    1    2    0    0  0.12912420465E+02 -0.20408417218E+01  0.41385113603E+02  0.47787271145E+02  0.20000000461E+02 0.  0.
        -12    1    1    2    0    0 -0.12912420465E+02  0.20408417218E+01 -0.41385113603E+02  0.43400728855E+02  0.00000000000E+00 0.  1.
         11    1    3    3    0    0  0.19987618128E+01  0.99233564599E+00  0.32416839619E+01  0.39355169913E+01  0.51100000000E-03 0. -1.
        -11    1    3    3    0    0  0.14232911521E+02 -0.61890883389E+01  0.21035825696E+02  0.26141663065E+02  0.51100000000E-03 0.  1.
         12    1    3    3    0    0 -0.33192528682E+01  0.31559109712E+01  0.17107603945E+02  0.17710091090E+02  0.00000000000E+00 0. -1.
</event>
<event>
 7    1  0.3742599E-009  0.4778729E+02  0.7816164E-02  0.1312668E+00
        -11   -1    0    0    0    0  0.00000000000E+00  0.00000000000E+00  0.45593999997E+02  0.45594000000E+02  0.51100000000E-03 0.  1.
         11   -1    0    0    0    0 -0.00000000000E+00 -0.00000000000E+00 -0.45593999997E+02  0.45594000000E+02  0.51100000000E-03 0. -1.
    9900012    2    1    2    0    0 -0.28072158626E+02 -0.31825374415E+02 -0.90951095221E+01  0.47787290746E+02  0.20000089826E+02 0.  0.
        -12    1    1    2    0    0  0.28072158626E+02  0.31825374415E+02  0.90951095221E+01  0.43400709254E+02  0.00000000000E+00 0.  1.
         11    1    3    3    0    0 -0.25796834389E+01 -0.10868686872E+01 -0.44831022968E+01  0.52852868089E+01  0.51100000000E-03 0. -1.
        -11    1    3    3    0    0  0.92199605956E+00  0.24530249874E+00  0.10229349021E+01  0.13988016746E+01  0.51100000000E-03 0.  1.
        -12    1    3    3    0    0 -0.26414471246E+02 -0.30983808226E+02 -0.56349421274E+01  0.41103202262E+02  0.00000000000E+00 0.  1.
</event>
<event>
 7    1  0.3742599E-009  0.4778727E+02  0.7816164E-02  0.1312668E+00
        -11   -1    0    0    0    0  0.00000000000E+00  0.00000000000E+00  0.45593999997E+02  0.45594000000E+02  0.51100000000E-03 0. -1.
         11   -1    0    0    0    0 -0.00000000000E+00 -0.00000000000E+00 -0.45593999997E+02  0.45594000000E+02  0.51100000000E-03 0.  1.
    9900012    2    1    2    0    0  0.11679484530E+02  0.31316087536E+02  0.27686016654E+02  0.47787271716E+02  0.20000003060E+02 0.  0.
        -12    1    1    2    0    0 -0.11679484530E+02 -0.31316087536E+02 -0.27686016654E+02  0.43400728284E+02  0.00000000000E+00 0.  1.
         11    1    3    3    0    0  0.38836715838E+01  0.66538486483E+01  0.26672811821E+01  0.81529746701E+01  0.51100000000E-03 0. -1.
        -11    1    3    3    0    0 -0.19840856695E+01  0.36054711938E+00  0.83381322339E+01  0.85785219928E+01  0.51100000000E-03 0.  1.
        -12    1    3    3    0    0  0.97798986158E+01  0.24301691768E+02  0.16680603238E+02  0.31055775053E+02  0.00000000000E+00 0.  1.
</event>
<event>
 7    1  0.3742599E-009  0.4778726E+02  0.7816164E-02  0.1312668E+00
        -11   -1    0    0    0    0  0.00000000000E+00  0.00000000000E+00  0.45593999997E+02  0.45594000000E+02  0.51100000000E-03 0.  1.
         11   -1    0    0    0    0 -0.00000000000E+00 -0.00000000000E+00 -0.45593999997E+02  0.45594000000E+02  0.51100000000E-03 0. -1.
    9900012    2    1    2    0    0 -0.15112396359E+02  0.23612183274E+02 -0.33131617527E+02  0.47787264953E+02  0.19999972226E+02 0.  0.
        -12    1    1    2    0    0  0.15112396359E+02 -0.23612183274E+02  0.33131617527E+02  0.43400735047E+02  0.00000000000E+00 0.  1.
         11    1    3    3    0    0 -0.38222720049E+01  0.10934122619E+02 -0.70608954897E+01  0.13565435714E+02  0.51100000000E-03 0. -1.
        -11    1    3    3    0    0 -0.14288098058E+01  0.11492431566E+02 -0.98574694834E+01  0.15208128933E+02  0.51100000000E-03 0.  1.
         12    1    3    3    0    0 -0.98613145478E+01  0.11856290888E+01 -0.16213252554E+02  0.19013700306E+02  0.00000000000E+00 0. -1.
</event>
<event>
 7    1  0.3742599E-009  0.4778727E+02  0.7816164E-02  0.1312668E+00
        -11   -1    0    0    0    0  0.00000000000E+00  0.00000000000E+00  0.45593999997E+02  0.45594000000E+02  0.51100000000E-03 0. -1.
         11   -1    0    0    0    0 -0.00000000000E+00 -0.00000000000E+00 -0.45593999997E+02  0.45594000000E+02  0.51100000000E-03 0.  1.
    9900012    2    1    2    0    0 -0.20055159132E+02 -0.26123745734E+02  0.28265943744E+02  0.47787273339E+02  0.20000010460E+02 0.  0.
        -12    1    1    2    0    0  0.20055159132E+02  0.26123745734E+02 -0.28265943744E+02  0.43400726661E+02  0.00000000000E+00 0.  1.
         11    1    3    3    0    0 -0.11873639578E+02 -0.96071948794E+01  0.13663396925E+02  0.20493167790E+02  0.51100000000E-03 0. -1.
        -11    1    3    3    0    0 -0.24598259177E+01  0.21863182847E+01  0.89547336812E+00  0.34106603469E+01  0.51100000000E-03 0.  1.
         12    1    3    3    0    0 -0.57216936360E+01 -0.18702869139E+02  0.13707073451E+02  0.23883445202E+02  0.00000000000E+00 0. -1.
</event>
<event>
 7    1  0.3742599E-009  0.4778727E+02  0.7816164E-02  0.1312668E+00
        -11   -1    0    0    0    0  0.00000000000E+00  0.00000000000E+00  0.45593999997E+02  0.45594000000E+02  0.51100000000E-03 0.  1.
         11   -1    0    0    0    0 -0.00000000000E+00 -0.00000000000E+00 -0.45593999997E+02  0.45594000000E+02  0.51100000000E-03 0. -1.
    9900012    2    1    2    0    0  0.82878040218E+01 -0.39573990399E+02 -0.15774503034E+02  0.47787270080E+02  0.19999995602E+02 0.  0.
        -12    1    1    2    0    0 -0.82878040218E+01  0.39573990399E+02  0.15774503034E+02  0.43400729920E+02  0.00000000000E+00 0.  1.
         11    1    3    3    0    0 -0.11177648269E+01 -0.13986378997E+02 -0.11828369498E+02  0.18351526391E+02  0.51100000000E-03 0. -1.
        -11    1    3    3    0    0 -0.16274955953E+01 -0.37662801284E+01  0.15285885365E+01  0.43783776782E+01  0.51100000000E-03 0.  1.
         12    1    3    3    0    0  0.11033064444E+02 -0.21821331275E+02 -0.54747220727E+01  0.25057366011E+02  0.00000000000E+00 0. -1.
</event>
<event>
 7    1  0.3742599E-009  0.4778727E+02  0.7816164E-02  0.1312668E+00
        -11   -1    0    0    0    0  0.00000000000E+00  0.00000000000E+00  0.45593999997E+02  0.45594000000E+02  0.51100000000E-03 0. -1.
         11   -1    0    0    0    0 -0.00000000000E+00 -0.00000000000E+00 -0.45593999997E+02  0.45594000000E+02  0.51100000000E-03 0.  1.
    9900012    2    1    2    0    0 -0.27277244163E+02 -0.16092960693E+02  0.29674769084E+02  0.47787270131E+02  0.19999995836E+02 0.  0.
        -12    1    1    2    0    0  0.27277244163E+02  0.16092960693E+02 -0.29674769084E+02  0.43400729869E+02  0.00000000000E+00 0.  1.
         11    1    3    3    0    0 -0.82632391089E+01 -0.31686584628E+01  0.16222792075E+02  0.18479732141E+02  0.51100000000E-03 0. -1.
        -11    1    3    3    0    0 -0.18780379197E+02 -0.69282897302E+01  0.10825826704E+02  0.22757468345E+02  0.51100000000E-03 0.  1.
         12    1    3    3    0    0 -0.23362585646E+00 -0.59960124996E+01  0.26261503043E+01  0.65500696452E+01  0.00000000000E+00 0. -1.
</event>
<event>
 7    1  0.3742599E-009  0.4778727E+02  0.7816164E-02  0.1312668E+00
        -11   -1    0    0    0    0  0.00000000000E+00  0.00000000000E+00  0.45593999997E+02  0.45594000000E+02  0.51100000000E-03 0.  1.
         11   -1    0    0    0    0 -0.00000000000E+00 -0.00000000000E+00 -0.45593999997E+02  0.45594000000E+02  0.51100000000E-03 0. -1.
    9900012    2    1    2    0    0 -0.14715365896E+02  0.25745828864E+02 -0.31689644740E+02  0.47787270961E+02  0.19999999621E+02 0.  0.
        -12    1    1    2    0    0  0.14715365896E+02 -0.25745828864E+02  0.31689644740E+02  0.43400729039E+02  0.00000000000E+00 0.  1.
         11    1    3    3    0    0 -0.88180971070E+01  0.10503841631E+02 -0.19830214772E+02  0.24110722589E+02  0.51100000000E-03 0. -1.
        -11    1    3    3    0    0  0.12941258639E+01  0.58286965719E-01 -0.55998066727E+01  0.57476946818E+01  0.51100000000E-03 0.  1.
         12    1    3    3    0    0 -0.71913946525E+01  0.15183700268E+02 -0.62596232952E+01  0.17928853691E+02  0.00000000000E+00 0. -1.
</event>
<event>
 7    1  0.3742599E-009  0.4778727E+02  0.7816164E-02  0.1312668E+00
        -11   -1    0    0    0    0  0.00000000000E+00  0.00000000000E+00  0.45593999997E+02  0.45594000000E+02  0.51100000000E-03 0.  1.
         11   -1    0    0    0    0 -0.00000000000E+00 -0.00000000000E+00 -0.45593999997E+02  0.45594000000E+02  0.51100000000E-03 0. -1.
    9900012    2    1    2    0    0 -0.18934894948E+02  0.24160791671E+02 -0.30681413590E+02  0.47787271426E+02  0.20000001739E+02 0.  0.
        -12    1    1    2    0    0  0.18934894948E+02 -0.24160791671E+02  0.30681413590E+02  0.43400728574E+02  0.00000000000E+00 0.  1.
         11    1    3    3    0    0 -0.79785642995E+01  0.12865732440E+02 -0.26361753903E+02  0.30399451123E+02  0.51100000000E-03 0. -1.
        -11    1    3    3    0    0 -0.27969234055E+01 -0.13334267909E+00 -0.76147261676E+00  0.29017928274E+01  0.51100000000E-03 0.  1.
         12    1    3    3    0    0 -0.81594072430E+01  0.11428401910E+02 -0.35581870706E+01  0.14486027475E+02  0.00000000000E+00 0. -1.
</event>
<event>
 7    1  0.3742599E-009  0.4778727E+02  0.7816164E-02  0.1312668E+00
        -11   -1    0    0    0    0  0.00000000000E+00  0.00000000000E+00  0.45593999997E+02  0.45594000000E+02  0.51100000000E-03 0. -1.
         11   -1    0    0    0    0 -0.00000000000E+00 -0.00000000000E+00 -0.45593999997E+02  0.45594000000E+02  0.51100000000E-03 0.  1.
    9900012    2    1    2    0    0 -0.14168759330E+02 -0.36842881459E+02  0.18040829204E+02  0.47787272201E+02  0.20000005274E+02 0.  0.
        -12    1    1    2    0    0  0.14168759330E+02  0.36842881459E+02 -0.18040829204E+02  0.43400727799E+02  0.00000000000E+00 0.  1.
         11    1    3    3    0    0 -0.76320845943E+01 -0.24122804434E+02  0.68598419691E+01  0.26214801947E+02  0.51100000000E-03 0. -1.
        -11    1    3    3    0    0  0.96942303850E+00 -0.56897801479E+01 -0.75056825062E+00  0.58203721633E+01  0.51100000000E-03 0.  1.
        -12    1    3    3    0    0 -0.75060977739E+01 -0.70302968765E+01  0.11931555485E+02  0.15752098091E+02  0.00000000000E+00 0.  1.
</event>
<event>
 7    1  0.3742599E-009  0.4778727E+02  0.7816164E-02  0.1312668E+00
        -11   -1    0    0    0    0  0.00000000000E+00  0.00000000000E+00  0.45593999997E+02  0.45594000000E+02  0.51100000000E-03 0.  1.
         11   -1    0    0    0    0 -0.00000000000E+00 -0.00000000000E+00 -0.45593999997E+02  0.45594000000E+02  0.51100000000E-03 0. -1.
    9900012    2    1    2    0    0  0.28222439004E+02 -0.29954976536E+02 -0.13777393181E+02  0.47787271371E+02  0.20000001491E+02 0.  0.
        -12    1    1    2    0    0 -0.28222439004E+02  0.29954976536E+02  0.13777393181E+02  0.43400728629E+02  0.00000000000E+00 0.  1.
         11    1    3    3    0    0  0.11202285262E+02 -0.12845090103E+02 -0.91757317240E+01  0.19356693617E+02  0.51100000000E-03 0. -1.
        -11    1    3    3    0    0  0.16915825725E+02 -0.17167544049E+02 -0.77219089846E+01  0.25308054197E+02  0.51100000000E-03 0.  1.
        -12    1    3    3    0    0  0.10432801744E+00  0.57657615978E-01  0.31202475271E+01  0.31225235574E+01  0.00000000000E+00 0.  1.
</event>
<event>
 7    1  0.3742599E-009  0.4778727E+02  0.7816164E-02  0.1312668E+00
        -11   -1    0    0    0    0  0.00000000000E+00  0.00000000000E+00  0.45593999997E+02  0.45594000000E+02  0.51100000000E-03 0.  1.
         11   -1    0    0    0    0 -0.00000000000E+00 -0.00000000000E+00 -0.45593999997E+02  0.45594000000E+02  0.51100000000E-03 0. -1.
    9900012    2    1    2    0    0 -0.85986451409E+01  0.87745866064E+01 -0.41625634483E+02  0.47787268273E+02  0.19999987364E+02 0.  0.
        -12    1    1    2    0    0  0.85986451409E+01 -0.87745866064E+01  0.41625634483E+02  0.43400731727E+02  0.00000000000E+00 0.  1.
         11    1    3    3    0    0 -0.56277424774E+01  0.75840607070E+01 -0.11791918722E+02  0.15107574577E+02  0.51100000000E-03 0. -1.
        -11    1    3    3    0    0 -0.12195943515E+01 -0.31232550485E+01 -0.10378426906E+01  0.35098789426E+01  0.51100000000E-03 0.  1.
         12    1    3    3    0    0 -0.17513083120E+01  0.43137809479E+01 -0.28795873070E+02  0.29169814753E+02  0.00000000000E+00 0. -1.
</event>
<event>
 7    1  0.3742599E-009  0.4778727E+02  0.7816164E-02  0.1312668E+00
        -11   -1    0    0    0    0  0.00000000000E+00  0.00000000000E+00  0.45593999997E+02  0.45594000000E+02  0.51100000000E-03 0.  1.
         11   -1    0    0    0    0 -0.00000000000E+00 -0.00000000000E+00 -0.45593999997E+02  0.45594000000E+02  0.51100000000E-03 0. -1.
    9900012    2    1    2    0    0  0.83177241662E+01 -0.15234189671E+02 -0.39778866249E+02  0.47787271085E+02  0.20000000187E+02 0.  0.
        -12    1    1    2    0    0 -0.83177241662E+01  0.15234189671E+02  0.39778866249E+02  0.43400728915E+02  0.00000000000E+00 0.  1.
         11    1    3    3    0    0  0.35046457788E+00 -0.89072877687E+01 -0.19486875904E+02  0.21428974161E+02  0.51100000000E-03 0. -1.
        -11    1    3    3    0    0  0.78921246676E+01 -0.27749151466E+01 -0.21114624228E+02  0.22711520037E+02  0.51100000000E-03 0.  1.
        -12    1    3    3    0    0  0.75134920789E-01 -0.35519867555E+01  0.82263388222E+00  0.36467768881E+01  0.00000000000E+00 0.  1.
</event>
<event>
 7    1  0.3742599E-009  0.4778727E+02  0.7816164E-02  0.1312668E+00
        -11   -1    0    0    0    0  0.00000000000E+00  0.00000000000E+00  0.45593999997E+02  0.45594000000E+02  0.51100000000E-03 0.  1.
         11   -1    0    0    0    0 -0.00000000000E+00 -0.00000000000E+00 -0.45593999997E+02  0.45594000000E+02  0.51100000000E-03 0. -1.
    9900012    2    1    2    0    0 -0.21053737877E+02 -0.32245292319E+02 -0.20015119735E+02  0.47787265290E+02  0.19999973765E+02 0.  0.
        -12    1    1    2    0    0  0.21053737877E+02  0.32245292319E+02  0.20015119735E+02  0.43400734710E+02  0.00000000000E+00 0.  1.
         11    1    3    3    0    0 -0.51190710781E+00 -0.19502650512E+01 -0.38458926746E+01  0.43424041017E+01  0.51100000000E-03 0. -1.
        -11    1    3    3    0    0  0.17064422821E+01 -0.88030940000E+01 -0.63591134518E+01  0.10992940161E+02  0.51100000000E-03 0.  1.
         12    1    3    3    0    0 -0.22248273051E+02 -0.21491933268E+02 -0.98101136089E+01  0.32451921027E+02  0.00000000000E+00 0. -1.
</event>
<event>
 7    1  0.3742599E-009  0.4778727E+02  0.7816164E-02  0.1312668E+00
        -11   -1    0    0    0    0  0.00000000000E+00  0.00000000000E+00  0.45593999997E+02  0.45594000000E+02  0.51100000000E-03 0. -1.
         11   -1    0    0    0    0 -0.00000000000E+00 -0.00000000000E+00 -0.45593999997E+02  0.45594000000E+02  0.51100000000E-03 0.  1.
    9900012    2    1    2    0    0 -0.20180717930E+02 -0.26981054876E+02  0.27356621305E+02  0.47787269273E+02  0.19999991922E+02 0.  0.
        -12    1    1    2    0    0  0.20180717930E+02  0.26981054876E+02 -0.27356621305E+02  0.43400730727E+02  0.00000000000E+00 0.  1.
         11    1    3    3    0    0 -0.79169535157E+01 -0.77902807630E+01  0.12594982554E+01  0.11178236151E+02  0.51100000000E-03 0. -1.
        -11    1    3    3    0    0 -0.35651528621E+01 -0.46664257968E+00  0.35901743961E+00  0.36134421277E+01  0.51100000000E-03 0.  1.
        -12    1    3    3    0    0 -0.86986115523E+01 -0.18724131534E+02  0.25738105610E+02  0.32995590994E+02  0.00000000000E+00 0.  1.
</event>
<event>
 7    1  0.3742599E-009  0.4778721E+02  0.7816164E-02  0.1312668E+00
        -11   -1    0    0    0    0  0.00000000000E+00  0.00000000000E+00  0.45593999997E+02  0.45594000000E+02  0.51100000000E-03 0.  1.
         11   -1    0    0    0    0 -0.00000000000E+00 -0.00000000000E+00 -0.45593999997E+02  0.45594000000E+02  0.51100000000E-03 0. -1.
    9900012    2    1    2    0    0  0.18881578729E+02  0.28982220473E+02 -0.26213453608E+02  0.47787213499E+02  0.19999737624E+02 0.  0.
        -12    1    1    2    0    0 -0.18881578729E+02 -0.28982220473E+02  0.26213453608E+02  0.43400786501E+02  0.00000000000E+00 0.  1.
         11    1    3    3    0    0  0.12412946410E+02  0.62794257298E+01 -0.10441940928E+02  0.17393865489E+02  0.51100000000E-03 0. -1.
        -11    1    3    3    0    0 -0.30654982662E+01  0.47462176754E+01 -0.33799079732E+01  0.65838924665E+01  0.51100000000E-03 0.  1.
        -12    1    3    3    0    0  0.95341305859E+01  0.17956577068E+02 -0.12391604707E+02  0.23809455543E+02  0.00000000000E+00 0.  1.
</event>
<event>
 7    1  0.3742599E-009  0.4778727E+02  0.7816164E-02  0.1312668E+00
        -11   -1    0    0    0    0  0.00000000000E+00  0.00000000000E+00  0.45593999997E+02  0.45594000000E+02  0.51100000000E-03 0.  1.
         11   -1    0    0    0    0 -0.00000000000E+00 -0.00000000000E+00 -0.45593999997E+02  0.45594000000E+02  0.51100000000E-03 0. -1.
    9900012    2    1    2    0    0 -0.13139700443E+01  0.11936810748E+02 -0.41706226627E+02  0.47787270656E+02  0.19999998229E+02 0.  0.
        -12    1    1    2    0    0  0.13139700443E+01 -0.11936810748E+02  0.41706226627E+02  0.43400729344E+02  0.00000000000E+00 0.  1.
         11    1    3    3    0    0 -0.23642329353E+01  0.54247314946E+01 -0.71012395700E+01  0.92436417527E+01  0.51100000000E-03 0.  1.
        -11    1    3    3    0    0 -0.62832903790E+01  0.50074844625E+01 -0.10016568537E+02  0.12840805432E+02  0.51100000000E-03 0. -1.
         12    1    3    3    0    0  0.73335532700E+01  0.15045947907E+01 -0.24588418520E+02  0.25702823471E+02  0.00000000000E+00 0. -1.
</event>
<event>
 7    1  0.3742599E-009  0.4778727E+02  0.7816164E-02  0.1312668E+00
        -11   -1    0    0    0    0  0.00000000000E+00  0.00000000000E+00  0.45593999997E+02  0.45594000000E+02  0.51100000000E-03 0.  1.
         11   -1    0    0    0    0 -0.00000000000E+00 -0.00000000000E+00 -0.45593999997E+02  0.45594000000E+02  0.51100000000E-03 0. -1.
    9900012    2    1    2    0    0 -0.32005088866E+02 -0.22885242654E+02 -0.18318379381E+02  0.47787273419E+02  0.20000010825E+02 0.  0.
        -12    1    1    2    0    0  0.32005088866E+02  0.22885242654E+02  0.18318379381E+02  0.43400726581E+02  0.00000000000E+00 0.  1.
         11    1    3    3    0    0 -0.87171152314E+01 -0.21019544982E+01 -0.12305063501E+02  0.15225665788E+02  0.51100000000E-03 0. -1.
        -11    1    3    3    0    0 -0.23297910306E+01 -0.45944147294E+01 -0.28598582674E+01  0.58919744163E+01  0.51100000000E-03 0.  1.
        -12    1    3    3    0    0 -0.20958182604E+02 -0.16188873426E+02 -0.31534576130E+01  0.26669633214E+02  0.00000000000E+00 0.  1.
</event>
<event>
 7    1  0.3742599E-009  0.4778727E+02  0.7816164E-02  0.1312668E+00
        -11   -1    0    0    0    0  0.00000000000E+00  0.00000000000E+00  0.45593999997E+02  0.45594000000E+02  0.51100000000E-03 0.  1.
         11   -1    0    0    0    0 -0.00000000000E+00 -0.00000000000E+00 -0.45593999997E+02  0.45594000000E+02  0.51100000000E-03 0. -1.
    9900012    2    1    2    0    0 -0.12046316082E+02  0.31806413536E+02 -0.26960371921E+02  0.47787270429E+02  0.19999997196E+02 0.  0.
        -12    1    1    2    0    0  0.12046316082E+02 -0.31806413536E+02  0.26960371921E+02  0.43400729571E+02  0.00000000000E+00 0.  1.
         11    1    3    3    0    0 -0.33657602619E+01  0.78418995518E+01 -0.16099375108E+02  0.18221240624E+02  0.51100000000E-03 0. -1.
        -11    1    3    3    0    0 -0.86061467591E+01  0.10057233609E+02 -0.76653715366E+01  0.15296131242E+02  0.51100000000E-03 0.  1.
         12    1    3    3    0    0 -0.74409060649E-01  0.13907280374E+02 -0.31956252761E+01  0.14269898564E+02  0.00000000000E+00 0. -1.
</event>
<event>
 7    1  0.3742599E-009  0.4778732E+02  0.7816164E-02  0.1312668E+00
        -11   -1    0    0    0    0  0.00000000000E+00  0.00000000000E+00  0.45593999997E+02  0.45594000000E+02  0.51100000000E-03 0.  1.
         11   -1    0    0    0    0 -0.00000000000E+00 -0.00000000000E+00 -0.45593999997E+02  0.45594000000E+02  0.51100000000E-03 0. -1.
    9900012    2    1    2    0    0 -0.31984425588E+02  0.68646729489E+01 -0.28521783382E+02  0.47787316340E+02  0.20000206519E+02 0.  0.
        -12    1    1    2    0    0  0.31984425588E+02 -0.68646729489E+01  0.28521783382E+02  0.43400683660E+02  0.00000000000E+00 0.  1.
         11    1    3    3    0    0  0.19725847990E+01  0.47963225982E+00 -0.22444725024E+01  0.30263501068E+01  0.51100000000E-03 0. -1.
        -11    1    3    3    0    0 -0.11211809771E+02  0.58134055510E+01 -0.14193353589E+02  0.18998727558E+02  0.51100000000E-03 0.  1.
         12    1    3    3    0    0 -0.22745200615E+02  0.57163513810E+00 -0.12083957291E+02  0.25762238675E+02  0.00000000000E+00 0. -1.
</event>
<event>
 7    1  0.3742599E-009  0.4778728E+02  0.7816164E-02  0.1312668E+00
        -11   -1    0    0    0    0  0.00000000000E+00  0.00000000000E+00  0.45593999997E+02  0.45594000000E+02  0.51100000000E-03 0.  1.
         11   -1    0    0    0    0 -0.00000000000E+00 -0.00000000000E+00 -0.45593999997E+02  0.45594000000E+02  0.51100000000E-03 0. -1.
    9900012    2    1    2    0    0 -0.57805389778E+01 -0.12986974434E+02 -0.41006660778E+02  0.47787281527E+02  0.20000047794E+02 0.  0.
        -12    1    1    2    0    0  0.57805389778E+01  0.12986974434E+02  0.41006660778E+02  0.43400718473E+02  0.00000000000E+00 0.  1.
         11    1    3    3    0    0 -0.20099220211E+01 -0.67052842692E+01 -0.49748113716E+01  0.85877454612E+01  0.51100000000E-03 0. -1.
        -11    1    3    3    0    0 -0.70007838069E+01 -0.35803568070E+01 -0.94836984744E+01  0.12319515648E+02  0.51100000000E-03 0.  1.
        -12    1    3    3    0    0  0.32301668501E+01 -0.27013333575E+01 -0.26548150932E+02  0.26880020418E+02  0.00000000000E+00 0.  1.
</event>
<event>
 7    1  0.3742599E-009  0.4778727E+02  0.7816164E-02  0.1312668E+00
        -11   -1    0    0    0    0  0.00000000000E+00  0.00000000000E+00  0.45593999997E+02  0.45594000000E+02  0.51100000000E-03 0.  1.
         11   -1    0    0    0    0 -0.00000000000E+00 -0.00000000000E+00 -0.45593999997E+02  0.45594000000E+02  0.51100000000E-03 0. -1.
    9900012    2    1    2    0    0  0.28702545329E+02  0.31511935993E+02 -0.81721976903E+01  0.47787273814E+02  0.20000012627E+02 0.  0.
        -12    1    1    2    0    0 -0.28702545329E+02 -0.31511935993E+02  0.81721976903E+01  0.43400726186E+02  0.00000000000E+00 0.  1.
         11    1    3    3    0    0  0.67844822397E+01  0.14770173023E+02 -0.16640443246E+01  0.16338795983E+02  0.51100000000E-03 0. -1.
        -11    1    3    3    0    0  0.13314525449E+02  0.17297442174E+02 -0.26003441439E+01  0.21982717840E+02  0.51100000000E-03 0.  1.
        -12    1    3    3    0    0  0.86035376395E+01 -0.55567920387E+00 -0.39078092218E+01  0.94657599910E+01  0.00000000000E+00 0.  1.
</event>
<event>
 7    1  0.3742599E-009  0.4778727E+02  0.7816164E-02  0.1312668E+00
        -11   -1    0    0    0    0  0.00000000000E+00  0.00000000000E+00  0.45593999997E+02  0.45594000000E+02  0.51100000000E-03 0.  1.
         11   -1    0    0    0    0 -0.00000000000E+00 -0.00000000000E+00 -0.45593999997E+02  0.45594000000E+02  0.51100000000E-03 0. -1.
    9900012    2    1    2    0    0 -0.28384956409E+02  0.45421457902E+01 -0.32515941780E+02  0.47787270645E+02  0.19999998178E+02 0.  0.
        -12    1    1    2    0    0  0.28384956409E+02 -0.45421457902E+01  0.32515941780E+02  0.43400729355E+02  0.00000000000E+00 0.  1.
         11    1    3    3    0    0 -0.15337861504E+02 -0.26060189073E+01 -0.10128399942E+02  0.18564100186E+02  0.51100000000E-03 0. -1.
        -11    1    3    3    0    0 -0.65994565605E+01  0.31630009308E+01 -0.21727469658E+01  0.76340180390E+01  0.51100000000E-03 0.  1.
         12    1    3    3    0    0 -0.64476383439E+01  0.39851637668E+01 -0.20214794872E+02  0.21589152420E+02  0.00000000000E+00 0. -1.
</event>
<event>
 7    1  0.3742599E-009  0.4778726E+02  0.7816164E-02  0.1312668E+00
        -11   -1    0    0    0    0  0.00000000000E+00  0.00000000000E+00  0.45593999997E+02  0.45594000000E+02  0.51100000000E-03 0.  1.
         11   -1    0    0    0    0 -0.00000000000E+00 -0.00000000000E+00 -0.45593999997E+02  0.45594000000E+02  0.51100000000E-03 0. -1.
    9900012    2    1    2    0    0 -0.97245596704E+01  0.13670984279E+01 -0.42275150350E+02  0.47787258578E+02  0.19999943158E+02 0.  0.
        -12    1    1    2    0    0  0.97245596704E+01 -0.13670984279E+01  0.42275150350E+02  0.43400741422E+02  0.00000000000E+00 0.  1.
         11    1    3    3    0    0  0.19560486882E+01  0.22371369458E+01 -0.17396719267E+02  0.17648703910E+02  0.51100000000E-03 0. -1.
        -11    1    3    3    0    0 -0.52210619551E+01 -0.36386783963E+01 -0.21342870962E+02  0.22271452794E+02  0.51100000000E-03 0.  1.
        -12    1    3    3    0    0 -0.64595464035E+01  0.27686398784E+01 -0.35355601214E+01  0.78671018734E+01  0.00000000000E+00 0.  1.
</event>
<event>
 7    1  0.3742599E-009  0.4778727E+02  0.7816164E-02  0.1312668E+00
        -11   -1    0    0    0    0  0.00000000000E+00  0.00000000000E+00  0.45593999997E+02  0.45594000000E+02  0.51100000000E-03 0.  1.
         11   -1    0    0    0    0 -0.00000000000E+00 -0.00000000000E+00 -0.45593999997E+02  0.45594000000E+02  0.51100000000E-03 0. -1.
    9900012    2    1    2    0    0  0.26087378266E+02  0.34032198712E+02 -0.66993820471E+01  0.47787267589E+02  0.19999984247E+02 0.  0.
        -12    1    1    2    0    0 -0.26087378266E+02 -0.34032198712E+02  0.66993820471E+01  0.43400732411E+02  0.00000000000E+00 0.  1.
         11    1    3    3    0    0 -0.25604696315E-01 -0.61117309036E+00 -0.15189521540E+01  0.16374993295E+01  0.51100000000E-03 0. -1.
        -11    1    3    3    0    0  0.20887341958E+02  0.15492248176E+02 -0.31051539736E+01  0.26190318613E+02  0.51100000000E-03 0.  1.
         12    1    3    3    0    0  0.52256410049E+01  0.19151123626E+02 -0.20752759196E+01  0.19959449647E+02  0.00000000000E+00 0. -1.
</event>
<event>
 7    1  0.3742599E-009  0.4778727E+02  0.7816164E-02  0.1312668E+00
        -11   -1    0    0    0    0  0.00000000000E+00  0.00000000000E+00  0.45593999997E+02  0.45594000000E+02  0.51100000000E-03 0.  1.
         11   -1    0    0    0    0 -0.00000000000E+00 -0.00000000000E+00 -0.45593999997E+02  0.45594000000E+02  0.51100000000E-03 0. -1.
    9900012    2    1    2    0    0 -0.31417786828E+00 -0.12149909973E+02 -0.41664185862E+02  0.47787269550E+02  0.19999993184E+02 0.  0.
        -12    1    1    2    0    0  0.31417786828E+00  0.12149909973E+02  0.41664185862E+02  0.43400730450E+02  0.00000000000E+00 0.  1.
         11    1    3    3    0    0 -0.34150146308E+01 -0.66702993920E+01 -0.25688075126E+02  0.26758782163E+02  0.51100000000E-03 0.  1.
        -11    1    3    3    0    0 -0.28133346041E+01  0.61805668972E+00 -0.10579413913E+02  0.10964526650E+02  0.51100000000E-03 0. -1.
        -12    1    3    3    0    0  0.59141713666E+01 -0.60976672708E+01 -0.53966968234E+01  0.10063960736E+02  0.00000000000E+00 0.  1.
</event>
<event>
 7    1  0.3742599E-009  0.4778727E+02  0.7816164E-02  0.1312668E+00
        -11   -1    0    0    0    0  0.00000000000E+00  0.00000000000E+00  0.45593999997E+02  0.45594000000E+02  0.51100000000E-03 0.  1.
         11   -1    0    0    0    0 -0.00000000000E+00 -0.00000000000E+00 -0.45593999997E+02  0.45594000000E+02  0.51100000000E-03 0. -1.
    9900012    2    1    2    0    0 -0.33829093073E+02 -0.66714657673E+01 -0.26357305963E+02  0.47787267618E+02  0.19999984378E+02 0.  0.
        -12    1    1    2    0    0  0.33829093073E+02  0.66714657673E+01  0.26357305963E+02  0.43400732382E+02  0.00000000000E+00 0.  1.
         11    1    3    3    0    0 -0.11247129927E+02 -0.23958939820E+01 -0.37454007955E+01  0.12094059160E+02  0.51100000000E-03 0. -1.
        -11    1    3    3    0    0 -0.35839703228E+01  0.25287989194E+01  0.11343465420E+01  0.45306080815E+01  0.51100000000E-03 0.  1.
         12    1    3    3    0    0 -0.18997992823E+02 -0.68043707047E+01 -0.23746251710E+02  0.31162600377E+02  0.00000000000E+00 0. -1.
</event>
<event>
 7    1  0.3742599E-009  0.4778727E+02  0.7816164E-02  0.1312668E+00
        -11   -1    0    0    0    0  0.00000000000E+00  0.00000000000E+00  0.45593999997E+02  0.45594000000E+02  0.51100000000E-03 0.  1.
         11   -1    0    0    0    0 -0.00000000000E+00 -0.00000000000E+00 -0.45593999997E+02  0.45594000000E+02  0.51100000000E-03 0. -1.
    9900012    2    1    2    0    0  0.86822043729E+01 -0.14122312836E+02 -0.40109883055E+02  0.47787272918E+02  0.20000008541E+02 0.  0.
        -12    1    1    2    0    0 -0.86822043729E+01  0.14122312836E+02  0.40109883055E+02  0.43400727082E+02  0.00000000000E+00 0.  1.
         11    1    3    3    0    0  0.29985717055E+01  0.61396270291E+00 -0.19814595456E+01  0.36461712338E+01  0.51100000000E-03 0. -1.
        -11    1    3    3    0    0 -0.18885749692E+01  0.25247125393E+00  0.54274314585E+00  0.19811682240E+01  0.51100000000E-03 0.  1.
         12    1    3    3    0    0  0.75722076365E+01 -0.14988746793E+02 -0.38671166655E+02  0.42159933460E+02  0.00000000000E+00 0. -1.
</event>
<event>
 7    1  0.3742599E-009  0.4778727E+02  0.7816164E-02  0.1312668E+00
        -11   -1    0    0    0    0  0.00000000000E+00  0.00000000000E+00  0.45593999997E+02  0.45594000000E+02  0.51100000000E-03 0. -1.
         11   -1    0    0    0    0 -0.00000000000E+00 -0.00000000000E+00 -0.45593999997E+02  0.45594000000E+02  0.51100000000E-03 0.  1.
    9900012    2    1    2    0    0 -0.13784159250E+02 -0.40241114755E+02 -0.86181787198E+01  0.47787269967E+02  0.19999995088E+02 0.  0.
        -12    1    1    2    0    0  0.13784159250E+02  0.40241114755E+02  0.86181787198E+01  0.43400730033E+02  0.00000000000E+00 0.  1.
         11    1    3    3    0    0  0.12703987305E+01 -0.52475938893E+01  0.19506523314E+00  0.54027035147E+01  0.51100000000E-03 0. -1.
        -11    1    3    3    0    0  0.11324457563E+01 -0.17076815069E+02 -0.16247328207E+01  0.17191271137E+02  0.51100000000E-03 0.  1.
        -12    1    3    3    0    0 -0.16187003737E+02 -0.17916705796E+02 -0.71885111323E+01  0.25193295316E+02  0.00000000000E+00 0.  1.
</event>
<event>
 7    1  0.3742599E-009  0.4778728E+02  0.7816164E-02  0.1312668E+00
        -11   -1    0    0    0    0  0.00000000000E+00  0.00000000000E+00  0.45593999997E+02  0.45594000000E+02  0.51100000000E-03 0.  1.
         11   -1    0    0    0    0 -0.00000000000E+00 -0.00000000000E+00 -0.45593999997E+02  0.45594000000E+02  0.51100000000E-03 0. -1.
    9900012    2    1    2    0    0  0.39926834822E+01 -0.42544901870E+02  0.75902635927E+01  0.47787282288E+02  0.20000051263E+02 0.  0.
        -12    1    1    2    0    0 -0.39926834822E+01  0.42544901870E+02 -0.75902635927E+01  0.43400717712E+02  0.00000000000E+00 0.  1.
         11    1    3    3    0    0  0.14915470069E+01 -0.16872507028E+02  0.54731753299E+01  0.17800613875E+02  0.51100000000E-03 0. -1.
        -11    1    3    3    0    0  0.30675876949E+01 -0.21688188550E+02  0.76002988735E+01  0.23185171124E+02  0.51100000000E-03 0.  1.
        -12    1    3    3    0    0 -0.56645121959E+00 -0.39842062926E+01 -0.54832106107E+01  0.68014972886E+01  0.00000000000E+00 0.  1.
</event>
<event>
 7    1  0.3742599E-009  0.4778727E+02  0.7816164E-02  0.1312668E+00
        -11   -1    0    0    0    0  0.00000000000E+00  0.00000000000E+00  0.45593999997E+02  0.45594000000E+02  0.51100000000E-03 0.  1.
         11   -1    0    0    0    0 -0.00000000000E+00 -0.00000000000E+00 -0.45593999997E+02  0.45594000000E+02  0.51100000000E-03 0. -1.
    9900012    2    1    2    0    0  0.33963645526E+02  0.31992241195E+01 -0.26830184578E+02  0.47787273544E+02  0.20000011396E+02 0.  0.
        -12    1    1    2    0    0 -0.33963645526E+02 -0.31992241195E+01  0.26830184578E+02  0.43400726456E+02  0.00000000000E+00 0.  1.
         11    1    3    3    0    0  0.38361977574E+01  0.18734740955E+01  0.50385961299E+00  0.42988595222E+01  0.51100000000E-03 0. -1.
        -11    1    3    3    0    0  0.56480014853E+00  0.18689765310E+01  0.12861075013E+01  0.23379788809E+01  0.51100000000E-03 0.  1.
         12    1    3    3    0    0  0.29562647620E+02 -0.54322650703E+00 -0.28620151693E+02  0.41150435141E+02  0.00000000000E+00 0. -1.
</event>
<event>
 7    1  0.3742599E-009  0.4778727E+02  0.7816164E-02  0.1312668E+00
        -11   -1    0    0    0    0  0.00000000000E+00  0.00000000000E+00  0.45593999997E+02  0.45594000000E+02  0.51100000000E-03 0.  1.
         11   -1    0    0    0    0 -0.00000000000E+00 -0.00000000000E+00 -0.45593999997E+02  0.45594000000E+02  0.51100000000E-03 0. -1.
    9900012    2    1    2    0    0 -0.30354120958E+02  0.76199947385E+01 -0.30069693391E+02  0.47787269136E+02  0.19999991299E+02 0.  0.
        -12    1    1    2    0    0  0.30354120958E+02 -0.76199947385E+01  0.30069693391E+02  0.43400730864E+02  0.00000000000E+00 0.  1.
         11    1    3    3    0    0 -0.13741759688E+02  0.23276738381E+01 -0.65671198312E+01  0.15407176509E+02  0.51100000000E-03 0. -1.
        -11    1    3    3    0    0 -0.10042334559E+02 -0.12403230515E+01 -0.41741276352E+01  0.10945785785E+02  0.51100000000E-03 0.  1.
        -12    1    3    3    0    0 -0.65700267100E+01  0.65326439520E+01 -0.19328445924E+02  0.21434306842E+02  0.00000000000E+00 0.  1.
</event>
<event>
 7    1  0.3742599E-009  0.4778727E+02  0.7816164E-02  0.1312668E+00
        -11   -1    0    0    0    0  0.00000000000E+00  0.00000000000E+00  0.45593999997E+02  0.45594000000E+02  0.51100000000E-03 0.  1.
         11   -1    0    0    0    0 -0.00000000000E+00 -0.00000000000E+00 -0.45593999997E+02  0.45594000000E+02  0.51100000000E-03 0. -1.
    9900012    2    1    2    0    0  0.27222582934E+02 -0.83599695557E+01 -0.32751572957E+02  0.47787266784E+02  0.19999980574E+02 0.  0.
        -12    1    1    2    0    0 -0.27222582934E+02  0.83599695557E+01  0.32751572957E+02  0.43400733216E+02  0.00000000000E+00 0.  1.
         11    1    3    3    0    0  0.59247722887E+01  0.33419300530E+01 -0.54755876680E+01  0.87323240734E+01  0.51100000000E-03 0. -1.
        -11    1    3    3    0    0  0.62364394215E+01 -0.18054374719E+01 -0.15768905448E+00  0.64944320169E+01  0.51100000000E-03 0.  1.
         12    1    3    3    0    0  0.15061371224E+02 -0.98964621368E+01 -0.27118296234E+02  0.32560510693E+02  0.00000000000E+00 0. -1.
</event>
<event>
 7    1  0.3742599E-009  0.4778726E+02  0.7816164E-02  0.1312668E+00
        -11   -1    0    0    0    0  0.00000000000E+00  0.00000000000E+00  0.45593999997E+02  0.45594000000E+02  0.51100000000E-03 0.  1.
         11   -1    0    0    0    0 -0.00000000000E+00 -0.00000000000E+00 -0.45593999997E+02  0.45594000000E+02  0.51100000000E-03 0. -1.
    9900012    2    1    2    0    0 -0.79601075810E+01  0.70761279478E+01 -0.42073614574E+02  0.47787263338E+02  0.19999964865E+02 0.  0.
        -12    1    1    2    0    0  0.79601075810E+01 -0.70761279478E+01  0.42073614574E+02  0.43400736662E+02  0.00000000000E+00 0.  1.
         11    1    3    3    0    0 -0.69982842492E+01  0.11953550192E+02 -0.33698002483E+02  0.36433757921E+02  0.51100000000E-03 0. -1.
        -11    1    3    3    0    0 -0.31656472133E+01 -0.17624877426E+01 -0.54536508569E+01  0.65475180987E+01  0.51100000000E-03 0.  1.
        -12    1    3    3    0    0  0.22038238815E+01 -0.31149345020E+01 -0.29219612343E+01  0.48059873187E+01  0.00000000000E+00 0.  1.
</event>
<event>
 7    1  0.3742599E-009  0.4778727E+02  0.7816164E-02  0.1312668E+00
        -11   -1    0    0    0    0  0.00000000000E+00  0.00000000000E+00  0.45593999997E+02  0.45594000000E+02  0.51100000000E-03 0.  1.
         11   -1    0    0    0    0 -0.00000000000E+00 -0.00000000000E+00 -0.45593999997E+02  0.45594000000E+02  0.51100000000E-03 0. -1.
    9900012    2    1    2    0    0 -0.41659985859E+02  0.59235474220E+01 -0.10629216756E+02  0.47787273224E+02  0.20000009940E+02 0.  0.
        -12    1    1    2    0    0  0.41659985859E+02 -0.59235474220E+01  0.10629216756E+02  0.43400726776E+02  0.00000000000E+00 0.  1.
         11    1    3    3    0    0 -0.23640381938E+02  0.36245473104E+01 -0.52891701643E+01  0.24494495763E+02  0.51100000000E-03 0. -1.
        -11    1    3    3    0    0 -0.17305407290E+02  0.34455727525E+01  0.14312279927E+00  0.17645667385E+02  0.51100000000E-03 0.  1.
        -12    1    3    3    0    0 -0.71419663047E+00 -0.11465726409E+01 -0.54831693909E+01  0.56471100766E+01  0.00000000000E+00 0.  1.
</event>
<event>
 7    1  0.3742599E-009  0.4778727E+02  0.7816164E-02  0.1312668E+00
        -11   -1    0    0    0    0  0.00000000000E+00  0.00000000000E+00  0.45593999997E+02  0.45594000000E+02  0.51100000000E-03 0.  1.
         11   -1    0    0    0    0 -0.00000000000E+00 -0.00000000000E+00 -0.45593999997E+02  0.45594000000E+02  0.51100000000E-03 0. -1.
    9900012    2    1    2    0    0 -0.17468942772E+02  0.25809627707E+02 -0.30204671276E+02  0.47787274074E+02  0.20000013814E+02 0.  0.
        -12    1    1    2    0    0  0.17468942772E+02 -0.25809627707E+02  0.30204671276E+02  0.43400725926E+02  0.00000000000E+00 0.  1.
         11    1    3    3    0    0 -0.97190987336E+01  0.14606104719E+02 -0.92286339222E+01  0.19823391727E+02  0.51100000000E-03 0. -1.
        -11    1    3    3    0    0 -0.10575893474E+02  0.10337107821E+02 -0.19952910069E+02  0.24835940517E+02  0.51100000000E-03 0.  1.
        -12    1    3    3    0    0  0.28260494350E+01  0.86641516757E+00 -0.10231272851E+01  0.31279418302E+01  0.00000000000E+00 0.  1.
</event>
<event>
 7    1  0.3742599E-009  0.4778727E+02  0.7816164E-02  0.1312668E+00
        -11   -1    0    0    0    0  0.00000000000E+00  0.00000000000E+00  0.45593999997E+02  0.45594000000E+02  0.51100000000E-03 0.  1.
         11   -1    0    0    0    0 -0.00000000000E+00 -0.00000000000E+00 -0.45593999997E+02  0.45594000000E+02  0.51100000000E-03 0. -1.
    9900012    2    1    2    0    0 -0.15095706609E+02  0.28494545887E+02  0.29048306061E+02  0.47787267421E+02  0.19999983481E+02 0.  0.
        -12    1    1    2    0    0  0.15095706609E+02 -0.28494545887E+02 -0.29048306061E+02  0.43400732579E+02  0.00000000000E+00 0.  1.
         11    1    3    3    0    0 -0.12587717473E+02  0.20338308948E+02  0.14974273033E+02  0.28219253980E+02  0.51100000000E-03 0. -1.
        -11    1    3    3    0    0 -0.50854483012E+01  0.86434245985E+01  0.13607599942E+02  0.16903767321E+02  0.51100000000E-03 0.  1.
        -12    1    3    3    0    0  0.25774591654E+01 -0.48718765968E+00  0.46643308632E+00  0.26642461202E+01  0.00000000000E+00 0.  1.
</event>
<event>
 7    1  0.3742599E-009  0.4778727E+02  0.7816164E-02  0.1312668E+00
        -11   -1    0    0    0    0  0.00000000000E+00  0.00000000000E+00  0.45593999997E+02  0.45594000000E+02  0.51100000000E-03 0. -1.
         11   -1    0    0    0    0 -0.00000000000E+00 -0.00000000000E+00 -0.45593999997E+02  0.45594000000E+02  0.51100000000E-03 0.  1.
    9900012    2    1    2    0    0  0.77901316064E+01 -0.39140932837E+02 -0.17056502078E+02  0.47787273774E+02  0.20000012447E+02 0.  0.
        -12    1    1    2    0    0 -0.77901316064E+01  0.39140932837E+02  0.17056502078E+02  0.43400726226E+02  0.00000000000E+00 0.  1.
         11    1    3    3    0    0  0.80676320229E+01 -0.18412683097E+02 -0.64822654607E+01  0.21121869024E+02  0.51100000000E-03 0. -1.
        -11    1    3    3    0    0  0.32256772781E+01 -0.16817362404E+02 -0.29012074532E+01  0.17367949708E+02  0.51100000000E-03 0.  1.
        -12    1    3    3    0    0 -0.35031776946E+01 -0.39108873358E+01 -0.76730291638E+01  0.92974550422E+01  0.00000000000E+00 0.  1.
</event>
<event>
 7    1  0.3742599E-009  0.4778727E+02  0.7816164E-02  0.1312668E+00
        -11   -1    0    0    0    0  0.00000000000E+00  0.00000000000E+00  0.45593999997E+02  0.45594000000E+02  0.51100000000E-03 0.  1.
         11   -1    0    0    0    0 -0.00000000000E+00 -0.00000000000E+00 -0.45593999997E+02  0.45594000000E+02  0.51100000000E-03 0. -1.
    9900012    2    1    2    0    0  0.10890586083E+02  0.25099760880E+02 -0.33690067200E+02  0.47787268561E+02  0.19999988679E+02 0.  0.
        -12    1    1    2    0    0 -0.10890586083E+02 -0.25099760880E+02  0.33690067200E+02  0.43400731439E+02  0.00000000000E+00 0.  1.
         11    1    3    3    0    0  0.17914096988E+01  0.85329466195E+01 -0.12196662095E+02  0.14992627963E+02  0.51100000000E-03 0. -1.
        -11    1    3    3    0    0 -0.41278831978E+01  0.26324224161E+01 -0.16302628195E+01  0.51601186608E+01  0.51100000000E-03 0.  1.
        -12    1    3    3    0    0  0.13227059582E+02  0.13934391845E+02 -0.19863142285E+02  0.27634521937E+02  0.00000000000E+00 0.  1.
</event>
<event>
 7    1  0.3742599E-009  0.4778727E+02  0.7816164E-02  0.1312668E+00
        -11   -1    0    0    0    0  0.00000000000E+00  0.00000000000E+00  0.45593999997E+02  0.45594000000E+02  0.51100000000E-03 0.  1.
         11   -1    0    0    0    0 -0.00000000000E+00 -0.00000000000E+00 -0.45593999997E+02  0.45594000000E+02  0.51100000000E-03 0. -1.
    9900012    2    1    2    0    0 -0.11349411728E+02 -0.55454891333E+01 -0.41521823437E+02  0.47787269386E+02  0.19999992437E+02 0.  0.
        -12    1    1    2    0    0  0.11349411728E+02  0.55454891333E+01  0.41521823437E+02  0.43400730614E+02  0.00000000000E+00 0.  1.
         11    1    3    3    0    0  0.16592551047E+01 -0.61259165229E-01 -0.61593121026E+01  0.63791853733E+01  0.51100000000E-03 0. -1.
        -11    1    3    3    0    0 -0.69702689257E+01 -0.74990369303E+01 -0.71533906883E+01  0.12489643805E+02  0.51100000000E-03 0.  1.
        -12    1    3    3    0    0 -0.60383979072E+01  0.20148069623E+01 -0.28209120646E+02  0.28918440207E+02  0.00000000000E+00 0.  1.
</event>
<event>
 7    1  0.3742599E-009  0.4778726E+02  0.7816164E-02  0.1312668E+00
        -11   -1    0    0    0    0  0.00000000000E+00  0.00000000000E+00  0.45593999997E+02  0.45594000000E+02  0.51100000000E-03 0.  1.
         11   -1    0    0    0    0 -0.00000000000E+00 -0.00000000000E+00 -0.45593999997E+02  0.45594000000E+02  0.51100000000E-03 0. -1.
    9900012    2    1    2    0    0  0.78148203941E+01 -0.12231070944E+02 -0.40901759849E+02  0.47787257230E+02  0.19999937016E+02 0.  0.
        -12    1    1    2    0    0 -0.78148203941E+01  0.12231070944E+02  0.40901759849E+02  0.43400742770E+02  0.00000000000E+00 0.  1.
         11    1    3    3    0    0  0.96970610337E+00 -0.11842305799E+02 -0.19686718250E+02  0.22994508307E+02  0.51100000000E-03 0. -1.
        -11    1    3    3    0    0 -0.25639242192E+01  0.10287257553E+01 -0.22063708675E+01  0.35355419312E+01  0.51100000000E-03 0.  1.
         12    1    3    3    0    0  0.94090385099E+01 -0.14174909002E+01 -0.19008670732E+02  0.21257206992E+02  0.00000000000E+00 0. -1.
</event>
<event>
 7    1  0.3742599E-009  0.4778727E+02  0.7816164E-02  0.1312668E+00
        -11   -1    0    0    0    0  0.00000000000E+00  0.00000000000E+00  0.45593999997E+02  0.45594000000E+02  0.51100000000E-03 0.  1.
         11   -1    0    0    0    0 -0.00000000000E+00 -0.00000000000E+00 -0.45593999997E+02  0.45594000000E+02  0.51100000000E-03 0. -1.
    9900012    2    1    2    0    0 -0.41247763833E+02  0.10558364089E+02 -0.84122631732E+01  0.47787271376E+02  0.20000001510E+02 0.  0.
        -12    1    1    2    0    0  0.41247763833E+02 -0.10558364089E+02  0.84122631732E+01  0.43400728624E+02  0.00000000000E+00 0.  1.
         11    1    3    3    0    0 -0.34114579670E+02  0.48597085552E+01 -0.11872838762E+02  0.36447024759E+02  0.51100000000E-03 0. -1.
        -11    1    3    3    0    0 -0.35992438161E+01 -0.80866633477E-01 -0.26346843813E+00  0.36097799572E+01  0.51100000000E-03 0.  1.
        -12    1    3    3    0    0 -0.35339403470E+01  0.57795221668E+01  0.37240440266E+01  0.77304666590E+01  0.00000000000E+00 0.  1.
</event>
<event>
 7    1  0.3742599E-009  0.4778727E+02  0.7816164E-02  0.1312668E+00
        -11   -1    0    0    0    0  0.00000000000E+00  0.00000000000E+00  0.45593999997E+02  0.45594000000E+02  0.51100000000E-03 0.  1.
         11   -1    0    0    0    0 -0.00000000000E+00 -0.00000000000E+00 -0.45593999997E+02  0.45594000000E+02  0.51100000000E-03 0. -1.
    9900012    2    1    2    0    0 -0.19416266028E+02  0.37627048387E+02  0.95308369318E+01  0.47787274091E+02  0.20000013892E+02 0.  0.
        -12    1    1    2    0    0  0.19416266028E+02 -0.37627048387E+02 -0.95308369318E+01  0.43400725909E+02  0.00000000000E+00 0.  1.
         11    1    3    3    0    0  0.90100476374E+00 -0.64933424459E+00 -0.22402673063E+01  0.25004484418E+01  0.51100000000E-03 0.  1.
        -11    1    3    3    0    0 -0.65894811348E+01  0.88868592509E+01  0.10033307769E+01  0.11108744388E+02  0.51100000000E-03 0. -1.
        -12    1    3    3    0    0 -0.13727789657E+02  0.29389523380E+02  0.10767773461E+02  0.34178081261E+02  0.00000000000E+00 0.  1.
</event>
<event>
 7    1  0.3742599E-009  0.4778729E+02  0.7816164E-02  0.1312668E+00
        -11   -1    0    0    0    0  0.00000000000E+00  0.00000000000E+00  0.45593999997E+02  0.45594000000E+02  0.51100000000E-03 0.  1.
         11   -1    0    0    0    0 -0.00000000000E+00 -0.00000000000E+00 -0.45593999997E+02  0.45594000000E+02  0.51100000000E-03 0. -1.
    9900012    2    1    2    0    0  0.42377430990E+02  0.85301793882E+01  0.38743518782E+01  0.47787294704E+02  0.20000107873E+02 0.  0.
        -12    1    1    2    0    0 -0.42377430990E+02 -0.85301793882E+01 -0.38743518782E+01  0.43400705296E+02  0.00000000000E+00 0.  1.
         11    1    3    3    0    0  0.23428332209E+02  0.35567712084E+01  0.56211455055E+01  0.24354355844E+02  0.51100000000E-03 0. -1.
        -11    1    3    3    0    0  0.13789455159E+02 -0.25992385108E+01 -0.24422775937E+01  0.14243238203E+02  0.51100000000E-03 0.  1.
         12    1    3    3    0    0  0.51596436227E+01  0.75726466906E+01  0.69548396644E+00  0.91897006568E+01  0.00000000000E+00 0. -1.
</event>
<event>
 7    1  0.3742599E-009  0.4778727E+02  0.7816164E-02  0.1312668E+00
        -11   -1    0    0    0    0  0.00000000000E+00  0.00000000000E+00  0.45593999997E+02  0.45594000000E+02  0.51100000000E-03 0.  1.
         11   -1    0    0    0    0 -0.00000000000E+00 -0.00000000000E+00 -0.45593999997E+02  0.45594000000E+02  0.51100000000E-03 0. -1.
    9900012    2    1    2    0    0  0.15793694609E+02  0.55149427176E+01 -0.40047072490E+02  0.47787269619E+02  0.19999993502E+02 0.  0.
        -12    1    1    2    0    0 -0.15793694609E+02 -0.55149427176E+01  0.40047072490E+02  0.43400730381E+02  0.00000000000E+00 0.  1.
         11    1    3    3    0    0  0.11485255024E+02  0.35607438568E+01 -0.19702834177E+02  0.23082280101E+02  0.51100000000E-03 0. -1.
        -11    1    3    3    0    0  0.13891128897E+01  0.59945250623E+01 -0.18318615419E+02  0.19324482825E+02  0.51100000000E-03 0.  1.
         12    1    3    3    0    0  0.29193266956E+01 -0.40403262016E+01 -0.20256228942E+01  0.53805066937E+01  0.00000000000E+00 0. -1.
</event>
<event>
 7    1  0.3742599E-009  0.4778727E+02  0.7816164E-02  0.1312668E+00
        -11   -1    0    0    0    0  0.00000000000E+00  0.00000000000E+00  0.45593999997E+02  0.45594000000E+02  0.51100000000E-03 0.  1.
         11   -1    0    0    0    0 -0.00000000000E+00 -0.00000000000E+00 -0.45593999997E+02  0.45594000000E+02  0.51100000000E-03 0. -1.
    9900012    2    1    2    0    0  0.12921982037E+02  0.39729861945E+02 -0.11755161000E+02  0.47787270051E+02  0.19999995471E+02 0.  0.
        -12    1    1    2    0    0 -0.12921982037E+02 -0.39729861945E+02  0.11755161000E+02  0.43400729949E+02  0.00000000000E+00 0.  1.
         11    1    3    3    0    0  0.93558574667E+01  0.17551547271E+02 -0.79544901939E+01  0.21421082957E+02  0.51100000000E-03 0. -1.
        -11    1    3    3    0    0  0.27838726962E+01  0.98598226150E+01 -0.83440907553E+01  0.13213247140E+02  0.51100000000E-03 0.  1.
         12    1    3    3    0    0  0.78225187390E+00  0.12318492059E+02  0.45434199489E+01  0.13152939954E+02  0.00000000000E+00 0. -1.
</event>
<event>
 7    1  0.3742599E-009  0.4778727E+02  0.7816164E-02  0.1312668E+00
        -11   -1    0    0    0    0  0.00000000000E+00  0.00000000000E+00  0.45593999997E+02  0.45594000000E+02  0.51100000000E-03 0.  1.
         11   -1    0    0    0    0 -0.00000000000E+00 -0.00000000000E+00 -0.45593999997E+02  0.45594000000E+02  0.51100000000E-03 0. -1.
    9900012    2    1    2    0    0 -0.13614174965E+02  0.32591651378E+02 -0.25220269398E+02  0.47787268577E+02  0.19999988751E+02 0.  0.
        -12    1    1    2    0    0  0.13614174965E+02 -0.32591651378E+02  0.25220269398E+02  0.43400731423E+02  0.00000000000E+00 0.  1.
         11    1    3    3    0    0 -0.51938120005E+01  0.19145517342E+02 -0.62472945533E+01  0.20797961604E+02  0.51100000000E-03 0. -1.
        -11    1    3    3    0    0 -0.47054589762E+01  0.19103758142E+01 -0.79279907248E+00  0.51399815718E+01  0.51100000000E-03 0.  1.
         12    1    3    3    0    0 -0.37149039887E+01  0.11535758222E+02 -0.18180175772E+02  0.21849325402E+02  0.00000000000E+00 0. -1.
</event>
<event>
 7    1  0.3742599E-009  0.4778727E+02  0.7816164E-02  0.1312668E+00
        -11   -1    0    0    0    0  0.00000000000E+00  0.00000000000E+00  0.45593999997E+02  0.45594000000E+02  0.51100000000E-03 0. -1.
         11   -1    0    0    0    0 -0.00000000000E+00 -0.00000000000E+00 -0.45593999997E+02  0.45594000000E+02  0.51100000000E-03 0.  1.
    9900012    2    1    2    0    0 -0.39680457991E+02  0.15443407910E+01 -0.17512849942E+02  0.47787266735E+02  0.19999980350E+02 0.  0.
        -12    1    1    2    0    0  0.39680457991E+02 -0.15443407910E+01  0.17512849942E+02  0.43400733265E+02  0.00000000000E+00 0.  1.
         11    1    3    3    0    0 -0.90390178543E+01  0.18427509700E+01 -0.28638535071E+01  0.96592562901E+01  0.51100000000E-03 0. -1.
        -11    1    3    3    0    0 -0.18584825715E+02 -0.47705703235E+00  0.70611218909E+00  0.18604352312E+02  0.51100000000E-03 0.  1.
         12    1    3    3    0    0 -0.12056614423E+02  0.17864685336E+00 -0.15355108624E+02  0.19523658133E+02  0.00000000000E+00 0. -1.
</event>
<event>
 7    1  0.3742599E-009  0.4778727E+02  0.7816164E-02  0.1312668E+00
        -11   -1    0    0    0    0  0.00000000000E+00  0.00000000000E+00  0.45593999997E+02  0.45594000000E+02  0.51100000000E-03 0.  1.
         11   -1    0    0    0    0 -0.00000000000E+00 -0.00000000000E+00 -0.45593999997E+02  0.45594000000E+02  0.51100000000E-03 0. -1.
    9900012    2    1    2    0    0 -0.28768536971E+02 -0.76971438394E-01 -0.32495978651E+02  0.47787271060E+02  0.20000000070E+02 0.  0.
        -12    1    1    2    0    0  0.28768536971E+02  0.76971438394E-01  0.32495978651E+02  0.43400728940E+02  0.00000000000E+00 0.  1.
         11    1    3    3    0    0 -0.21500928040E+00 -0.31970433197E+00 -0.93899687762E+01  0.93978696379E+01  0.51100000000E-03 0. -1.
        -11    1    3    3    0    0 -0.46869594116E+01  0.19003345150E+01  0.10139265748E+00  0.50585709965E+01  0.51100000000E-03 0.  1.
        -12    1    3    3    0    0 -0.23866568279E+02 -0.16576016215E+01 -0.23207402532E+02  0.33330830425E+02  0.00000000000E+00 0.  1.
</event>
<event>
 7    1  0.3742599E-009  0.4778726E+02  0.7816164E-02  0.1312668E+00
        -11   -1    0    0    0    0  0.00000000000E+00  0.00000000000E+00  0.45593999997E+02  0.45594000000E+02  0.51100000000E-03 0.  1.
         11   -1    0    0    0    0 -0.00000000000E+00 -0.00000000000E+00 -0.45593999997E+02  0.45594000000E+02  0.51100000000E-03 0. -1.
    9900012    2    1    2    0    0  0.22483049791E+02 -0.16775093487E+02 -0.33116952135E+02  0.47787264889E+02  0.19999971936E+02 0.  0.
        -12    1    1    2    0    0 -0.22483049791E+02  0.16775093487E+02  0.33116952135E+02  0.43400735111E+02  0.00000000000E+00 0.  1.
         11    1    3    3    0    0  0.98941373715E+01 -0.56639317777E+01 -0.15624534607E+02  0.19341668994E+02  0.51100000000E-03 0. -1.
        -11    1    3    3    0    0  0.29283242136E+01 -0.11901887429E+02 -0.12636789992E+02  0.17604501374E+02  0.51100000000E-03 0.  1.
        -12    1    3    3    0    0  0.96605882061E+01  0.79072572003E+00 -0.48556275367E+01  0.10841094522E+02  0.00000000000E+00 0.  1.
</event>
<event>
 7    1  0.3742599E-009  0.4778727E+02  0.7816164E-02  0.1312668E+00
        -11   -1    0    0    0    0  0.00000000000E+00  0.00000000000E+00  0.45593999997E+02  0.45594000000E+02  0.51100000000E-03 0.  1.
         11   -1    0    0    0    0 -0.00000000000E+00 -0.00000000000E+00 -0.45593999997E+02  0.45594000000E+02  0.51100000000E-03 0. -1.
    9900012    2    1    2    0    0  0.41151217355E+02  0.38515308521E+01 -0.13242610093E+02  0.47787266115E+02  0.19999977525E+02 0.  0.
        -12    1    1    2    0    0 -0.41151217355E+02 -0.38515308521E+01  0.13242610093E+02  0.43400733885E+02  0.00000000000E+00 0.  1.
         11    1    3    3    0    0  0.18217905648E+02 -0.41940286380E+01 -0.71012095275E+01  0.19997728357E+02  0.51100000000E-03 0.  1.
        -11    1    3    3    0    0  0.10123226399E+01  0.96967850106E+00 -0.44809007945E+01  0.46950554538E+01  0.51100000000E-03 0. -1.
         12    1    3    3    0    0  0.21920989067E+02  0.70758809890E+01 -0.16604997710E+01  0.23094482305E+02  0.00000000000E+00 0. -1.
</event>
<event>
 7    1  0.3742599E-009  0.4778727E+02  0.7816164E-02  0.1312668E+00
        -11   -1    0    0    0    0  0.00000000000E+00  0.00000000000E+00  0.45593999997E+02  0.45594000000E+02  0.51100000000E-03 0.  1.
         11   -1    0    0    0    0 -0.00000000000E+00 -0.00000000000E+00 -0.45593999997E+02  0.45594000000E+02  0.51100000000E-03 0. -1.
    9900012    2    1    2    0    0  0.36299003422E+02  0.21786703238E+02 -0.95574802527E+01  0.47787268253E+02  0.19999987271E+02 0.  0.
        -12    1    1    2    0    0 -0.36299003422E+02 -0.21786703238E+02  0.95574802527E+01  0.43400731747E+02  0.00000000000E+00 0.  1.
         11    1    3    3    0    0 -0.13625329302E+01  0.68431595305E+00  0.14579245604E+01  0.21095801939E+01  0.51100000000E-03 0. -1.
        -11    1    3    3    0    0  0.10791550884E+02  0.58400453939E+01  0.14507818496E+01  0.12355908260E+02  0.51100000000E-03 0.  1.
         12    1    3    3    0    0  0.26869985468E+02  0.15262341891E+02 -0.12466186663E+02  0.33321779799E+02  0.00000000000E+00 0. -1.
</event>
<event>
 7    1  0.3742599E-009  0.4778725E+02  0.7816164E-02  0.1312668E+00
        -11   -1    0    0    0    0  0.00000000000E+00  0.00000000000E+00  0.45593999997E+02  0.45594000000E+02  0.51100000000E-03 0. -1.
         11   -1    0    0    0    0 -0.00000000000E+00 -0.00000000000E+00 -0.45593999997E+02  0.45594000000E+02  0.51100000000E-03 0.  1.
    9900012    2    1    2    0    0  0.34340620859E+02 -0.22661779213E+02  0.13812694498E+02  0.47787251074E+02  0.19999908945E+02 0.  0.
        -12    1    1    2    0    0 -0.34340620859E+02  0.22661779213E+02 -0.13812694498E+02  0.43400748926E+02  0.00000000000E+00 0.  1.
         11    1    3    3    0    0  0.49872500941E+01 -0.74340421466E+01 -0.28495120307E+01  0.93945391166E+01  0.51100000000E-03 0. -1.
        -11    1    3    3    0    0  0.16548665422E+02 -0.61166770287E+01  0.37123394618E+01  0.18029240962E+02  0.51100000000E-03 0.  1.
         12    1    3    3    0    0  0.12804705343E+02 -0.91110600375E+01  0.12949867067E+02  0.20363470996E+02  0.00000000000E+00 0. -1.
</event>
<event>
 7    1  0.3742599E-009  0.4778728E+02  0.7816164E-02  0.1312668E+00
        -11   -1    0    0    0    0  0.00000000000E+00  0.00000000000E+00  0.45593999997E+02  0.45594000000E+02  0.51100000000E-03 0.  1.
         11   -1    0    0    0    0 -0.00000000000E+00 -0.00000000000E+00 -0.45593999997E+02  0.45594000000E+02  0.51100000000E-03 0. -1.
    9900012    2    1    2    0    0  0.50018554915E+01  0.29350318976E+02 -0.31577887669E+02  0.47787276827E+02  0.20000026364E+02 0.  0.
        -12    1    1    2    0    0 -0.50018554915E+01 -0.29350318976E+02  0.31577887669E+02  0.43400723173E+02  0.00000000000E+00 0.  1.
         11    1    3    3    0    0  0.13642444527E+00  0.65875890424E+00 -0.83981828353E+01  0.84250845764E+01  0.51100000000E-03 0. -1.
        -11    1    3    3    0    0  0.71405897391E+01  0.18602193772E+02 -0.20688736937E+02  0.28723744033E+02  0.51100000000E-03 0.  1.
        -12    1    3    3    0    0 -0.22751586928E+01  0.10089366300E+02 -0.24909678958E+01  0.10638448217E+02  0.00000000000E+00 0.  1.
</event>
<event>
 7    1  0.3742599E-009  0.4778727E+02  0.7816164E-02  0.1312668E+00
        -11   -1    0    0    0    0  0.00000000000E+00  0.00000000000E+00  0.45593999997E+02  0.45594000000E+02  0.51100000000E-03 0.  1.
         11   -1    0    0    0    0 -0.00000000000E+00 -0.00000000000E+00 -0.45593999997E+02  0.45594000000E+02  0.51100000000E-03 0. -1.
    9900012    2    1    2    0    0 -0.50150422816E+01 -0.10829069664E+02 -0.41727735256E+02  0.47787270876E+02  0.19999999231E+02 0.  0.
        -12    1    1    2    0    0  0.50150422816E+01  0.10829069664E+02  0.41727735256E+02  0.43400729124E+02  0.00000000000E+00 0.  1.
         11    1    3    3    0    0 -0.86649489836E+01 -0.12724632429E+01 -0.21618416922E+02  0.23325017772E+02  0.51100000000E-03 0. -1.
        -11    1    3    3    0    0 -0.24495476505E+01 -0.93477470846E+00 -0.78751796898E+01  0.83001531826E+01  0.51100000000E-03 0.  1.
        -12    1    3    3    0    0  0.60994543525E+01 -0.86218317130E+01 -0.12234138645E+02  0.16162099921E+02  0.00000000000E+00 0.  1.
</event>
<event>
 7    1  0.3742599E-009  0.4778729E+02  0.7816164E-02  0.1312668E+00
        -11   -1    0    0    0    0  0.00000000000E+00  0.00000000000E+00  0.45593999997E+02  0.45594000000E+02  0.51100000000E-03 0.  1.
         11   -1    0    0    0    0 -0.00000000000E+00 -0.00000000000E+00 -0.45593999997E+02  0.45594000000E+02  0.51100000000E-03 0. -1.
    9900012    2    1    2    0    0 -0.13251368649E+02 -0.30527461930E+02 -0.27858523677E+02  0.47787285208E+02  0.20000064579E+02 0.  0.
        -12    1    1    2    0    0  0.13251368649E+02  0.30527461930E+02  0.27858523677E+02  0.43400714792E+02  0.00000000000E+00 0.  1.
         11    1    3    3    0    0  0.34103377849E+01 -0.24931208127E+01 -0.43248717282E+01  0.60457068172E+01  0.51100000000E-03 0.  1.
        -11    1    3    3    0    0 -0.30967605627E+01 -0.15590030674E+02 -0.12989835565E+02  0.20527416073E+02  0.51100000000E-03 0. -1.
        -12    1    3    3    0    0 -0.13564945871E+02 -0.12444310444E+02 -0.10543816384E+02  0.21214162318E+02  0.00000000000E+00 0.  1.
</event>
<event>
 7    1  0.3742599E-009  0.4778727E+02  0.7816164E-02  0.1312668E+00
        -11   -1    0    0    0    0  0.00000000000E+00  0.00000000000E+00  0.45593999997E+02  0.45594000000E+02  0.51100000000E-03 0. -1.
         11   -1    0    0    0    0 -0.00000000000E+00 -0.00000000000E+00 -0.45593999997E+02  0.45594000000E+02  0.51100000000E-03 0.  1.
    9900012    2    1    2    0    0 -0.11190652389E+02 -0.41930382507E+02 -0.48547065706E+00  0.47787270054E+02  0.19999995486E+02 0.  0.
        -12    1    1    2    0    0  0.11190652389E+02  0.41930382507E+02  0.48547065706E+00  0.43400729946E+02  0.00000000000E+00 0.  1.
         11    1    3    3    0    0 -0.40434632633E+01 -0.50939545369E+01 -0.13702953722E+01  0.66464785905E+01  0.51100000000E-03 0. -1.
        -11    1    3    3    0    0 -0.12334176398E+02 -0.19914737175E+02  0.11524767805E+00  0.23425241652E+02  0.51100000000E-03 0.  1.
         12    1    3    3    0    0  0.51869872721E+01 -0.16921690795E+02  0.76957703713E+00  0.17715549812E+02  0.00000000000E+00 0. -1.
</event>
<event>
 7    1  0.3742599E-009  0.4778727E+02  0.7816164E-02  0.1312668E+00
        -11   -1    0    0    0    0  0.00000000000E+00  0.00000000000E+00  0.45593999997E+02  0.45594000000E+02  0.51100000000E-03 0.  1.
         11   -1    0    0    0    0 -0.00000000000E+00 -0.00000000000E+00 -0.45593999997E+02  0.45594000000E+02  0.51100000000E-03 0. -1.
    9900012    2    1    2    0    0  0.39595958710E+02 -0.15359747454E+02 -0.89365133859E+01  0.47787273514E+02  0.20000011261E+02 0.  0.
        -12    1    1    2    0    0 -0.39595958710E+02  0.15359747454E+02  0.89365133859E+01  0.43400726486E+02  0.00000000000E+00 0.  1.
         11    1    3    3    0    0  0.13132423689E+02  0.10949619539E+01 -0.48415598268E+01  0.14039237709E+02  0.51100000000E-03 0. -1.
        -11    1    3    3    0    0  0.20343404365E+01 -0.49416382789E+01 -0.41101804627E+01  0.67418034374E+01  0.51100000000E-03 0.  1.
         12    1    3    3    0    0  0.24429194584E+02 -0.11513071129E+02  0.15226903545E-01  0.27006232368E+02  0.00000000000E+00 0. -1.
</event>
<event>
 7    1  0.3742599E-009  0.4778727E+02  0.7816164E-02  0.1312668E+00
        -11   -1    0    0    0    0  0.00000000000E+00  0.00000000000E+00  0.45593999997E+02  0.45594000000E+02  0.51100000000E-03 0.  1.
         11   -1    0    0    0    0 -0.00000000000E+00 -0.00000000000E+00 -0.45593999997E+02  0.45594000000E+02  0.51100000000E-03 0. -1.
    9900012    2    1    2    0    0  0.33532356856E+02 -0.27038122424E+02 -0.53051318700E+01  0.47787269076E+02  0.19999991027E+02 0.  0.
        -12    1    1    2    0    0 -0.33532356856E+02  0.27038122424E+02  0.53051318700E+01  0.43400730924E+02  0.00000000000E+00 0.  1.
         11    1    3    3    0    0 -0.61605089079E+00 -0.58553821831E+00 -0.20999703862E+01  0.22654468851E+01  0.51100000000E-03 0. -1.
        -11    1    3    3    0    0  0.84119581427E+01 -0.69085473724E+00 -0.34190094741E+01  0.91064782494E+01  0.51100000000E-03 0.  1.
         12    1    3    3    0    0  0.25736449604E+02 -0.25761729468E+02  0.21384799021E+00  0.36415343942E+02  0.00000000000E+00 0. -1.
</event>
<event>
 7    1  0.3742599E-009  0.4778727E+02  0.7816164E-02  0.1312668E+00
        -11   -1    0    0    0    0  0.00000000000E+00  0.00000000000E+00  0.45593999997E+02  0.45594000000E+02  0.51100000000E-03 0.  1.
         11   -1    0    0    0    0 -0.00000000000E+00 -0.00000000000E+00 -0.45593999997E+02  0.45594000000E+02  0.51100000000E-03 0. -1.
    9900012    2    1    2    0    0 -0.38406206573E+02 -0.10889469107E+02 -0.17029561321E+02  0.47787271901E+02  0.20000003904E+02 0.  0.
        -12    1    1    2    0    0  0.38406206573E+02  0.10889469107E+02  0.17029561321E+02  0.43400728099E+02  0.00000000000E+00 0.  1.
         11    1    3    3    0    0 -0.16860622342E+02  0.28608445333E+01 -0.11374881845E+02  0.20539059240E+02  0.51100000000E-03 0. -1.
        -11    1    3    3    0    0 -0.59969151854E+01 -0.19804300716E+00 -0.74657544477E+00  0.60464525078E+01  0.51100000000E-03 0.  1.
         12    1    3    3    0    0 -0.15548669046E+02 -0.13552270633E+02 -0.49081040305E+01  0.21201760153E+02  0.00000000000E+00 0. -1.
</event>
<event>
 7    1  0.3742599E-009  0.4778728E+02  0.7816164E-02  0.1312668E+00
        -11   -1    0    0    0    0  0.00000000000E+00  0.00000000000E+00  0.45593999997E+02  0.45594000000E+02  0.51100000000E-03 0.  1.
         11   -1    0    0    0    0 -0.00000000000E+00 -0.00000000000E+00 -0.45593999997E+02  0.45594000000E+02  0.51100000000E-03 0. -1.
    9900012    2    1    2    0    0  0.13649877532E+02 -0.15671674675E+02 -0.38101208447E+02  0.47787278475E+02  0.20000033877E+02 0.  0.
        -12    1    1    2    0    0 -0.13649877532E+02  0.15671674675E+02  0.38101208447E+02  0.43400721525E+02  0.00000000000E+00 0.  1.
         11    1    3    3    0    0  0.10873735673E+02 -0.89328218664E+01 -0.25681731145E+02  0.29284547954E+02  0.51100000000E-03 0. -1.
        -11    1    3    3    0    0  0.28215740024E+01 -0.58252508545E+01 -0.14691149717E+02  0.16053806640E+02  0.51100000000E-03 0.  1.
        -12    1    3    3    0    0 -0.45432142529E-01 -0.91360195432E+00  0.22716724151E+01  0.24489238804E+01  0.00000000000E+00 0.  1.
</event>
<event>
 7    1  0.3742599E-009  0.4778728E+02  0.7816164E-02  0.1312668E+00
        -11   -1    0    0    0    0  0.00000000000E+00  0.00000000000E+00  0.45593999997E+02  0.45594000000E+02  0.51100000000E-03 0.  1.
         11   -1    0    0    0    0 -0.00000000000E+00 -0.00000000000E+00 -0.45593999997E+02  0.45594000000E+02  0.51100000000E-03 0. -1.
    9900012    2    1    2    0    0 -0.23876404960E+02 -0.17587821500E+02 -0.31689250692E+02  0.47787276638E+02  0.20000025504E+02 0.  0.
        -12    1    1    2    0    0  0.23876404960E+02  0.17587821500E+02  0.31689250692E+02  0.43400723362E+02  0.00000000000E+00 0.  1.
         11    1    3    3    0    0 -0.18783764700E+02 -0.16804650055E+02 -0.17619672200E+02  0.30751893087E+02  0.51100000000E-03 0. -1.
        -11    1    3    3    0    0 -0.13202059520E+01  0.24983402521E+00  0.86442007504E+00  0.15976805447E+01  0.51100000000E-03 0.  1.
         12    1    3    3    0    0 -0.37724343083E+01 -0.10330054708E+01 -0.14933998567E+02  0.15437703006E+02  0.00000000000E+00 0. -1.
</event>
<event>
 7    1  0.3742599E-009  0.4778727E+02  0.7816164E-02  0.1312668E+00
        -11   -1    0    0    0    0  0.00000000000E+00  0.00000000000E+00  0.45593999997E+02  0.45594000000E+02  0.51100000000E-03 0.  1.
         11   -1    0    0    0    0 -0.00000000000E+00 -0.00000000000E+00 -0.45593999997E+02  0.45594000000E+02  0.51100000000E-03 0. -1.
    9900012    2    1    2    0    0 -0.74790998315E+01  0.41449201653E+00 -0.42749437294E+02  0.47787272738E+02  0.20000007720E+02 0.  0.
        -12    1    1    2    0    0  0.74790998315E+01 -0.41449201653E+00  0.42749437294E+02  0.43400727262E+02  0.00000000000E+00 0.  1.
         11    1    3    3    0    0 -0.38632854468E+01 -0.46398332480E+01 -0.11423863658E+02  0.12921210785E+02  0.51100000000E-03 0. -1.
        -11    1    3    3    0    0 -0.52357419478E+01  0.16570349177E+00 -0.28528573689E+02  0.29005516171E+02  0.51100000000E-03 0.  1.
        -12    1    3    3    0    0  0.16199275632E+01  0.48886217727E+01 -0.27969999473E+01  0.58605457811E+01  0.00000000000E+00 0.  1.
</event>
<event>
 7    1  0.3742599E-009  0.4778727E+02  0.7816164E-02  0.1312668E+00
        -11   -1    0    0    0    0  0.00000000000E+00  0.00000000000E+00  0.45593999997E+02  0.45594000000E+02  0.51100000000E-03 0. -1.
         11   -1    0    0    0    0 -0.00000000000E+00 -0.00000000000E+00 -0.45593999997E+02  0.45594000000E+02  0.51100000000E-03 0.  1.
    9900012    2    1    2    0    0 -0.18468563678E+02  0.23026708458E+02  0.31816764407E+02  0.47787266779E+02  0.19999980553E+02 0.  0.
        -12    1    1    2    0    0  0.18468563678E+02 -0.23026708458E+02 -0.31816764407E+02  0.43400733221E+02  0.00000000000E+00 0.  1.
         11    1    3    3    0    0 -0.53556568902E+00  0.10278654694E+01  0.63568283100E+01  0.64616255272E+01  0.51100000000E-03 0. -1.
        -11    1    3    3    0    0 -0.46054632811E+01  0.35794312462E+00 -0.90276800737E+00  0.47067404486E+01  0.51100000000E-03 0.  1.
         12    1    3    3    0    0 -0.13327534708E+02  0.21640899864E+02  0.26362704105E+02  0.36618900803E+02  0.00000000000E+00 0. -1.
</event>
<event>
 7    1  0.3742599E-009  0.4778726E+02  0.7816164E-02  0.1312668E+00
        -11   -1    0    0    0    0  0.00000000000E+00  0.00000000000E+00  0.45593999997E+02  0.45594000000E+02  0.51100000000E-03 0.  1.
         11   -1    0    0    0    0 -0.00000000000E+00 -0.00000000000E+00 -0.45593999997E+02  0.45594000000E+02  0.51100000000E-03 0. -1.
    9900012    2    1    2    0    0  0.21659115731E+02 -0.20650245825E+02 -0.31433643579E+02  0.47787263883E+02  0.19999967347E+02 0.  0.
        -12    1    1    2    0    0 -0.21659115731E+02  0.20650245825E+02  0.31433643579E+02  0.43400736117E+02  0.00000000000E+00 0.  1.
         11    1    3    3    0    0  0.26501855204E+00 -0.19847243521E+00 -0.21450971971E+01  0.21704995707E+01  0.51100000000E-03 0. -1.
        -11    1    3    3    0    0  0.18269852834E+02 -0.19344216426E+02 -0.31795977678E+02  0.41460468262E+02  0.51100000000E-03 0.  1.
        -12    1    3    3    0    0  0.31242443450E+01 -0.11075569629E+01  0.25074312961E+01  0.41562960504E+01  0.00000000000E+00 0.  1.
</event>
<event>
 7    1  0.3742599E-009  0.4778727E+02  0.7816164E-02  0.1312668E+00
        -11   -1    0    0    0    0  0.00000000000E+00  0.00000000000E+00  0.45593999997E+02  0.45594000000E+02  0.51100000000E-03 0.  1.
         11   -1    0    0    0    0 -0.00000000000E+00 -0.00000000000E+00 -0.45593999997E+02  0.45594000000E+02  0.51100000000E-03 0. -1.
    9900012    2    1    2    0    0  0.32856777542E+02  0.26351966409E+02 -0.10470397642E+02  0.47787272000E+02  0.20000004359E+02 0.  0.
        -12    1    1    2    0    0 -0.32856777542E+02 -0.26351966409E+02  0.10470397642E+02  0.43400728000E+02  0.00000000000E+00 0.  1.
         11    1    3    3    0    0  0.94056015772E+01  0.29299196261E+01 -0.14551818885E+01  0.99582792004E+01  0.51100000000E-03 0. -1.
        -11    1    3    3    0    0  0.10776770252E+02  0.13185186646E+02 -0.12554759300E+02  0.21156793360E+02  0.51100000000E-03 0.  1.
        -12    1    3    3    0    0  0.12674405713E+02  0.10236860137E+02  0.35395435458E+01  0.16672199440E+02  0.00000000000E+00 0.  1.
</event>
<event>
 7    1  0.3742599E-009  0.4778727E+02  0.7816164E-02  0.1312668E+00
        -11   -1    0    0    0    0  0.00000000000E+00  0.00000000000E+00  0.45593999997E+02  0.45594000000E+02  0.51100000000E-03 0.  1.
         11   -1    0    0    0    0 -0.00000000000E+00 -0.00000000000E+00 -0.45593999997E+02  0.45594000000E+02  0.51100000000E-03 0. -1.
    9900012    2    1    2    0    0  0.41198226623E+02 -0.13609062431E+02 -0.10595590690E+01  0.47787272788E+02  0.20000007949E+02 0.  0.
        -12    1    1    2    0    0 -0.41198226623E+02  0.13609062431E+02  0.10595590690E+01  0.43400727212E+02  0.00000000000E+00 0.  1.
         11    1    3    3    0    0  0.16952626094E+02 -0.69300626723E+00 -0.41702233879E+00  0.16971909058E+02  0.51100000000E-03 0. -1.
        -11    1    3    3    0    0  0.13011115361E+02 -0.56498351598E+01  0.65511251308E+01  0.15624564026E+02  0.51100000000E-03 0.  1.
         12    1    3    3    0    0  0.11234485168E+02 -0.72662210042E+01 -0.71936618610E+01  0.15190799704E+02  0.00000000000E+00 0. -1.
</event>
<event>
 7    1  0.3742599E-009  0.4778727E+02  0.7816164E-02  0.1312668E+00
        -11   -1    0    0    0    0  0.00000000000E+00  0.00000000000E+00  0.45593999997E+02  0.45594000000E+02  0.51100000000E-03 0. -1.
         11   -1    0    0    0    0 -0.00000000000E+00 -0.00000000000E+00 -0.45593999997E+02  0.45594000000E+02  0.51100000000E-03 0.  1.
    9900012    2    1    2    0    0  0.12098037489E+01  0.35012445526E+02  0.25618126597E+02  0.47787269854E+02  0.19999994573E+02 0.  0.
        -12    1    1    2    0    0 -0.12098037489E+01 -0.35012445526E+02 -0.25618126597E+02  0.43400730146E+02  0.00000000000E+00 0.  1.
         11    1    3    3    0    0 -0.78029991757E+00  0.28506677097E+02  0.14605463757E+02  0.32039960657E+02  0.51100000000E-03 0. -1.
        -11    1    3    3    0    0  0.48594033793E+00  0.64023651154E+01  0.21707941514E+01  0.67778141455E+01  0.51100000000E-03 0.  1.
        -12    1    3    3    0    0  0.15041633286E+01  0.10340331339E+00  0.88418686894E+01  0.89694950518E+01  0.00000000000E+00 0.  1.
</event>
<event>
 7    1  0.3742599E-009  0.4778726E+02  0.7816164E-02  0.1312668E+00
        -11   -1    0    0    0    0  0.00000000000E+00  0.00000000000E+00  0.45593999997E+02  0.45594000000E+02  0.51100000000E-03 0.  1.
         11   -1    0    0    0    0 -0.00000000000E+00 -0.00000000000E+00 -0.45593999997E+02  0.45594000000E+02  0.51100000000E-03 0. -1.
    9900012    2    1    2    0    0  0.11001103453E+02 -0.54791528607E+01 -0.41624258777E+02  0.47787259085E+02  0.19999945470E+02 0.  0.
        -12    1    1    2    0    0 -0.11001103453E+02  0.54791528607E+01  0.41624258777E+02  0.43400740915E+02  0.00000000000E+00 0.  1.
         11    1    3    3    0    0 -0.10255081461E+01 -0.57616709212E+01 -0.18314399077E+02  0.19226693231E+02  0.51100000000E-03 0. -1.
        -11    1    3    3    0    0 -0.77894929199E-01 -0.34021578037E+01 -0.80342074116E+01  0.87252068362E+01  0.51100000000E-03 0.  1.
        -12    1    3    3    0    0  0.12104506529E+02  0.36846758642E+01 -0.15275652288E+02  0.19835359018E+02  0.00000000000E+00 0.  1.
</event>
<event>
 7    1  0.3742599E-009  0.4778727E+02  0.7816164E-02  0.1312668E+00
        -11   -1    0    0    0    0  0.00000000000E+00  0.00000000000E+00  0.45593999997E+02  0.45594000000E+02  0.51100000000E-03 0.  1.
         11   -1    0    0    0    0 -0.00000000000E+00 -0.00000000000E+00 -0.45593999997E+02  0.45594000000E+02  0.51100000000E-03 0. -1.
    9900012    2    1    2    0    0 -0.31049886834E+02 -0.91287718019E+01 -0.28917008953E+02  0.47787270123E+02  0.19999995800E+02 0.  0.
        -12    1    1    2    0    0  0.31049886834E+02  0.91287718019E+01  0.28917008953E+02  0.43400729877E+02  0.00000000000E+00 0.  1.
         11    1    3    3    0    0 -0.48614920659E+01 -0.55578608496E+01 -0.68197577396E+01  0.10051518205E+02  0.51100000000E-03 0. -1.
        -11    1    3    3    0    0 -0.24572702968E+02 -0.56116151809E+01 -0.13173751014E+02  0.28440388044E+02  0.51100000000E-03 0.  1.
         12    1    3    3    0    0 -0.16156918010E+01  0.20407042286E+01 -0.89235001994E+01  0.92953638742E+01  0.00000000000E+00 0. -1.
</event>
<event>
 7    1  0.3742599E-009  0.4778727E+02  0.7816164E-02  0.1312668E+00
        -11   -1    0    0    0    0  0.00000000000E+00  0.00000000000E+00  0.45593999997E+02  0.45594000000E+02  0.51100000000E-03 0.  1.
         11   -1    0    0    0    0 -0.00000000000E+00 -0.00000000000E+00 -0.45593999997E+02  0.45594000000E+02  0.51100000000E-03 0. -1.
    9900012    2    1    2    0    0  0.46466804880E+01  0.30673154617E+02 -0.30351096242E+02  0.47787273084E+02  0.20000009301E+02 0.  0.
        -12    1    1    2    0    0 -0.46466804880E+01 -0.30673154617E+02  0.30351096242E+02  0.43400726916E+02  0.00000000000E+00 0.  1.
         11    1    3    3    0    0  0.54041693824E+01  0.66863963404E+01 -0.82675746412E+01  0.11927520004E+02  0.51100000000E-03 0. -1.
        -11    1    3    3    0    0  0.98779435656E+00  0.93426832663E+01 -0.10927743794E+00  0.93953930266E+01  0.51100000000E-03 0.  1.
        -12    1    3    3    0    0 -0.17452832510E+01  0.14644075011E+02 -0.21974244162E+02  0.26464360054E+02  0.00000000000E+00 0.  1.
</event>
<event>
 7    1  0.3742599E-009  0.4778727E+02  0.7816164E-02  0.1312668E+00
        -11   -1    0    0    0    0  0.00000000000E+00  0.00000000000E+00  0.45593999997E+02  0.45594000000E+02  0.51100000000E-03 0.  1.
         11   -1    0    0    0    0 -0.00000000000E+00 -0.00000000000E+00 -0.45593999997E+02  0.45594000000E+02  0.51100000000E-03 0. -1.
    9900012    2    1    2    0    0  0.22163086693E+02  0.83714202491E+01 -0.36363994316E+02  0.47787272226E+02  0.20000005386E+02 0.  0.
        -12    1    1    2    0    0 -0.22163086693E+02 -0.83714202491E+01  0.36363994316E+02  0.43400727774E+02  0.00000000000E+00 0.  1.
         11    1    3    3    0    0  0.48735302133E+01  0.11171642364E+01 -0.14520652527E+02  0.15357366400E+02  0.51100000000E-03 0. -1.
        -11    1    3    3    0    0  0.94814771050E+01  0.11398027630E+02 -0.16109497746E+02  0.21893591753E+02  0.51100000000E-03 0.  1.
         12    1    3    3    0    0  0.78080793748E+01 -0.41437716173E+01 -0.57338440424E+01  0.10536314073E+02  0.00000000000E+00 0. -1.
</event>
<event>
 7    1  0.3742599E-009  0.4778727E+02  0.7816164E-02  0.1312668E+00
        -11   -1    0    0    0    0  0.00000000000E+00  0.00000000000E+00  0.45593999997E+02  0.45594000000E+02  0.51100000000E-03 0.  1.
         11   -1    0    0    0    0 -0.00000000000E+00 -0.00000000000E+00 -0.45593999997E+02  0.45594000000E+02  0.51100000000E-03 0. -1.
    9900012    2    1    2    0    0 -0.20267392358E+02 -0.11141258248E+02 -0.36725035032E+02  0.47787273895E+02  0.20000012998E+02 0.  0.
        -12    1    1    2    0    0  0.20267392358E+02  0.11141258248E+02  0.36725035032E+02  0.43400726105E+02  0.00000000000E+00 0.  1.
         11    1    3    3    0    0 -0.12741996953E+02 -0.54125997331E+01 -0.93879308189E+01  0.16726863649E+02  0.51100000000E-03 0. -1.
        -11    1    3    3    0    0 -0.98097236464E+00 -0.11469245603E+01  0.87122922388E+00  0.17426368953E+01  0.51100000000E-03 0.  1.
        -12    1    3    3    0    0 -0.65444230400E+01 -0.45817339542E+01 -0.28208333437E+02  0.29317773351E+02  0.00000000000E+00 0.  1.
</event>
<event>
 7    1  0.3742599E-009  0.4778727E+02  0.7816164E-02  0.1312668E+00
        -11   -1    0    0    0    0  0.00000000000E+00  0.00000000000E+00  0.45593999997E+02  0.45594000000E+02  0.51100000000E-03 0. -1.
         11   -1    0    0    0    0 -0.00000000000E+00 -0.00000000000E+00 -0.45593999997E+02  0.45594000000E+02  0.51100000000E-03 0.  1.
    9900012    2    1    2    0    0 -0.28296374392E+02  0.30723555519E+02  0.11789896843E+02  0.47787270340E+02  0.19999996788E+02 0.  0.
        -12    1    1    2    0    0  0.28296374392E+02 -0.30723555519E+02 -0.11789896843E+02  0.43400729660E+02  0.00000000000E+00 0.  1.
         11    1    3    3    0    0 -0.42499948741E+01  0.13536801030E+02  0.90579285299E+00  0.14217169181E+02  0.51100000000E-03 0. -1.
        -11    1    3    3    0    0 -0.82691333263E+00  0.12494123949E+01 -0.20826574188E+01  0.25655952871E+01  0.51100000000E-03 0.  1.
         12    1    3    3    0    0 -0.23219466186E+02  0.15937342094E+02  0.12966761408E+02  0.31004505872E+02  0.00000000000E+00 0. -1.
</event>
<event>
 7    1  0.3742599E-009  0.4778727E+02  0.7816164E-02  0.1312668E+00
        -11   -1    0    0    0    0  0.00000000000E+00  0.00000000000E+00  0.45593999997E+02  0.45594000000E+02  0.51100000000E-03 0.  1.
         11   -1    0    0    0    0 -0.00000000000E+00 -0.00000000000E+00 -0.45593999997E+02  0.45594000000E+02  0.51100000000E-03 0. -1.
    9900012    2    1    2    0    0  0.29386906966E+02 -0.63534422085E+00 -0.31931635898E+02  0.47787270347E+02  0.19999996818E+02 0.  0.
        -12    1    1    2    0    0 -0.29386906966E+02  0.63534422085E+00  0.31931635898E+02  0.43400729653E+02  0.00000000000E+00 0.  1.
         11    1    3    3    0    0  0.42544243663E+00 -0.78718519083E+00 -0.11917233147E+01  0.14902571964E+01  0.51100000000E-03 0.  1.
        -11    1    3    3    0    0  0.23508251472E+02  0.81764646250E+01 -0.22931450280E+02  0.33842929443E+02  0.51100000000E-03 0. -1.
        -12    1    3    3    0    0  0.54532130577E+01 -0.80246236551E+01 -0.78084623030E+01  0.12454083708E+02  0.00000000000E+00 0.  1.
</event>
<event>
 7    1  0.3742599E-009  0.4778727E+02  0.7816164E-02  0.1312668E+00
        -11   -1    0    0    0    0  0.00000000000E+00  0.00000000000E+00  0.45593999997E+02  0.45594000000E+02  0.51100000000E-03 0.  1.
         11   -1    0    0    0    0 -0.00000000000E+00 -0.00000000000E+00 -0.45593999997E+02  0.45594000000E+02  0.51100000000E-03 0. -1.
    9900012    2    1    2    0    0 -0.11117258137E+02  0.83313472025E+01 -0.41117129697E+02  0.47787272711E+02  0.20000007598E+02 0.  0.
        -12    1    1    2    0    0  0.11117258137E+02 -0.83313472025E+01  0.41117129697E+02  0.43400727289E+02  0.00000000000E+00 0.  1.
         11    1    3    3    0    0 -0.80602111364E+01  0.54818844511E+01 -0.84459230602E+01  0.12897739232E+02  0.51100000000E-03 0. -1.
        -11    1    3    3    0    0 -0.72719278306E+01  0.22178935322E+01 -0.16519479232E+02  0.18184971280E+02  0.51100000000E-03 0.  1.
        -12    1    3    3    0    0  0.42148808299E+01  0.63156921922E+00 -0.16151727405E+02  0.16704562199E+02  0.00000000000E+00 0.  1.
</event>
<event>
 7    1  0.3742599E-009  0.4778727E+02  0.7816164E-02  0.1312668E+00
        -11   -1    0    0    0    0  0.00000000000E+00  0.00000000000E+00  0.45593999997E+02  0.45594000000E+02  0.51100000000E-03 0. -1.
         11   -1    0    0    0    0 -0.00000000000E+00 -0.00000000000E+00 -0.45593999997E+02  0.45594000000E+02  0.51100000000E-03 0.  1.
    9900012    2    1    2    0    0  0.24907036246E+02 -0.80257286296E+01  0.34624420198E+02  0.47787271335E+02  0.20000001324E+02 0.  0.
        -12    1    1    2    0    0 -0.24907036246E+02  0.80257286296E+01 -0.34624420198E+02  0.43400728665E+02  0.00000000000E+00 0.  1.
         11    1    3    3    0    0  0.42721341304E+01  0.30800210572E+01  0.12923348573E+02  0.13955307174E+02  0.51100000000E-03 0. -1.
        -11    1    3    3    0    0  0.39882202367E+01  0.10404094452E+01  0.82536745946E+01  0.92255892519E+01  0.51100000000E-03 0.  1.
        -12    1    3    3    0    0  0.16646681879E+02 -0.12146159132E+02  0.13447397031E+02  0.24606374909E+02  0.00000000000E+00 0.  1.
</event>
<event>
 7    1  0.3742599E-009  0.4778724E+02  0.7816164E-02  0.1312668E+00
        -11   -1    0    0    0    0  0.00000000000E+00  0.00000000000E+00  0.45593999997E+02  0.45594000000E+02  0.51100000000E-03 0. -1.
         11   -1    0    0    0    0 -0.00000000000E+00 -0.00000000000E+00 -0.45593999997E+02  0.45594000000E+02  0.51100000000E-03 0.  1.
    9900012    2    1    2    0    0 -0.37670562598E+02 -0.21039163380E+02 -0.46806204263E+01  0.47787240908E+02  0.19999862596E+02 0.  0.
        -12    1    1    2    0    0  0.37670562598E+02  0.21039163380E+02  0.46806204263E+01  0.43400759092E+02  0.00000000000E+00 0.  1.
         11    1    3    3    0    0 -0.16865661035E+02 -0.34552090365E+01 -0.28808237804E+01  0.17455318317E+02  0.51100000000E-03 0. -1.
        -11    1    3    3    0    0 -0.91663965346E+01 -0.12367479332E+02  0.45939917038E+01  0.16064934812E+02  0.51100000000E-03 0.  1.
         12    1    3    3    0    0 -0.11638505029E+02 -0.52164750107E+01 -0.63937883498E+01  0.14266987780E+02  0.00000000000E+00 0. -1.
</event>
<event>
 7    1  0.3742599E-009  0.4778728E+02  0.7816164E-02  0.1312668E+00
        -11   -1    0    0    0    0  0.00000000000E+00  0.00000000000E+00  0.45593999997E+02  0.45594000000E+02  0.51100000000E-03 0.  1.
         11   -1    0    0    0    0 -0.00000000000E+00 -0.00000000000E+00 -0.45593999997E+02  0.45594000000E+02  0.51100000000E-03 0. -1.
    9900012    2    1    2    0    0  0.31094002382E+02  0.50542609507E+01 -0.29853636474E+02  0.47787284008E+02  0.20000059106E+02 0.  0.
        -12    1    1    2    0    0 -0.31094002382E+02 -0.50542609507E+01  0.29853636474E+02  0.43400715992E+02  0.00000000000E+00 0.  1.
         11    1    3    3    0    0  0.27233732260E+01  0.44888322159E+00  0.14159123557E+01  0.31021066930E+01  0.51100000000E-03 0.  1.
        -11    1    3    3    0    0  0.90710280353E+01  0.74292936676E+01 -0.74216715138E+01  0.13876568824E+02  0.51100000000E-03 0. -1.
         12    1    3    3    0    0  0.19299601121E+02 -0.28239159385E+01 -0.23847877316E+02  0.30808608491E+02  0.00000000000E+00 0. -1.
</event>
<event>
 7    1  0.3742599E-009  0.4778727E+02  0.7816164E-02  0.1312668E+00
        -11   -1    0    0    0    0  0.00000000000E+00  0.00000000000E+00  0.45593999997E+02  0.45594000000E+02  0.51100000000E-03 0. -1.
         11   -1    0    0    0    0 -0.00000000000E+00 -0.00000000000E+00 -0.45593999997E+02  0.45594000000E+02  0.51100000000E-03 0.  1.
    9900012    2    1    2    0    0  0.28766663925E+02 -0.31634093871E+02 -0.74422273452E+01  0.47787267330E+02  0.19999983064E+02 0.  0.
        -12    1    1    2    0    0 -0.28766663925E+02  0.31634093871E+02  0.74422273452E+01  0.43400732670E+02  0.00000000000E+00 0.  1.
         11    1    3    3    0    0  0.11381783230E+02 -0.12497389767E+02 -0.99388863768E+01  0.19608957217E+02  0.51100000000E-03 0. -1.
        -11    1    3    3    0    0  0.56391043915E+01 -0.12821248400E+00 -0.35841468708E+00  0.56519375552E+01  0.51100000000E-03 0.  1.
        -12    1    3    3    0    0  0.11745776304E+02 -0.19008491620E+02  0.28550737188E+01  0.22526372557E+02  0.00000000000E+00 0.  1.
</event>
<event>
 7    1  0.3742599E-009  0.4778727E+02  0.7816164E-02  0.1312668E+00
        -11   -1    0    0    0    0  0.00000000000E+00  0.00000000000E+00  0.45593999997E+02  0.45594000000E+02  0.51100000000E-03 0. -1.
         11   -1    0    0    0    0 -0.00000000000E+00 -0.00000000000E+00 -0.45593999997E+02  0.45594000000E+02  0.51100000000E-03 0.  1.
    9900012    2    1    2    0    0 -0.17179192355E+02 -0.21981260502E+02  0.33246397998E+02  0.47787269095E+02  0.19999991112E+02 0.  0.
        -12    1    1    2    0    0  0.17179192355E+02  0.21981260502E+02 -0.33246397998E+02  0.43400730905E+02  0.00000000000E+00 0.  1.
         11    1    3    3    0    0 -0.17456841281E+01 -0.32740521155E+01  0.30968096128E+01  0.48329142729E+01  0.51100000000E-03 0. -1.
        -11    1    3    3    0    0 -0.67226027186E+01 -0.95836574225E+01  0.16942181200E+01  0.11828366422E+02  0.51100000000E-03 0.  1.
         12    1    3    3    0    0 -0.87109055085E+01 -0.91235509643E+01  0.28455370265E+02  0.31125988401E+02  0.00000000000E+00 0. -1.
</event>
<event>
 7    1  0.3742599E-009  0.4778728E+02  0.7816164E-02  0.1312668E+00
        -11   -1    0    0    0    0  0.00000000000E+00  0.00000000000E+00  0.45593999997E+02  0.45594000000E+02  0.51100000000E-03 0.  1.
         11   -1    0    0    0    0 -0.00000000000E+00 -0.00000000000E+00 -0.45593999997E+02  0.45594000000E+02  0.51100000000E-03 0. -1.
    9900012    2    1    2    0    0  0.33801924585E+02 -0.27136440684E+02 -0.21601377992E+01  0.47787277495E+02  0.20000029410E+02 0.  0.
        -12    1    1    2    0    0 -0.33801924585E+02  0.27136440684E+02  0.21601377992E+01  0.43400722505E+02  0.00000000000E+00 0.  1.
         11    1    3    3    0    0  0.12175080966E+02 -0.21101522796E+02  0.34598669196E+00  0.24364452957E+02  0.51100000000E-03 0.  1.
        -11    1    3    3    0    0  0.39866273883E+01 -0.36517214922E+01 -0.14176828402E+01  0.55891048197E+01  0.51100000000E-03 0. -1.
        -12    1    3    3    0    0  0.17640216232E+02 -0.23831963953E+01 -0.10884416510E+01  0.17833719718E+02  0.00000000000E+00 0.  1.
</event>
<event>
 7    1  0.3742599E-009  0.4778728E+02  0.7816164E-02  0.1312668E+00
        -11   -1    0    0    0    0  0.00000000000E+00  0.00000000000E+00  0.45593999997E+02  0.45594000000E+02  0.51100000000E-03 0.  1.
         11   -1    0    0    0    0 -0.00000000000E+00 -0.00000000000E+00 -0.45593999997E+02  0.45594000000E+02  0.51100000000E-03 0. -1.
    9900012    2    1    2    0    0 -0.31706275680E+02 -0.22696721388E+02 -0.19057643460E+02  0.47787275888E+02  0.20000022081E+02 0.  0.
        -12    1    1    2    0    0  0.31706275680E+02  0.22696721388E+02  0.19057643460E+02  0.43400724112E+02  0.00000000000E+00 0.  1.
         11    1    3    3    0    0 -0.41654127687E+01 -0.18011110448E+01 -0.31391203184E+01  0.55180378002E+01  0.51100000000E-03 0. -1.
        -11    1    3    3    0    0 -0.21348839160E+02 -0.24081871432E+02 -0.12699387377E+02  0.34597455183E+02  0.51100000000E-03 0.  1.
        -12    1    3    3    0    0 -0.61920237511E+01  0.31862610887E+01 -0.32191357649E+01  0.76717829044E+01  0.00000000000E+00 0.  1.
</event>
<event>
 7    1  0.3742599E-009  0.4778728E+02  0.7816164E-02  0.1312668E+00
        -11   -1    0    0    0    0  0.00000000000E+00  0.00000000000E+00  0.45593999997E+02  0.45594000000E+02  0.51100000000E-03 0. -1.
         11   -1    0    0    0    0 -0.00000000000E+00 -0.00000000000E+00 -0.45593999997E+02  0.45594000000E+02  0.51100000000E-03 0.  1.
    9900012    2    1    2    0    0  0.39140350647E+02 -0.13048140688E+02  0.13468529866E+02  0.47787282023E+02  0.20000050057E+02 0.  0.
        -12    1    1    2    0    0 -0.39140350647E+02  0.13048140688E+02 -0.13468529866E+02  0.43400717977E+02  0.00000000000E+00 0.  1.
         11    1    3    3    0    0  0.81529435085E+01  0.30930639403E+01  0.16714210628E+01  0.88786925288E+01  0.51100000000E-03 0. -1.
        -11    1    3    3    0    0  0.19839893578E+01  0.18555225700E+01  0.20733294599E+01  0.34172903140E+01  0.51100000000E-03 0.  1.
        -12    1    3    3    0    0  0.29003417780E+02 -0.17996727198E+02  0.97237793430E+01  0.35491299180E+02  0.00000000000E+00 0.  1.
</event>
<event>
 7    1  0.3742599E-009  0.4778727E+02  0.7816164E-02  0.1312668E+00
        -11   -1    0    0    0    0  0.00000000000E+00  0.00000000000E+00  0.45593999997E+02  0.45594000000E+02  0.51100000000E-03 0. -1.
         11   -1    0    0    0    0 -0.00000000000E+00 -0.00000000000E+00 -0.45593999997E+02  0.45594000000E+02  0.51100000000E-03 0.  1.
    9900012    2    1    2    0    0 -0.31948502913E+00 -0.22949459562E+02  0.36835358569E+02  0.47787269525E+02  0.19999993070E+02 0.  0.
        -12    1    1    2    0    0  0.31948502913E+00  0.22949459562E+02 -0.36835358569E+02  0.43400730475E+02  0.00000000000E+00 0.  1.
         11    1    3    3    0    0 -0.95180575202E+00 -0.34698198198E+01  0.59288053309E+01  0.69351508047E+01  0.51100000000E-03 0. -1.
        -11    1    3    3    0    0  0.34514279644E+00  0.19230886469E+01  0.12410017364E+02  0.12562878840E+02  0.51100000000E-03 0.  1.
        -12    1    3    3    0    0  0.28717792645E+00 -0.21402728389E+02  0.18496535874E+02  0.28289239880E+02  0.00000000000E+00 0.  1.
</event>
<event>
 7    1  0.3742599E-009  0.4778727E+02  0.7816164E-02  0.1312668E+00
        -11   -1    0    0    0    0  0.00000000000E+00  0.00000000000E+00  0.45593999997E+02  0.45594000000E+02  0.51100000000E-03 0. -1.
         11   -1    0    0    0    0 -0.00000000000E+00 -0.00000000000E+00 -0.45593999997E+02  0.45594000000E+02  0.51100000000E-03 0.  1.
    9900012    2    1    2    0    0  0.29430347147E+02  0.30026009606E+02  0.10766463214E+02  0.47787270557E+02  0.19999997777E+02 0.  0.
        -12    1    1    2    0    0 -0.29430347147E+02 -0.30026009606E+02 -0.10766463214E+02  0.43400729443E+02  0.00000000000E+00 0.  1.
         11    1    3    3    0    0  0.18167319109E+02  0.11601949408E+02  0.81718586520E+01  0.23052895432E+02  0.51100000000E-03 0. -1.
        -11    1    3    3    0    0  0.10606613989E+02  0.11585818642E+02  0.63060246577E+01  0.16926234111E+02  0.51100000000E-03 0.  1.
        -12    1    3    3    0    0  0.65641404855E+00  0.68382415554E+01 -0.37114200962E+01  0.78081410146E+01  0.00000000000E+00 0.  1.
</event>
<event>
 7    1  0.3742599E-009  0.4778725E+02  0.7816164E-02  0.1312668E+00
        -11   -1    0    0    0    0  0.00000000000E+00  0.00000000000E+00  0.45593999997E+02  0.45594000000E+02  0.51100000000E-03 0.  1.
         11   -1    0    0    0    0 -0.00000000000E+00 -0.00000000000E+00 -0.45593999997E+02  0.45594000000E+02  0.51100000000E-03 0. -1.
    9900012    2    1    2    0    0  0.96200733065E+00  0.68528804609E+01 -0.42845509689E+02  0.47787249670E+02  0.19999902543E+02 0.  0.
        -12    1    1    2    0    0 -0.96200733065E+00 -0.68528804609E+01  0.42845509689E+02  0.43400750330E+02  0.00000000000E+00 0.  1.
         11    1    3    3    0    0 -0.36689184876E+00 -0.22590238026E+01 -0.85873536834E+01  0.88870941097E+01  0.51100000000E-03 0. -1.
        -11    1    3    3    0    0  0.72926502834E+01  0.77710061825E+01 -0.28788217313E+02  0.30697438681E+02  0.51100000000E-03 0.  1.
         12    1    3    3    0    0 -0.59637511039E+01  0.13408980811E+01 -0.54699386930E+01  0.82027168791E+01  0.00000000000E+00 0. -1.
</event>
<event>
 7    1  0.3742599E-009  0.4778727E+02  0.7816164E-02  0.1312668E+00
        -11   -1    0    0    0    0  0.00000000000E+00  0.00000000000E+00  0.45593999997E+02  0.45594000000E+02  0.51100000000E-03 0. -1.
         11   -1    0    0    0    0 -0.00000000000E+00 -0.00000000000E+00 -0.45593999997E+02  0.45594000000E+02  0.51100000000E-03 0.  1.
    9900012    2    1    2    0    0  0.35028428171E+02  0.23971468091E+02  0.90554655680E+01  0.47787268218E+02  0.19999987115E+02 0.  0.
        -12    1    1    2    0    0 -0.35028428171E+02 -0.23971468091E+02 -0.90554655680E+01  0.43400731782E+02  0.00000000000E+00 0.  1.
         11    1    3    3    0    0  0.21618178211E+02  0.15158925985E+02 -0.33706513386E+01  0.26617662499E+02  0.51100000000E-03 0. -1.
        -11    1    3    3    0    0  0.55464571807E+01  0.57472151204E+01  0.30380541192E+01  0.85453754739E+01  0.51100000000E-03 0.  1.
        -12    1    3    3    0    0  0.78637927786E+01  0.30653269851E+01  0.93880627875E+01  0.12624230246E+02  0.00000000000E+00 0.  1.
</event>
<event>
 7    1  0.3742599E-009  0.4778727E+02  0.7816164E-02  0.1312668E+00
        -11   -1    0    0    0    0  0.00000000000E+00  0.00000000000E+00  0.45593999997E+02  0.45594000000E+02  0.51100000000E-03 0.  1.
         11   -1    0    0    0    0 -0.00000000000E+00 -0.00000000000E+00 -0.45593999997E+02  0.45594000000E+02  0.51100000000E-03 0. -1.
    9900012    2    1    2    0    0 -0.19269064525E+02 -0.29871925389E+02 -0.24899689203E+02  0.47787270784E+02  0.19999998813E+02 0.  0.
        -12    1    1    2    0    0  0.19269064525E+02  0.29871925389E+02  0.24899689203E+02  0.43400729216E+02  0.00000000000E+00 0.  1.
         11    1    3    3    0    0 -0.74522457153E+01 -0.93566113260E+01 -0.58678186742E+01  0.13323416903E+02  0.51100000000E-03 0. -1.
        -11    1    3    3    0    0 -0.10619487180E+02 -0.40321387621E+01 -0.37707087353E+01  0.11968704842E+02  0.51100000000E-03 0.  1.
         12    1    3    3    0    0 -0.11973316291E+01 -0.16483175300E+02 -0.15261161793E+02  0.22495149039E+02  0.00000000000E+00 0. -1.
</event>
<event>
 7    1  0.3742599E-009  0.4778726E+02  0.7816164E-02  0.1312668E+00
        -11   -1    0    0    0    0  0.00000000000E+00  0.00000000000E+00  0.45593999997E+02  0.45594000000E+02  0.51100000000E-03 0.  1.
         11   -1    0    0    0    0 -0.00000000000E+00 -0.00000000000E+00 -0.45593999997E+02  0.45594000000E+02  0.51100000000E-03 0. -1.
    9900012    2    1    2    0    0 -0.27457983909E+02  0.33784363212E+01 -0.33440533628E+02  0.47787262660E+02  0.19999961773E+02 0.  0.
        -12    1    1    2    0    0  0.27457983909E+02 -0.33784363212E+01  0.33440533628E+02  0.43400737340E+02  0.00000000000E+00 0.  1.
         11    1    3    3    0    0 -0.47231947446E+01  0.76543388941E+01 -0.91143593320E+01  0.12805038805E+02  0.51100000000E-03 0. -1.
        -11    1    3    3    0    0 -0.76268737082E+01 -0.20993781935E+00 -0.23075121067E+01  0.79710657275E+01  0.51100000000E-03 0.  1.
         12    1    3    3    0    0 -0.15107915456E+02 -0.40659647535E+01 -0.22018662189E+02  0.27011158128E+02  0.00000000000E+00 0. -1.
</event>
<event>
 7    1  0.3742599E-009  0.4778727E+02  0.7816164E-02  0.1312668E+00
        -11   -1    0    0    0    0  0.00000000000E+00  0.00000000000E+00  0.45593999997E+02  0.45594000000E+02  0.51100000000E-03 0.  1.
         11   -1    0    0    0    0 -0.00000000000E+00 -0.00000000000E+00 -0.45593999997E+02  0.45594000000E+02  0.51100000000E-03 0. -1.
    9900012    2    1    2    0    0  0.73796092051E+01 -0.34088031542E+02 -0.25829650288E+02  0.47787270048E+02  0.19999995455E+02 0.  0.
        -12    1    1    2    0    0 -0.73796092051E+01  0.34088031542E+02  0.25829650288E+02  0.43400729952E+02  0.00000000000E+00 0.  1.
         11    1    3    3    0    0  0.10118328412E+02 -0.32247093066E+02 -0.21274965861E+02  0.39935945634E+02  0.51100000000E-03 0.  1.
        -11    1    3    3    0    0 -0.17062184161E+01 -0.37089691409E+01 -0.38282470991E+01  0.55967052347E+01  0.51100000000E-03 0. -1.
         12    1    3    3    0    0 -0.10325007911E+01  0.18680306650E+01 -0.72643732754E+00  0.22546191784E+01  0.00000000000E+00 0. -1.
</event>
<event>
 7    1  0.3742599E-009  0.4778727E+02  0.7816164E-02  0.1312668E+00
        -11   -1    0    0    0    0  0.00000000000E+00  0.00000000000E+00  0.45593999997E+02  0.45594000000E+02  0.51100000000E-03 0. -1.
         11   -1    0    0    0    0 -0.00000000000E+00 -0.00000000000E+00 -0.45593999997E+02  0.45594000000E+02  0.51100000000E-03 0.  1.
    9900012    2    1    2    0    0  0.84115462745E+01 -0.40754194447E+02  0.12327396501E+02  0.47787272123E+02  0.20000004916E+02 0.  0.
        -12    1    1    2    0    0 -0.84115462745E+01  0.40754194447E+02 -0.12327396501E+02  0.43400727877E+02  0.00000000000E+00 0.  1.
         11    1    3    3    0    0  0.82107604620E+00 -0.12944609039E+02  0.44200018572E+01  0.13703046586E+02  0.51100000000E-03 0.  1.
        -11    1    3    3    0    0 -0.22715130511E+01 -0.77096849887E+01  0.84856391284E+01  0.11687817839E+02  0.51100000000E-03 0. -1.
         12    1    3    3    0    0  0.98619832795E+01 -0.20099900420E+02 -0.57824448414E+00  0.22396407698E+02  0.00000000000E+00 0. -1.
</event>
<event>
 7    1  0.3742599E-009  0.4778727E+02  0.7816164E-02  0.1312668E+00
        -11   -1    0    0    0    0  0.00000000000E+00  0.00000000000E+00  0.45593999997E+02  0.45594000000E+02  0.51100000000E-03 0.  1.
         11   -1    0    0    0    0 -0.00000000000E+00 -0.00000000000E+00 -0.45593999997E+02  0.45594000000E+02  0.51100000000E-03 0. -1.
    9900012    2    1    2    0    0 -0.22155296680E+02 -0.59204715532E+01 -0.36847176060E+02  0.47787268002E+02  0.19999986128E+02 0.  0.
        -12    1    1    2    0    0  0.22155296680E+02  0.59204715532E+01  0.36847176060E+02  0.43400731998E+02  0.00000000000E+00 0.  1.
         11    1    3    3    0    0 -0.18737217834E+02 -0.37032889372E+01 -0.33327772400E+02  0.38412733494E+02  0.51100000000E-03 0. -1.
        -11    1    3    3    0    0 -0.85419449270E+00 -0.26582631979E+01 -0.54575955925E+01  0.61303638858E+01  0.51100000000E-03 0.  1.
        -12    1    3    3    0    0 -0.25638843531E+01  0.44108058197E+00  0.19381919325E+01  0.32441706217E+01  0.00000000000E+00 0.  1.
</event>
<event>
 7    1  0.3742599E-009  0.4778727E+02  0.7816164E-02  0.1312668E+00
        -11   -1    0    0    0    0  0.00000000000E+00  0.00000000000E+00  0.45593999997E+02  0.45594000000E+02  0.51100000000E-03 0.  1.
         11   -1    0    0    0    0 -0.00000000000E+00 -0.00000000000E+00 -0.45593999997E+02  0.45594000000E+02  0.51100000000E-03 0. -1.
    9900012    2    1    2    0    0  0.65601921286E+01  0.37291640340E+02 -0.21211338490E+02  0.47787269124E+02  0.19999991244E+02 0.  0.
        -12    1    1    2    0    0 -0.65601921286E+01 -0.37291640340E+02  0.21211338490E+02  0.43400730876E+02  0.00000000000E+00 0.  1.
         11    1    3    3    0    0  0.42685325111E+01  0.12395040452E+02 -0.87225105858E+01  0.15746097573E+02  0.51100000000E-03 0. -1.
        -11    1    3    3    0    0  0.87018364132E+01  0.12150527464E+02 -0.41284227585E+01  0.15504875019E+02  0.51100000000E-03 0.  1.
        -12    1    3    3    0    0 -0.64101767956E+01  0.12746072423E+02 -0.83604051461E+01  0.16536296532E+02  0.00000000000E+00 0.  1.
</event>
<event>
 7    1  0.3742599E-009  0.4778727E+02  0.7816164E-02  0.1312668E+00
        -11   -1    0    0    0    0  0.00000000000E+00  0.00000000000E+00  0.45593999997E+02  0.45594000000E+02  0.51100000000E-03 0.  1.
         11   -1    0    0    0    0 -0.00000000000E+00 -0.00000000000E+00 -0.45593999997E+02  0.45594000000E+02  0.51100000000E-03 0. -1.
    9900012    2    1    2    0    0 -0.10539631815E+02  0.47862900474E+01 -0.41828589582E+02  0.47787270540E+02  0.19999997701E+02 0.  0.
        -12    1    1    2    0    0  0.10539631815E+02 -0.47862900474E+01  0.41828589582E+02  0.43400729460E+02  0.00000000000E+00 0.  1.
         11    1    3    3    0    0 -0.70420309947E+01 -0.24261558682E+01 -0.17978899570E+02  0.19460659363E+02  0.51100000000E-03 0.  1.
        -11    1    3    3    0    0 -0.11002648926E+01 -0.34380374027E+01 -0.26397540212E+01  0.44720225368E+01  0.51100000000E-03 0. -1.
         12    1    3    3    0    0 -0.23973359274E+01  0.10650483318E+02 -0.21209935991E+02  0.23854588640E+02  0.00000000000E+00 0. -1.
</event>
<event>
 7    1  0.3742599E-009  0.4778727E+02  0.7816164E-02  0.1312668E+00
        -11   -1    0    0    0    0  0.00000000000E+00  0.00000000000E+00  0.45593999997E+02  0.45594000000E+02  0.51100000000E-03 0.  1.
         11   -1    0    0    0    0 -0.00000000000E+00 -0.00000000000E+00 -0.45593999997E+02  0.45594000000E+02  0.51100000000E-03 0. -1.
    9900012    2    1    2    0    0  0.19592006637E+02 -0.33977823616E+02 -0.18581827593E+02  0.47787267997E+02  0.19999986104E+02 0.  0.
        -12    1    1    2    0    0 -0.19592006637E+02  0.33977823616E+02  0.18581827593E+02  0.43400732003E+02  0.00000000000E+00 0.  1.
         11    1    3    3    0    0 -0.34564913594E+01 -0.12098296767E+01 -0.26617713512E+01  0.45272560510E+01  0.51100000000E-03 0.  1.
        -11    1    3    3    0    0  0.62710888718E+00 -0.23359139356E+01 -0.11314956760E+01  0.26702138860E+01  0.51100000000E-03 0. -1.
        -12    1    3    3    0    0  0.22421389109E+02 -0.30432080003E+02 -0.14788560566E+02  0.40589798060E+02  0.00000000000E+00 0.  1.
</event>
<event>
 7    1  0.3742599E-009  0.4778727E+02  0.7816164E-02  0.1312668E+00
        -11   -1    0    0    0    0  0.00000000000E+00  0.00000000000E+00  0.45593999997E+02  0.45594000000E+02  0.51100000000E-03 0. -1.
         11   -1    0    0    0    0 -0.00000000000E+00 -0.00000000000E+00 -0.45593999997E+02  0.45594000000E+02  0.51100000000E-03 0.  1.
    9900012    2    1    2    0    0 -0.18763493921E+02 -0.17611396308E+02  0.34948442655E+02  0.47787266964E+02  0.19999981396E+02 0.  0.
        -12    1    1    2    0    0  0.18763493921E+02  0.17611396308E+02 -0.34948442655E+02  0.43400733036E+02  0.00000000000E+00 0.  1.
         11    1    3    3    0    0 -0.58316893836E+01 -0.11275975133E+02  0.11589313442E+02  0.17189194355E+02  0.51100000000E-03 0. -1.
        -11    1    3    3    0    0 -0.14682554905E+02 -0.79677333122E+01  0.22566000561E+02  0.28076441624E+02  0.51100000000E-03 0.  1.
        -12    1    3    3    0    0  0.17507503680E+01  0.16323121372E+01  0.79312865206E+00  0.25216309847E+01  0.00000000000E+00 0.  1.
</event>
<event>
 7    1  0.3742599E-009  0.4778727E+02  0.7816164E-02  0.1312668E+00
        -11   -1    0    0    0    0  0.00000000000E+00  0.00000000000E+00  0.45593999997E+02  0.45594000000E+02  0.51100000000E-03 0.  1.
         11   -1    0    0    0    0 -0.00000000000E+00 -0.00000000000E+00 -0.45593999997E+02  0.45594000000E+02  0.51100000000E-03 0. -1.
    9900012    2    1    2    0    0 -0.34125726101E+02 -0.10651691100E+02 -0.24608935446E+02  0.47787269488E+02  0.19999992902E+02 0.  0.
        -12    1    1    2    0    0  0.34125726101E+02  0.10651691100E+02  0.24608935446E+02  0.43400730512E+02  0.00000000000E+00 0.  1.
         11    1    3    3    0    0 -0.22621599990E+02  0.65371890879E+00 -0.13638395100E+02  0.26422905891E+02  0.51100000000E-03 0. -1.
        -11    1    3    3    0    0 -0.91303037158E+00 -0.29286031116E+01 -0.64192596692E+01  0.71145790885E+01  0.51100000000E-03 0.  1.
        -12    1    3    3    0    0 -0.10591095739E+02 -0.83768068969E+01 -0.45512806770E+01  0.14249784508E+02  0.00000000000E+00 0.  1.
</event>
<event>
 7    1  0.3742599E-009  0.4778728E+02  0.7816164E-02  0.1312668E+00
        -11   -1    0    0    0    0  0.00000000000E+00  0.00000000000E+00  0.45593999997E+02  0.45594000000E+02  0.51100000000E-03 0.  1.
         11   -1    0    0    0    0 -0.00000000000E+00 -0.00000000000E+00 -0.45593999997E+02  0.45594000000E+02  0.51100000000E-03 0. -1.
    9900012    2    1    2    0    0  0.97378043848E+01 -0.30409348429E+02 -0.29395059158E+02  0.47787276399E+02  0.20000024415E+02 0.  0.
        -12    1    1    2    0    0 -0.97378043848E+01  0.30409348429E+02  0.29395059158E+02  0.43400723601E+02  0.00000000000E+00 0.  1.
         11    1    3    3    0    0  0.11189649628E+01 -0.18189325462E+02 -0.62634527380E+01  0.19270041095E+02  0.51100000000E-03 0.  1.
        -11    1    3    3    0    0  0.18099983768E+01 -0.88830431351E+01 -0.11740764728E+02  0.14833411817E+02  0.51100000000E-03 0. -1.
        -12    1    3    3    0    0  0.68088410452E+01 -0.33369798327E+01 -0.11390841692E+02  0.13683823488E+02  0.00000000000E+00 0.  1.
</event>
<event>
 7    1  0.3742599E-009  0.4778727E+02  0.7816164E-02  0.1312668E+00
        -11   -1    0    0    0    0  0.00000000000E+00  0.00000000000E+00  0.45593999997E+02  0.45594000000E+02  0.51100000000E-03 0. -1.
         11   -1    0    0    0    0 -0.00000000000E+00 -0.00000000000E+00 -0.45593999997E+02  0.45594000000E+02  0.51100000000E-03 0.  1.
    9900012    2    1    2    0    0  0.34894695206E+02  0.23303669804E+02  0.11087048786E+02  0.47787269238E+02  0.19999991765E+02 0.  0.
        -12    1    1    2    0    0 -0.34894695206E+02 -0.23303669804E+02 -0.11087048786E+02  0.43400730762E+02  0.00000000000E+00 0.  1.
         11    1    3    3    0    0  0.27543033318E+02  0.11243669501E+02  0.99160596512E+01  0.31358683446E+02  0.51100000000E-03 0. -1.
        -11    1    3    3    0    0  0.56020413692E+01  0.49017815008E+01  0.41007239437E+01  0.84986037975E+01  0.51100000000E-03 0.  1.
        -12    1    3    3    0    0  0.17496205185E+01  0.71582188024E+01 -0.29297348087E+01  0.79299819943E+01  0.00000000000E+00 0.  1.
</event>
<event>
 7    1  0.3742599E-009  0.4778728E+02  0.7816164E-02  0.1312668E+00
        -11   -1    0    0    0    0  0.00000000000E+00  0.00000000000E+00  0.45593999997E+02  0.45594000000E+02  0.51100000000E-03 0.  1.
         11   -1    0    0    0    0 -0.00000000000E+00 -0.00000000000E+00 -0.45593999997E+02  0.45594000000E+02  0.51100000000E-03 0. -1.
    9900012    2    1    2    0    0 -0.14517760751E+02  0.17270884514E+02 -0.37075245173E+02  0.47787278419E+02  0.20000033624E+02 0.  0.
        -12    1    1    2    0    0  0.14517760751E+02 -0.17270884514E+02  0.37075245173E+02  0.43400721581E+02  0.00000000000E+00 0.  1.
         11    1    3    3    0    0  0.23324683706E+01  0.38912960662E+01 -0.12168039566E+02  0.12986292039E+02  0.51100000000E-03 0. -1.
        -11    1    3    3    0    0 -0.39013088178E+00  0.63198918439E+01 -0.76377259764E+01  0.99210933558E+01  0.51100000000E-03 0.  1.
         12    1    3    3    0    0 -0.16460098240E+02  0.70596966039E+01 -0.17269479630E+02  0.24879893024E+02  0.00000000000E+00 0. -1.
</event>
<event>
 7    1  0.3742599E-009  0.4778728E+02  0.7816164E-02  0.1312668E+00
        -11   -1    0    0    0    0  0.00000000000E+00  0.00000000000E+00  0.45593999997E+02  0.45594000000E+02  0.51100000000E-03 0. -1.
         11   -1    0    0    0    0 -0.00000000000E+00 -0.00000000000E+00 -0.45593999997E+02  0.45594000000E+02  0.51100000000E-03 0.  1.
    9900012    2    1    2    0    0 -0.29071702199E+02 -0.13014204139E+02  0.29480324821E+02  0.47787275010E+02  0.20000018080E+02 0.  0.
        -12    1    1    2    0    0  0.29071702199E+02  0.13014204139E+02 -0.29480324821E+02  0.43400724990E+02  0.00000000000E+00 0.  1.
         11    1    3    3    0    0 -0.19140322170E+02 -0.38521815669E+01  0.16901462613E+02  0.25823452021E+02  0.51100000000E-03 0. -1.
        -11    1    3    3    0    0 -0.99018790637E+01 -0.11329122273E+01  0.66129706790E+01  0.11960856180E+02  0.51100000000E-03 0.  1.
        -12    1    3    3    0    0 -0.29500965632E-01 -0.80291103443E+01  0.59658915296E+01  0.10002966808E+02  0.00000000000E+00 0.  1.
</event>
<event>
 7    1  0.3742599E-009  0.4778727E+02  0.7816164E-02  0.1312668E+00
        -11   -1    0    0    0    0  0.00000000000E+00  0.00000000000E+00  0.45593999997E+02  0.45594000000E+02  0.51100000000E-03 0. -1.
         11   -1    0    0    0    0 -0.00000000000E+00 -0.00000000000E+00 -0.45593999997E+02  0.45594000000E+02  0.51100000000E-03 0.  1.
    9900012    2    1    2    0    0  0.15158253615E+02 -0.31342656065E+02  0.25913089465E+02  0.47787274805E+02  0.20000017145E+02 0.  0.
        -12    1    1    2    0    0 -0.15158253615E+02  0.31342656065E+02 -0.25913089465E+02  0.43400725195E+02  0.00000000000E+00 0.  1.
         11    1    3    3    0    0  0.10801804008E+02 -0.29558213389E+02  0.17417885506E+02  0.35968732037E+02  0.51100000000E-03 0. -1.
        -11    1    3    3    0    0  0.21442076720E+01 -0.20904782937E+01  0.90371744394E+01  0.95204121837E+01  0.51100000000E-03 0.  1.
        -12    1    3    3    0    0  0.22122419351E+01  0.30603561830E+00 -0.54197048083E+00  0.22981305840E+01  0.00000000000E+00 0.  1.
</event>
<event>
 7    1  0.4853975E-009  0.4778728E+02  0.7816164E-02  0.1312668E+00
        -11   -1    0    0    0    0  0.00000000000E+00  0.00000000000E+00  0.45593999997E+02  0.45594000000E+02  0.51100000000E-03 0.  1.
         11   -1    0    0    0    0 -0.00000000000E+00 -0.00000000000E+00 -0.45593999997E+02  0.45594000000E+02  0.51100000000E-03 0. -1.
    9900012    2    1    2    0    0  0.18420849064E+01  0.43354879326E+02 -0.76411097956E+00  0.47787277612E+02  0.20000029946E+02 0.  0.
        -12    1    1    2    0    0 -0.18420849064E+01 -0.43354879326E+02  0.76411097956E+00  0.43400722388E+02  0.00000000000E+00 0.  1.
         11    1    3    3    0    0 -0.47500837515E+01  0.18152089722E+02  0.67173348848E-01  0.18763426378E+02  0.51100000000E-03 0. -1.
        -11    1    3    3    0    0 -0.12599429688E+01 -0.66530248986E+00  0.12701077430E+01  0.19087319423E+01  0.51100000000E-03 0.  1.
         12    1    3    3    0    0  0.78521116268E+01  0.25868092094E+02 -0.21013920714E+01  0.27115119292E+02  0.00000000000E+00 0. -1.
</event>
<event>
 7    1  0.3742599E-009  0.4778727E+02  0.7816164E-02  0.1312668E+00
        -11   -1    0    0    0    0  0.00000000000E+00  0.00000000000E+00  0.45593999997E+02  0.45594000000E+02  0.51100000000E-03 0.  1.
         11   -1    0    0    0    0 -0.00000000000E+00 -0.00000000000E+00 -0.45593999997E+02  0.45594000000E+02  0.51100000000E-03 0. -1.
    9900012    2    1    2    0    0 -0.41706854714E+02  0.46240066118E+01 -0.11080623122E+02  0.47787269868E+02  0.19999994634E+02 0.  0.
        -12    1    1    2    0    0  0.41706854714E+02 -0.46240066118E+01  0.11080623122E+02  0.43400730132E+02  0.00000000000E+00 0.  1.
         11    1    3    3    0    0 -0.69359467747E+01 -0.40139439120E+00 -0.41963068605E+01  0.81164934946E+01  0.51100000000E-03 0. -1.
        -11    1    3    3    0    0 -0.32639613278E+01 -0.48384062702E+01 -0.25626994044E+01  0.63742487623E+01  0.51100000000E-03 0.  1.
         12    1    3    3    0    0 -0.31506946611E+02  0.98638072732E+01 -0.43216168576E+01  0.33296527611E+02  0.00000000000E+00 0. -1.
</event>
<event>
 7    1  0.3742599E-009  0.4778726E+02  0.7816164E-02  0.1312668E+00
        -11   -1    0    0    0    0  0.00000000000E+00  0.00000000000E+00  0.45593999997E+02  0.45594000000E+02  0.51100000000E-03 0.  1.
         11   -1    0    0    0    0 -0.00000000000E+00 -0.00000000000E+00 -0.45593999997E+02  0.45594000000E+02  0.51100000000E-03 0. -1.
    9900012    2    1    2    0    0  0.22529871683E+02  0.10904676802E+02 -0.35455841848E+02  0.47787264806E+02  0.19999971558E+02 0.  0.
        -12    1    1    2    0    0 -0.22529871683E+02 -0.10904676802E+02  0.35455841848E+02  0.43400735194E+02  0.00000000000E+00 0.  1.
         11    1    3    3    0    0  0.47778360695E+01 -0.26831428189E+01 -0.75103564593E+01  0.92969041783E+01  0.51100000000E-03 0. -1.
        -11    1    3    3    0    0 -0.11113807442E+01 -0.15735445980E+01 -0.40269211445E+01  0.44640008878E+01  0.51100000000E-03 0.  1.
         12    1    3    3    0    0  0.18863416358E+02  0.15161364219E+02 -0.23918564244E+02  0.34026359740E+02  0.00000000000E+00 0. -1.
</event>
<event>
 7    1  0.3742599E-009  0.4778725E+02  0.7816164E-02  0.1312668E+00
        -11   -1    0    0    0    0  0.00000000000E+00  0.00000000000E+00  0.45593999997E+02  0.45594000000E+02  0.51100000000E-03 0. -1.
         11   -1    0    0    0    0 -0.00000000000E+00 -0.00000000000E+00 -0.45593999997E+02  0.45594000000E+02  0.51100000000E-03 0.  1.
    9900012    2    1    2    0    0 -0.71841071753E+01  0.39492073898E+02  0.16504227709E+02  0.47787253129E+02  0.19999918318E+02 0.  0.
        -12    1    1    2    0    0  0.71841071753E+01 -0.39492073898E+02 -0.16504227709E+02  0.43400746871E+02  0.00000000000E+00 0.  1.
         11    1    3    3    0    0 -0.32660335955E+01 -0.62171481748E+00 -0.11682362570E+01  0.35239581403E+01  0.51100000000E-03 0.  1.
        -11    1    3    3    0    0 -0.13649497710E+01  0.26480671657E+01  0.73952328210E+00  0.30695671580E+01  0.51100000000E-03 0. -1.
        -12    1    3    3    0    0 -0.25531238088E+01  0.37465721550E+02  0.16932940684E+02  0.41193727831E+02  0.00000000000E+00 0.  1.
</event>
<event>
 7    1  0.3742599E-009  0.4778728E+02  0.7816164E-02  0.1312668E+00
        -11   -1    0    0    0    0  0.00000000000E+00  0.00000000000E+00  0.45593999997E+02  0.45594000000E+02  0.51100000000E-03 0.  1.
         11   -1    0    0    0    0 -0.00000000000E+00 -0.00000000000E+00 -0.45593999997E+02  0.45594000000E+02  0.51100000000E-03 0. -1.
    9900012    2    1    2    0    0  0.28424090207E+02 -0.20988600254E+02 -0.25202628456E+02  0.47787277358E+02  0.20000028787E+02 0.  0.
        -12    1    1    2    0    0 -0.28424090207E+02  0.20988600254E+02  0.25202628456E+02  0.43400722642E+02  0.00000000000E+00 0.  1.
         11    1    3    3    0    0  0.12682599655E+02 -0.60350839335E+01 -0.44791606898E+01  0.14742233645E+02  0.51100000000E-03 0. -1.
        -11    1    3    3    0    0 -0.12967659302E+01  0.48767702687E+00  0.75678041935E+00  0.15786537380E+01  0.51100000000E-03 0.  1.
        -12    1    3    3    0    0  0.17038256482E+02 -0.15441193348E+02 -0.21480248185E+02  0.31466389975E+02  0.00000000000E+00 0.  1.
</event>
<event>
 7    1  0.3742599E-009  0.4778727E+02  0.7816164E-02  0.1312668E+00
        -11   -1    0    0    0    0  0.00000000000E+00  0.00000000000E+00  0.45593999997E+02  0.45594000000E+02  0.51100000000E-03 0.  1.
         11   -1    0    0    0    0 -0.00000000000E+00 -0.00000000000E+00 -0.45593999997E+02  0.45594000000E+02  0.51100000000E-03 0. -1.
    9900012    2    1    2    0    0  0.15704230925E+02 -0.34096555855E+02 -0.21781307268E+02  0.47787270324E+02  0.19999996715E+02 0.  0.
        -12    1    1    2    0    0 -0.15704230925E+02  0.34096555855E+02  0.21781307268E+02  0.43400729676E+02  0.00000000000E+00 0.  1.
         11    1    3    3    0    0  0.84841994116E-01 -0.46381359369E-01 -0.96076439551E+00  0.96561787435E+00  0.51100000000E-03 0. -1.
        -11    1    3    3    0    0  0.63051574709E+00  0.24232006504E+01 -0.11802829469E+01  0.27681256465E+01  0.51100000000E-03 0.  1.
         12    1    3    3    0    0  0.14988873183E+02 -0.36473375146E+02 -0.19640259926E+02  0.44053526803E+02  0.00000000000E+00 0. -1.
</event>
<event>
 7    1  0.3742599E-009  0.4778727E+02  0.7816164E-02  0.1312668E+00
        -11   -1    0    0    0    0  0.00000000000E+00  0.00000000000E+00  0.45593999997E+02  0.45594000000E+02  0.51100000000E-03 0. -1.
         11   -1    0    0    0    0 -0.00000000000E+00 -0.00000000000E+00 -0.45593999997E+02  0.45594000000E+02  0.51100000000E-03 0.  1.
    9900012    2    1    2    0    0 -0.23411297864E+02 -0.36544892944E+02 -0.74291643933E-01  0.47787267434E+02  0.19999983540E+02 0.  0.
        -12    1    1    2    0    0  0.23411297864E+02  0.36544892944E+02  0.74291643933E-01  0.43400732566E+02  0.00000000000E+00 0.  1.
         11    1    3    3    0    0 -0.20503153037E+01 -0.92830034712E+01 -0.65314635552E+01  0.11534208370E+02  0.51100000000E-03 0. -1.
        -11    1    3    3    0    0 -0.63351757829E+01 -0.12624467295E+02 -0.55344246089E+00  0.14135696852E+02  0.51100000000E-03 0.  1.
        -12    1    3    3    0    0 -0.15025806778E+02 -0.14637422178E+02  0.70106143722E+01  0.22117362212E+02  0.00000000000E+00 0.  1.
</event>
<event>
 7    1  0.3742599E-009  0.4778727E+02  0.7816164E-02  0.1312668E+00
        -11   -1    0    0    0    0  0.00000000000E+00  0.00000000000E+00  0.45593999997E+02  0.45594000000E+02  0.51100000000E-03 0.  1.
         11   -1    0    0    0    0 -0.00000000000E+00 -0.00000000000E+00 -0.45593999997E+02  0.45594000000E+02  0.51100000000E-03 0. -1.
    9900012    2    1    2    0    0 -0.29826917758E+02  0.29890603232E+02 -0.10026474181E+02  0.47787269948E+02  0.19999995003E+02 0.  0.
        -12    1    1    2    0    0  0.29826917758E+02 -0.29890603232E+02  0.10026474181E+02  0.43400730052E+02  0.00000000000E+00 0.  1.
         11    1    3    3    0    0 -0.52630620374E+01  0.48933420654E+01  0.13935100827E+01  0.73202793109E+01  0.51100000000E-03 0. -1.
        -11    1    3    3    0    0 -0.13327723168E+02  0.11983250594E+02  0.28187407409E+01  0.18143092330E+02  0.51100000000E-03 0.  1.
         12    1    3    3    0    0 -0.11236132552E+02  0.13014010573E+02 -0.14238725005E+02  0.22323898308E+02  0.00000000000E+00 0. -1.
</event>
<event>
 7    1  0.3742599E-009  0.4778727E+02  0.7816164E-02  0.1312668E+00
        -11   -1    0    0    0    0  0.00000000000E+00  0.00000000000E+00  0.45593999997E+02  0.45594000000E+02  0.51100000000E-03 0.  1.
         11   -1    0    0    0    0 -0.00000000000E+00 -0.00000000000E+00 -0.45593999997E+02  0.45594000000E+02  0.51100000000E-03 0. -1.
    9900012    2    1    2    0    0  0.21704411136E+02 -0.14027023701E+02 -0.34868101949E+02  0.47787269704E+02  0.19999993889E+02 0.  0.
        -12    1    1    2    0    0 -0.21704411136E+02  0.14027023701E+02  0.34868101949E+02  0.43400730296E+02  0.00000000000E+00 0.  1.
         11    1    3    3    0    0  0.36100109971E+01 -0.11734781835E+01 -0.13865537121E+02  0.14375755645E+02  0.51100000000E-03 0. -1.
        -11    1    3    3    0    0 -0.70067200558E+00 -0.59052559788E+01 -0.47799085546E+01  0.76295816062E+01  0.51100000000E-03 0.  1.
         12    1    3    3    0    0  0.18795072144E+02 -0.69482895389E+01 -0.16222656273E+02  0.25781932453E+02  0.00000000000E+00 0. -1.
</event>
<event>
 7    1  0.3742599E-009  0.4778727E+02  0.7816164E-02  0.1312668E+00
        -11   -1    0    0    0    0  0.00000000000E+00  0.00000000000E+00  0.45593999997E+02  0.45594000000E+02  0.51100000000E-03 0.  1.
         11   -1    0    0    0    0 -0.00000000000E+00 -0.00000000000E+00 -0.45593999997E+02  0.45594000000E+02  0.51100000000E-03 0. -1.
    9900012    2    1    2    0    0 -0.37280338432E+02 -0.80858658076E+01  0.20698271841E+02  0.47787270551E+02  0.19999997751E+02 0.  0.
        -12    1    1    2    0    0  0.37280338432E+02  0.80858658076E+01 -0.20698271841E+02  0.43400729449E+02  0.00000000000E+00 0.  1.
         11    1    3    3    0    0 -0.79341673604E+01 -0.83258129388E+01  0.82105482451E+01  0.14130933286E+02  0.51100000000E-03 0.  1.
        -11    1    3    3    0    0 -0.68970356372E+01 -0.27157658121E+01 -0.71261092480E+00  0.74466300511E+01  0.51100000000E-03 0. -1.
        -12    1    3    3    0    0 -0.22449135435E+02  0.29557129433E+01  0.13200334521E+02  0.26209707214E+02  0.00000000000E+00 0.  1.
</event>
<event>
 7    1  0.3742599E-009  0.4778731E+02  0.7816164E-02  0.1312668E+00
        -11   -1    0    0    0    0  0.00000000000E+00  0.00000000000E+00  0.45593999997E+02  0.45594000000E+02  0.51100000000E-03 0.  1.
         11   -1    0    0    0    0 -0.00000000000E+00 -0.00000000000E+00 -0.45593999997E+02  0.45594000000E+02  0.51100000000E-03 0. -1.
    9900012    2    1    2    0    0 -0.72337587337E+01  0.41780580198E+02 -0.92561420578E+01  0.47787305157E+02  0.20000155531E+02 0.  0.
        -12    1    1    2    0    0  0.72337587337E+01 -0.41780580198E+02  0.92561420578E+01  0.43400694843E+02  0.00000000000E+00 0.  1.
         11    1    3    3    0    0  0.20715769016E+01  0.43771553797E+01 -0.11150809865E+01  0.49693385822E+01  0.51100000000E-03 0. -1.
        -11    1    3    3    0    0 -0.59150217944E+00  0.47522071766E+01 -0.76441556907E+01  0.90203361557E+01  0.51100000000E-03 0.  1.
         12    1    3    3    0    0 -0.87138334559E+01  0.32651217642E+02 -0.49690538060E+00  0.33797630419E+02  0.00000000000E+00 0. -1.
</event>
<event>
 7    1  0.3742599E-009  0.4778727E+02  0.7816164E-02  0.1312668E+00
        -11   -1    0    0    0    0  0.00000000000E+00  0.00000000000E+00  0.45593999997E+02  0.45594000000E+02  0.51100000000E-03 0. -1.
         11   -1    0    0    0    0 -0.00000000000E+00 -0.00000000000E+00 -0.45593999997E+02  0.45594000000E+02  0.51100000000E-03 0.  1.
    9900012    2    1    2    0    0 -0.31134772409E+01  0.40565299954E+02  0.15112447801E+02  0.47787269829E+02  0.19999994458E+02 0.  0.
        -12    1    1    2    0    0  0.31134772409E+01 -0.40565299954E+02 -0.15112447801E+02  0.43400730171E+02  0.00000000000E+00 0.  1.
         11    1    3    3    0    0 -0.47748612346E+01  0.68821218915E+01  0.53157557432E+01  0.99206935706E+01  0.51100000000E-03 0. -1.
        -11    1    3    3    0    0 -0.44418091804E+01  0.59584735551E+01 -0.99057935616E+00  0.74976211977E+01  0.51100000000E-03 0.  1.
         12    1    3    3    0    0  0.61031931741E+01  0.27724704507E+02  0.10787271414E+02  0.30368955061E+02  0.00000000000E+00 0. -1.
</event>
<event>
 7    1  0.3742599E-009  0.4778727E+02  0.7816164E-02  0.1312668E+00
        -11   -1    0    0    0    0  0.00000000000E+00  0.00000000000E+00  0.45593999997E+02  0.45594000000E+02  0.51100000000E-03 0.  1.
         11   -1    0    0    0    0 -0.00000000000E+00 -0.00000000000E+00 -0.45593999997E+02  0.45594000000E+02  0.51100000000E-03 0. -1.
    9900012    2    1    2    0    0 -0.70543354646E+01  0.24001398387E+02 -0.35465368880E+02  0.47787272320E+02  0.20000005815E+02 0.  0.
        -12    1    1    2    0    0  0.70543354646E+01 -0.24001398387E+02  0.35465368880E+02  0.43400727680E+02  0.00000000000E+00 0.  1.
         11    1    3    3    0    0 -0.49767251017E+01  0.73233279679E+01 -0.61512700037E+01  0.10781328684E+02  0.51100000000E-03 0. -1.
        -11    1    3    3    0    0  0.56396426994E+01  0.12047581814E+02 -0.20284476032E+02  0.24257159057E+02  0.51100000000E-03 0.  1.
        -12    1    3    3    0    0 -0.77172530624E+01  0.46304886055E+01 -0.90296228435E+01  0.12748784579E+02  0.00000000000E+00 0.  1.
</event>
<event>
 7    1  0.3742599E-009  0.4778728E+02  0.7816164E-02  0.1312668E+00
        -11   -1    0    0    0    0  0.00000000000E+00  0.00000000000E+00  0.45593999997E+02  0.45594000000E+02  0.51100000000E-03 0.  1.
         11   -1    0    0    0    0 -0.00000000000E+00 -0.00000000000E+00 -0.45593999997E+02  0.45594000000E+02  0.51100000000E-03 0. -1.
    9900012    2    1    2    0    0 -0.26045803323E+02  0.32161993129E+02 -0.13070753529E+02  0.47787282603E+02  0.20000052702E+02 0.  0.
        -12    1    1    2    0    0  0.26045803323E+02 -0.32161993129E+02  0.13070753529E+02  0.43400717397E+02  0.00000000000E+00 0.  1.
         11    1    3    3    0    0 -0.12737052191E+02  0.24404499201E+02 -0.12247627297E+02  0.30129992606E+02  0.51100000000E-03 0. -1.
        -11    1    3    3    0    0 -0.41518253365E+01  0.50980834499E+01 -0.38918938652E+01  0.76403499008E+01  0.51100000000E-03 0.  1.
        -12    1    3    3    0    0 -0.91569257949E+01  0.26594104777E+01  0.30687676339E+01  0.10016940096E+02  0.00000000000E+00 0.  1.
</event>
<event>
 7    1  0.3742599E-009  0.4778727E+02  0.7816164E-02  0.1312668E+00
        -11   -1    0    0    0    0  0.00000000000E+00  0.00000000000E+00  0.45593999997E+02  0.45594000000E+02  0.51100000000E-03 0.  1.
         11   -1    0    0    0    0 -0.00000000000E+00 -0.00000000000E+00 -0.45593999997E+02  0.45594000000E+02  0.51100000000E-03 0. -1.
    9900012    2    1    2    0    0  0.28528661996E+02  0.32417309511E+02 -0.43424417394E+01  0.47787270611E+02  0.19999998024E+02 0.  0.
        -12    1    1    2    0    0 -0.28528661996E+02 -0.32417309511E+02  0.43424417394E+01  0.43400729389E+02  0.00000000000E+00 0.  1.
         11    1    3    3    0    0  0.10791858157E+02  0.11177190945E+02 -0.22767463170E+01  0.15702782363E+02  0.51100000000E-03 0. -1.
        -11    1    3    3    0    0  0.19240242990E+02  0.21956113842E+02  0.29575077920E+00  0.29194954259E+02  0.51100000000E-03 0.  1.
        -12    1    3    3    0    0 -0.15034391505E+01 -0.71599527588E+00 -0.23614462016E+01  0.28895339896E+01  0.00000000000E+00 0.  1.
</event>
<event>
 7    1  0.3742599E-009  0.4778731E+02  0.7816164E-02  0.1312668E+00
        -11   -1    0    0    0    0  0.00000000000E+00  0.00000000000E+00  0.45593999997E+02  0.45594000000E+02  0.51100000000E-03 0. -1.
         11   -1    0    0    0    0 -0.00000000000E+00 -0.00000000000E+00 -0.45593999997E+02  0.45594000000E+02  0.51100000000E-03 0.  1.
    9900012    2    1    2    0    0  0.29879408950E+02  0.11863517101E+02  0.29156440808E+02  0.47787306944E+02  0.20000163679E+02 0.  0.
        -12    1    1    2    0    0 -0.29879408950E+02 -0.11863517101E+02 -0.29156440808E+02  0.43400693056E+02  0.00000000000E+00 0.  1.
         11    1    3    3    0    0  0.21539595937E+02  0.46699353962E+01  0.13794893951E+02  0.26001184379E+02  0.51100000000E-03 0. -1.
        -11    1    3    3    0    0  0.48591054860E+01 -0.22357163925E+01  0.61723125541E+01  0.81674216518E+01  0.51100000000E-03 0.  1.
        -12    1    3    3    0    0  0.34807075270E+01  0.94292980969E+01  0.91892343023E+01  0.13618700913E+02  0.00000000000E+00 0.  1.
</event>
<event>
 7    1  0.3742599E-009  0.4778726E+02  0.7816164E-02  0.1312668E+00
        -11   -1    0    0    0    0  0.00000000000E+00  0.00000000000E+00  0.45593999997E+02  0.45594000000E+02  0.51100000000E-03 0.  1.
         11   -1    0    0    0    0 -0.00000000000E+00 -0.00000000000E+00 -0.45593999997E+02  0.45594000000E+02  0.51100000000E-03 0. -1.
    9900012    2    1    2    0    0 -0.36406578964E+01 -0.36655715534E+02 -0.22950559626E+02  0.47787262006E+02  0.19999958790E+02 0.  0.
        -12    1    1    2    0    0  0.36406578964E+01  0.36655715534E+02  0.22950559626E+02  0.43400737994E+02  0.00000000000E+00 0.  1.
         11    1    3    3    0    0 -0.22717002391E+01  0.14553731011E+00 -0.36264608234E+00  0.23050630202E+01  0.51100000000E-03 0.  1.
        -11    1    3    3    0    0 -0.48958622357E+01 -0.34012679931E+02 -0.17085290066E+02  0.38376281737E+02  0.51100000000E-03 0. -1.
         12    1    3    3    0    0  0.35269045785E+01 -0.27885729141E+01 -0.55026234778E+01  0.71059172484E+01  0.00000000000E+00 0. -1.
</event>
<event>
 7    1  0.3742599E-009  0.4778727E+02  0.7816164E-02  0.1312668E+00
        -11   -1    0    0    0    0  0.00000000000E+00  0.00000000000E+00  0.45593999997E+02  0.45594000000E+02  0.51100000000E-03 0.  1.
         11   -1    0    0    0    0 -0.00000000000E+00 -0.00000000000E+00 -0.45593999997E+02  0.45594000000E+02  0.51100000000E-03 0. -1.
    9900012    2    1    2    0    0 -0.50464502725E+01 -0.31901227373E+02 -0.28990834781E+02  0.47787268790E+02  0.19999989721E+02 0.  0.
        -12    1    1    2    0    0  0.50464502725E+01  0.31901227373E+02  0.28990834781E+02  0.43400731210E+02  0.00000000000E+00 0.  1.
         11    1    3    3    0    0 -0.25075875507E+01 -0.62792088446E+01 -0.97574311736E+01  0.11871138210E+02  0.51100000000E-03 0. -1.
        -11    1    3    3    0    0 -0.10009001948E+00 -0.20637773526E+01  0.28591283208E+01  0.35275784880E+01  0.51100000000E-03 0.  1.
        -12    1    3    3    0    0 -0.24387727024E+01 -0.23558241176E+02 -0.22092531928E+02  0.32388552092E+02  0.00000000000E+00 0.  1.
</event>
<event>
 7    1  0.3742599E-009  0.4778729E+02  0.7816164E-02  0.1312668E+00
        -11   -1    0    0    0    0  0.00000000000E+00  0.00000000000E+00  0.45593999997E+02  0.45594000000E+02  0.51100000000E-03 0. -1.
         11   -1    0    0    0    0 -0.00000000000E+00 -0.00000000000E+00 -0.45593999997E+02  0.45594000000E+02  0.51100000000E-03 0.  1.
    9900012    2    1    2    0    0 -0.15700041960E+02  0.90051819289E+01  0.39446633365E+02  0.47787291447E+02  0.20000093022E+02 0.  0.
        -12    1    1    2    0    0  0.15700041960E+02 -0.90051819289E+01 -0.39446633365E+02  0.43400708553E+02  0.00000000000E+00 0.  1.
         11    1    3    3    0    0 -0.82563693094E+01 -0.52917166246E+01  0.17988552992E+02  0.20487994973E+02  0.51100000000E-03 0. -1.
        -11    1    3    3    0    0  0.54450606689E+00  0.29467942903E+01  0.37787180699E+01  0.48227371853E+01  0.51100000000E-03 0.  1.
         12    1    3    3    0    0 -0.79881787172E+01  0.11350104263E+02  0.17679362303E+02  0.22476559288E+02  0.00000000000E+00 0. -1.
</event>
<event>
 7    1  0.3742599E-009  0.4778727E+02  0.7816164E-02  0.1312668E+00
        -11   -1    0    0    0    0  0.00000000000E+00  0.00000000000E+00  0.45593999997E+02  0.45594000000E+02  0.51100000000E-03 0.  1.
         11   -1    0    0    0    0 -0.00000000000E+00 -0.00000000000E+00 -0.45593999997E+02  0.45594000000E+02  0.51100000000E-03 0. -1.
    9900012    2    1    2    0    0  0.22451169570E+02  0.36102042918E+02 -0.87298722684E+01  0.47787272037E+02  0.20000004526E+02 0.  0.
        -12    1    1    2    0    0 -0.22451169570E+02 -0.36102042918E+02  0.87298722684E+01  0.43400727963E+02  0.00000000000E+00 0.  1.
         11    1    3    3    0    0  0.43006229646E+01  0.50348862717E+01 -0.43742684323E+01  0.79359726708E+01  0.51100000000E-03 0. -1.
        -11    1    3    3    0    0  0.18827444141E+02  0.18205935063E+02  0.19795147925E+00  0.26190989089E+02  0.51100000000E-03 0.  1.
         12    1    3    3    0    0 -0.67689753508E+00  0.12861221583E+02 -0.45535553153E+01  0.13660310278E+02  0.00000000000E+00 0. -1.
</event>
<event>
 7    1  0.3742599E-009  0.4778726E+02  0.7816164E-02  0.1312668E+00
        -11   -1    0    0    0    0  0.00000000000E+00  0.00000000000E+00  0.45593999997E+02  0.45594000000E+02  0.51100000000E-03 0. -1.
         11   -1    0    0    0    0 -0.00000000000E+00 -0.00000000000E+00 -0.45593999997E+02  0.45594000000E+02  0.51100000000E-03 0.  1.
    9900012    2    1    2    0    0 -0.25878991846E+02 -0.33683613674E+02 -0.89059436739E+01  0.47787264041E+02  0.19999968069E+02 0.  0.
        -12    1    1    2    0    0  0.25878991846E+02  0.33683613674E+02  0.89059436739E+01  0.43400735959E+02  0.00000000000E+00 0.  1.
         11    1    3    3    0    0 -0.21348813534E+01 -0.75139619696E+01 -0.34109465633E+00  0.78188035337E+01  0.51100000000E-03 0. -1.
        -11    1    3    3    0    0 -0.30615862832E+01 -0.14185989736E+02  0.18532431779E+00  0.14513785196E+02  0.51100000000E-03 0.  1.
         12    1    3    3    0    0 -0.20682524209E+02 -0.11983661968E+02 -0.87501733353E+01  0.25454675312E+02  0.00000000000E+00 0. -1.
</event>
<event>
 7    1  0.3742599E-009  0.4778727E+02  0.7816164E-02  0.1312668E+00
        -11   -1    0    0    0    0  0.00000000000E+00  0.00000000000E+00  0.45593999997E+02  0.45594000000E+02  0.51100000000E-03 0.  1.
         11   -1    0    0    0    0 -0.00000000000E+00 -0.00000000000E+00 -0.45593999997E+02  0.45594000000E+02  0.51100000000E-03 0. -1.
    9900012    2    1    2    0    0 -0.11265211487E+02 -0.29678523058E+02 -0.29595665772E+02  0.47787272434E+02  0.20000006335E+02 0.  0.
        -12    1    1    2    0    0  0.11265211487E+02  0.29678523058E+02  0.29595665772E+02  0.43400727566E+02  0.00000000000E+00 0.  1.
         11    1    3    3    0    0 -0.92836116316E+01 -0.15367894961E+02 -0.25977653261E+02  0.31578412083E+02  0.51100000000E-03 0. -1.
        -11    1    3    3    0    0 -0.36943265967E+00 -0.68178152081E+00 -0.22937143985E+01  0.24212460707E+01  0.51100000000E-03 0.  1.
        -12    1    3    3    0    0 -0.16121671962E+01 -0.13628846576E+02 -0.13242981132E+01  0.13787614280E+02  0.00000000000E+00 0.  1.
</event>
<event>
 7    1  0.3742599E-009  0.4778727E+02  0.7816164E-02  0.1312668E+00
        -11   -1    0    0    0    0  0.00000000000E+00  0.00000000000E+00  0.45593999997E+02  0.45594000000E+02  0.51100000000E-03 0.  1.
         11   -1    0    0    0    0 -0.00000000000E+00 -0.00000000000E+00 -0.45593999997E+02  0.45594000000E+02  0.51100000000E-03 0. -1.
    9900012    2    1    2    0    0  0.27480772418E+02  0.33488107276E+02  0.26414899932E+01  0.47787266700E+02  0.19999980190E+02 0.  0.
        -12    1    1    2    0    0 -0.27480772418E+02 -0.33488107276E+02 -0.26414899932E+01  0.43400733300E+02  0.00000000000E+00 0.  1.
         11    1    3    3    0    0  0.18904254139E+02  0.29191865534E+02 -0.50884667610E+01  0.35148660460E+02  0.51100000000E-03 0. -1.
        -11    1    3    3    0    0  0.29594277981E+00  0.10694928103E+01  0.77313722654E+00  0.13524564438E+01  0.51100000000E-03 0.  1.
         12    1    3    3    0    0  0.82805754993E+01  0.32267489315E+01  0.69568195277E+01  0.11286149796E+02  0.00000000000E+00 0. -1.
</event>
<event>
 7    1  0.3742599E-009  0.4778727E+02  0.7816164E-02  0.1312668E+00
        -11   -1    0    0    0    0  0.00000000000E+00  0.00000000000E+00  0.45593999997E+02  0.45594000000E+02  0.51100000000E-03 0. -1.
         11   -1    0    0    0    0 -0.00000000000E+00 -0.00000000000E+00 -0.45593999997E+02  0.45594000000E+02  0.51100000000E-03 0.  1.
    9900012    2    1    2    0    0  0.20734944808E+02  0.13549912462E+02  0.35638255928E+02  0.47787270173E+02  0.19999996028E+02 0.  0.
        -12    1    1    2    0    0 -0.20734944808E+02 -0.13549912462E+02 -0.35638255928E+02  0.43400729827E+02  0.00000000000E+00 0.  1.
         11    1    3    3    0    0  0.48761558843E+01  0.67242442617E+01  0.61917741824E+01  0.10360039811E+02  0.51100000000E-03 0.  1.
        -11    1    3    3    0    0  0.18814532426E+02  0.45183058531E+01  0.24448225143E+02  0.31178797782E+02  0.51100000000E-03 0. -1.
         12    1    3    3    0    0 -0.29557435025E+01  0.23073623477E+01  0.49982566019E+01  0.62484325806E+01  0.00000000000E+00 0. -1.
</event>
<event>
 7    1  0.3742599E-009  0.4778728E+02  0.7816164E-02  0.1312668E+00
        -11   -1    0    0    0    0  0.00000000000E+00  0.00000000000E+00  0.45593999997E+02  0.45594000000E+02  0.51100000000E-03 0. -1.
         11   -1    0    0    0    0 -0.00000000000E+00 -0.00000000000E+00 -0.45593999997E+02  0.45594000000E+02  0.51100000000E-03 0.  1.
    9900012    2    1    2    0    0  0.93004530251E+01  0.23632689381E+02  0.35194040213E+02  0.47787275348E+02  0.20000019620E+02 0.  0.
        -12    1    1    2    0    0 -0.93004530251E+01 -0.23632689381E+02 -0.35194040213E+02  0.43400724652E+02  0.00000000000E+00 0.  1.
         11    1    3    3    0    0  0.23512260745E+01  0.13508855855E+02  0.12161355736E+02  0.18328012008E+02  0.51100000000E-03 0. -1.
        -11    1    3    3    0    0  0.84973073906E+01  0.74341703487E+01  0.73488123812E+01  0.13471308969E+02  0.51100000000E-03 0.  1.
        -12    1    3    3    0    0 -0.15480804399E+01  0.26896631774E+01  0.15683872096E+02  0.15987954371E+02  0.00000000000E+00 0.  1.
</event>
<event>
 7    1  0.3742599E-009  0.4778727E+02  0.7816164E-02  0.1312668E+00
        -11   -1    0    0    0    0  0.00000000000E+00  0.00000000000E+00  0.45593999997E+02  0.45594000000E+02  0.51100000000E-03 0. -1.
         11   -1    0    0    0    0 -0.00000000000E+00 -0.00000000000E+00 -0.45593999997E+02  0.45594000000E+02  0.51100000000E-03 0.  1.
    9900012    2    1    2    0    0 -0.68781176455E+00 -0.42680455713E+02  0.78440420490E+01  0.47787269815E+02  0.19999994396E+02 0.  0.
        -12    1    1    2    0    0  0.68781176455E+00  0.42680455713E+02 -0.78440420490E+01  0.43400730185E+02  0.00000000000E+00 0.  1.
         11    1    3    3    0    0 -0.39074156139E+01 -0.20105214012E+02  0.55233807189E+01  0.21213091762E+02  0.51100000000E-03 0. -1.
        -11    1    3    3    0    0 -0.42222829240E+01 -0.10180119005E+02 -0.25611170535E+01  0.11314672636E+02  0.51100000000E-03 0.  1.
         12    1    3    3    0    0  0.74418867734E+01 -0.12395122696E+02  0.48817783836E+01  0.15259505417E+02  0.00000000000E+00 0. -1.
</event>
<event>
 7    1  0.3742599E-009  0.4778727E+02  0.7816164E-02  0.1312668E+00
        -11   -1    0    0    0    0  0.00000000000E+00  0.00000000000E+00  0.45593999997E+02  0.45594000000E+02  0.51100000000E-03 0.  1.
         11   -1    0    0    0    0 -0.00000000000E+00 -0.00000000000E+00 -0.45593999997E+02  0.45594000000E+02  0.51100000000E-03 0. -1.
    9900012    2    1    2    0    0  0.10011794966E+02 -0.29704428963E+02  0.30017228853E+02  0.47787272282E+02  0.20000005642E+02 0.  0.
        -12    1    1    2    0    0 -0.10011794966E+02  0.29704428963E+02 -0.30017228853E+02  0.43400727718E+02  0.00000000000E+00 0.  1.
         11    1    3    3    0    0  0.76565762677E+01 -0.11515507057E+02  0.15378212835E+02  0.20681380350E+02  0.51100000000E-03 0. -1.
        -11    1    3    3    0    0  0.37220152971E+01 -0.16877957004E+02  0.16888819691E+02  0.24165079377E+02  0.51100000000E-03 0.  1.
        -12    1    3    3    0    0 -0.13667965986E+01 -0.13109649021E+01 -0.22498036729E+01  0.29408125549E+01  0.00000000000E+00 0.  1.
</event>
<event>
 7    1  0.3742599E-009  0.4778727E+02  0.7816164E-02  0.1312668E+00
        -11   -1    0    0    0    0  0.00000000000E+00  0.00000000000E+00  0.45593999997E+02  0.45594000000E+02  0.51100000000E-03 0.  1.
         11   -1    0    0    0    0 -0.00000000000E+00 -0.00000000000E+00 -0.45593999997E+02  0.45594000000E+02  0.51100000000E-03 0. -1.
    9900012    2    1    2    0    0  0.74831561543E+01 -0.22580986639E+02 -0.36300484649E+02  0.47787265336E+02  0.19999973972E+02 0.  0.
        -12    1    1    2    0    0 -0.74831561543E+01  0.22580986639E+02  0.36300484649E+02  0.43400734664E+02  0.00000000000E+00 0.  1.
         11    1    3    3    0    0 -0.20156629835E+01 -0.49771890237E+01 -0.12006002873E+01  0.55024312037E+01  0.51100000000E-03 0. -1.
        -11    1    3    3    0    0  0.24304613834E+01  0.16365691463E+01 -0.29602650070E+01  0.41651734993E+01  0.51100000000E-03 0.  1.
         12    1    3    3    0    0  0.70683577544E+01 -0.19240366762E+02 -0.32139619355E+02  0.38119660633E+02  0.00000000000E+00 0. -1.
</event>
<event>
 7    1  0.3742599E-009  0.4778727E+02  0.7816164E-02  0.1312668E+00
        -11   -1    0    0    0    0  0.00000000000E+00  0.00000000000E+00  0.45593999997E+02  0.45594000000E+02  0.51100000000E-03 0.  1.
         11   -1    0    0    0    0 -0.00000000000E+00 -0.00000000000E+00 -0.45593999997E+02  0.45594000000E+02  0.51100000000E-03 0. -1.
    9900012    2    1    2    0    0 -0.24230396148E+02 -0.35966031648E+02 -0.17191502939E+01  0.47787274110E+02  0.20000013978E+02 0.  0.
        -12    1    1    2    0    0  0.24230396148E+02  0.35966031648E+02  0.17191502939E+01  0.43400725890E+02  0.00000000000E+00 0.  1.
         11    1    3    3    0    0 -0.17478940167E+02 -0.15221902987E+02 -0.14263395197E+01  0.23221845848E+02  0.51100000000E-03 0. -1.
        -11    1    3    3    0    0 -0.42974136160E+01 -0.76761742288E+01  0.51549280549E+01  0.10196308062E+02  0.51100000000E-03 0.  1.
        -12    1    3    3    0    0 -0.24540423656E+01 -0.13067954433E+02 -0.54477388291E+01  0.14369120201E+02  0.00000000000E+00 0.  1.
</event>
<event>
 7    1  0.3742599E-009  0.4778728E+02  0.7816164E-02  0.1312668E+00
        -11   -1    0    0    0    0  0.00000000000E+00  0.00000000000E+00  0.45593999997E+02  0.45594000000E+02  0.51100000000E-03 0.  1.
         11   -1    0    0    0    0 -0.00000000000E+00 -0.00000000000E+00 -0.45593999997E+02  0.45594000000E+02  0.51100000000E-03 0. -1.
    9900012    2    1    2    0    0  0.34536975269E+02 -0.19835028976E+02 -0.17245046132E+02  0.47787278217E+02  0.20000032701E+02 0.  0.
        -12    1    1    2    0    0 -0.34536975269E+02  0.19835028976E+02  0.17245046132E+02  0.43400721783E+02  0.00000000000E+00 0.  1.
         11    1    3    3    0    0  0.12569541968E+01 -0.46275967941E+01 -0.60210335573E+01  0.76972353024E+01  0.51100000000E-03 0. -1.
        -11    1    3    3    0    0  0.10334733526E+02 -0.16954134498E+00 -0.66147565088E+01  0.12271530681E+02  0.51100000000E-03 0.  1.
        -12    1    3    3    0    0  0.22945287546E+02 -0.15037890837E+02 -0.46092560664E+01  0.27818512233E+02  0.00000000000E+00 0.  1.
</event>
<event>
 7    1  0.3742599E-009  0.4778727E+02  0.7816164E-02  0.1312668E+00
        -11   -1    0    0    0    0  0.00000000000E+00  0.00000000000E+00  0.45593999997E+02  0.45594000000E+02  0.51100000000E-03 0. -1.
         11   -1    0    0    0    0 -0.00000000000E+00 -0.00000000000E+00 -0.45593999997E+02  0.45594000000E+02  0.51100000000E-03 0.  1.
    9900012    2    1    2    0    0 -0.40612532653E+02  0.54296196347E+01  0.14309601666E+02  0.47787271000E+02  0.19999999799E+02 0.  0.
        -12    1    1    2    0    0  0.40612532653E+02 -0.54296196347E+01 -0.14309601666E+02  0.43400729000E+02  0.00000000000E+00 0.  1.
         11    1    3    3    0    0  0.89195803466E-01  0.41635818458E+00 -0.75214773032E+00  0.86431273193E+00  0.51100000000E-03 0. -1.
        -11    1    3    3    0    0 -0.23648671110E+02  0.92400768167E+01  0.28991483782E+01  0.25554720238E+02  0.51100000000E-03 0.  1.
         12    1    3    3    0    0 -0.17053057346E+02 -0.42268153665E+01  0.12162601019E+02  0.21368238030E+02  0.00000000000E+00 0. -1.
</event>
<event>
 7    1  0.3742599E-009  0.4778727E+02  0.7816164E-02  0.1312668E+00
        -11   -1    0    0    0    0  0.00000000000E+00  0.00000000000E+00  0.45593999997E+02  0.45594000000E+02  0.51100000000E-03 0. -1.
         11   -1    0    0    0    0 -0.00000000000E+00 -0.00000000000E+00 -0.45593999997E+02  0.45594000000E+02  0.51100000000E-03 0.  1.
    9900012    2    1    2    0    0  0.10884825426E+02 -0.37920367579E+02  0.18088381134E+02  0.47787271505E+02  0.20000002100E+02 0.  0.
        -12    1    1    2    0    0 -0.10884825426E+02  0.37920367579E+02 -0.18088381134E+02  0.43400728495E+02  0.00000000000E+00 0.  1.
         11    1    3    3    0    0  0.30767344815E+01 -0.89038683674E+01  0.27697557222E+01  0.98192012911E+01  0.51100000000E-03 0. -1.
        -11    1    3    3    0    0 -0.45680374576E+01 -0.15588262850E+02  0.94193638657E+01  0.18777255412E+02  0.51100000000E-03 0.  1.
        -12    1    3    3    0    0  0.12376128402E+02 -0.13428236361E+02  0.58992615460E+01  0.19190814802E+02  0.00000000000E+00 0.  1.
</event>
<event>
 7    1  0.3742599E-009  0.4778727E+02  0.7816164E-02  0.1312668E+00
        -11   -1    0    0    0    0  0.00000000000E+00  0.00000000000E+00  0.45593999997E+02  0.45594000000E+02  0.51100000000E-03 0. -1.
         11   -1    0    0    0    0 -0.00000000000E+00 -0.00000000000E+00 -0.45593999997E+02  0.45594000000E+02  0.51100000000E-03 0.  1.
    9900012    2    1    2    0    0  0.26012085181E+02  0.34740579852E+02  0.29442457514E+00  0.47787272474E+02  0.20000006520E+02 0.  0.
        -12    1    1    2    0    0 -0.26012085181E+02 -0.34740579852E+02 -0.29442457514E+00  0.43400727526E+02  0.00000000000E+00 0.  1.
         11    1    3    3    0    0  0.90532228103E+00  0.68763479363E+01 -0.22346512991E+01  0.72867987528E+01  0.51100000000E-03 0. -1.
        -11    1    3    3    0    0  0.50863637135E+01  0.16177054076E+02 -0.12863760048E+01  0.17006555732E+02  0.51100000000E-03 0.  1.
         12    1    3    3    0    0  0.20020399186E+02  0.11687177840E+02  0.38154518791E+01  0.23493917989E+02  0.00000000000E+00 0. -1.
</event>
<event>
 7    1  0.3742599E-009  0.4778727E+02  0.7816164E-02  0.1312668E+00
        -11   -1    0    0    0    0  0.00000000000E+00  0.00000000000E+00  0.45593999997E+02  0.45594000000E+02  0.51100000000E-03 0. -1.
         11   -1    0    0    0    0 -0.00000000000E+00 -0.00000000000E+00 -0.45593999997E+02  0.45594000000E+02  0.51100000000E-03 0.  1.
    9900012    2    1    2    0    0 -0.26737752421E+02 -0.20661085847E+02  0.27236657021E+02  0.47787270068E+02  0.19999995549E+02 0.  0.
        -12    1    1    2    0    0  0.26737752421E+02  0.20661085847E+02 -0.27236657021E+02  0.43400729932E+02  0.00000000000E+00 0.  1.
         11    1    3    3    0    0 -0.12365691847E+02 -0.45717536285E+01  0.16100940511E+02  0.20809890718E+02  0.51100000000E-03 0. -1.
        -11    1    3    3    0    0 -0.23445889078E+01 -0.10280550957E+02  0.80572157259E+01  0.13270476654E+02  0.51100000000E-03 0.  1.
         12    1    3    3    0    0 -0.12027471667E+02 -0.58087812620E+01  0.30785007841E+01  0.13706902696E+02  0.00000000000E+00 0. -1.
</event>
<event>
 7    1  0.3742599E-009  0.4778727E+02  0.7816164E-02  0.1312668E+00
        -11   -1    0    0    0    0  0.00000000000E+00  0.00000000000E+00  0.45593999997E+02  0.45594000000E+02  0.51100000000E-03 0.  1.
         11   -1    0    0    0    0 -0.00000000000E+00 -0.00000000000E+00 -0.45593999997E+02  0.45594000000E+02  0.51100000000E-03 0. -1.
    9900012    2    1    2    0    0 -0.24072817540E+02 -0.35052295012E+02 -0.86867635307E+01  0.47787265092E+02  0.19999972860E+02 0.  0.
        -12    1    1    2    0    0  0.24072817540E+02  0.35052295012E+02  0.86867635307E+01  0.43400734908E+02  0.00000000000E+00 0.  1.
         11    1    3    3    0    0 -0.15937801890E+02 -0.20722802645E+02 -0.65937111642E+01  0.26961548652E+02  0.51100000000E-03 0. -1.
        -11    1    3    3    0    0 -0.81307521501E+01 -0.16405520897E+02 -0.30110562844E+01  0.18555772866E+02  0.51100000000E-03 0.  1.
        -12    1    3    3    0    0 -0.42634991381E-02  0.20760285299E+01  0.91800391799E+00  0.22699435738E+01  0.00000000000E+00 0.  1.
</event>
<event>
 7    1  0.3742599E-009  0.4778728E+02  0.7816164E-02  0.1312668E+00
        -11   -1    0    0    0    0  0.00000000000E+00  0.00000000000E+00  0.45593999997E+02  0.45594000000E+02  0.51100000000E-03 0. -1.
         11   -1    0    0    0    0 -0.00000000000E+00 -0.00000000000E+00 -0.45593999997E+02  0.45594000000E+02  0.51100000000E-03 0.  1.
    9900012    2    1    2    0    0  0.38010160479E+02  0.19430830547E+02 -0.78289888054E+01  0.47787279487E+02  0.20000038491E+02 0.  0.
        -12    1    1    2    0    0 -0.38010160479E+02 -0.19430830547E+02  0.78289888054E+01  0.43400720513E+02  0.00000000000E+00 0.  1.
         11    1    3    3    0    0  0.90026060402E+01  0.98402414915E+01 -0.94041407677E+00  0.13370177524E+02  0.51100000000E-03 0. -1.
        -11    1    3    3    0    0  0.17561387155E+01  0.59065428824E+01 -0.47882919538E+00  0.61806593232E+01  0.51100000000E-03 0.  1.
         12    1    3    3    0    0  0.27251415723E+02  0.36840461730E+01 -0.64097455333E+01  0.28236442639E+02  0.00000000000E+00 0. -1.
</event>
<event>
 7    1  0.3742599E-009  0.4778727E+02  0.7816164E-02  0.1312668E+00
        -11   -1    0    0    0    0  0.00000000000E+00  0.00000000000E+00  0.45593999997E+02  0.45594000000E+02  0.51100000000E-03 0. -1.
         11   -1    0    0    0    0 -0.00000000000E+00 -0.00000000000E+00 -0.45593999997E+02  0.45594000000E+02  0.51100000000E-03 0.  1.
    9900012    2    1    2    0    0 -0.42843859618E+02 -0.22413737484E+01 -0.65577021392E+01  0.47787268202E+02  0.19999987042E+02 0.  0.
        -12    1    1    2    0    0  0.42843859618E+02  0.22413737484E+01  0.65577021392E+01  0.43400731798E+02  0.00000000000E+00 0.  1.
         11    1    3    3    0    0 -0.22049329529E+02  0.10451048482E+01 -0.40492752456E+01  0.22442410902E+02  0.51100000000E-03 0. -1.
        -11    1    3    3    0    0 -0.13680718811E+02  0.19771146593E+01  0.39652690645E+01  0.14380347999E+02  0.51100000000E-03 0.  1.
         12    1    3    3    0    0 -0.71138112773E+01 -0.52635932558E+01 -0.64736959581E+01  0.10964509301E+02  0.00000000000E+00 0. -1.
</event>
<event>
 7    1  0.3742599E-009  0.4778727E+02  0.7816164E-02  0.1312668E+00
        -11   -1    0    0    0    0  0.00000000000E+00  0.00000000000E+00  0.45593999997E+02  0.45594000000E+02  0.51100000000E-03 0.  1.
         11   -1    0    0    0    0 -0.00000000000E+00 -0.00000000000E+00 -0.45593999997E+02  0.45594000000E+02  0.51100000000E-03 0. -1.
    9900012    2    1    2    0    0  0.22288043051E+02 -0.34871796918E+02  0.13069972327E+02  0.47787271205E+02  0.20000000731E+02 0.  0.
        -12    1    1    2    0    0 -0.22288043051E+02  0.34871796918E+02 -0.13069972327E+02  0.43400728795E+02  0.00000000000E+00 0.  1.
         11    1    3    3    0    0  0.68796578464E+01 -0.14580176771E+02  0.12707413835E+01  0.16171766467E+02  0.51100000000E-03 0. -1.
        -11    1    3    3    0    0  0.60522176194E+01 -0.18430130860E+02  0.54264223252E+01  0.20143115974E+02  0.51100000000E-03 0.  1.
        -12    1    3    3    0    0  0.93561675855E+01 -0.18614892871E+01  0.63728086185E+01  0.11472388764E+02  0.00000000000E+00 0.  1.
</event>
<event>
 7    1  0.3742599E-009  0.4778727E+02  0.7816164E-02  0.1312668E+00
        -11   -1    0    0    0    0  0.00000000000E+00  0.00000000000E+00  0.45593999997E+02  0.45594000000E+02  0.51100000000E-03 0. -1.
         11   -1    0    0    0    0 -0.00000000000E+00 -0.00000000000E+00 -0.45593999997E+02  0.45594000000E+02  0.51100000000E-03 0.  1.
    9900012    2    1    2    0    0  0.42303150866E+02  0.45057648234E+01 -0.85886472101E+01  0.47787270159E+02  0.19999995961E+02 0.  0.
        -12    1    1    2    0    0 -0.42303150866E+02 -0.45057648234E+01  0.85886472101E+01  0.43400729841E+02  0.00000000000E+00 0.  1.
         11    1    3    3    0    0  0.76178854715E+01  0.44033362480E+01  0.81088940142E+00  0.88362373809E+01  0.51100000000E-03 0. -1.
        -11    1    3    3    0    0  0.70737390129E+01  0.40179402726E+01  0.26719130585E+01  0.85627534888E+01  0.51100000000E-03 0.  1.
         12    1    3    3    0    0  0.27611526382E+02 -0.39155116972E+01 -0.12071449670E+02  0.30388279289E+02  0.00000000000E+00 0. -1.
</event>
<event>
 7    1  0.3742599E-009  0.4778727E+02  0.7816164E-02  0.1312668E+00
        -11   -1    0    0    0    0  0.00000000000E+00  0.00000000000E+00  0.45593999997E+02  0.45594000000E+02  0.51100000000E-03 0.  1.
         11   -1    0    0    0    0 -0.00000000000E+00 -0.00000000000E+00 -0.45593999997E+02  0.45594000000E+02  0.51100000000E-03 0. -1.
    9900012    2    1    2    0    0 -0.15254087612E+02 -0.34357984965E+02 -0.21690204738E+02  0.47787270728E+02  0.19999998558E+02 0.  0.
        -12    1    1    2    0    0  0.15254087612E+02  0.34357984965E+02  0.21690204738E+02  0.43400729272E+02  0.00000000000E+00 0.  1.
         11    1    3    3    0    0 -0.35101518180E+01 -0.82640400501E+01 -0.17469908681E+01  0.91469941013E+01  0.51100000000E-03 0. -1.
        -11    1    3    3    0    0 -0.52050067365E+00  0.24066984439E+01 -0.13565098614E+01  0.28112697516E+01  0.51100000000E-03 0.  1.
         12    1    3    3    0    0 -0.11223435120E+02 -0.28500643359E+02 -0.18586704008E+02  0.35829006875E+02  0.00000000000E+00 0. -1.
</event>
<event>
 7    1  0.3742599E-009  0.4778727E+02  0.7816164E-02  0.1312668E+00
        -11   -1    0    0    0    0  0.00000000000E+00  0.00000000000E+00  0.45593999997E+02  0.45594000000E+02  0.51100000000E-03 0.  1.
         11   -1    0    0    0    0 -0.00000000000E+00 -0.00000000000E+00 -0.45593999997E+02  0.45594000000E+02  0.51100000000E-03 0. -1.
    9900012    2    1    2    0    0 -0.33228551655E+02 -0.50478444861E+01 -0.27459173747E+02  0.47787267265E+02  0.19999982769E+02 0.  0.
        -12    1    1    2    0    0  0.33228551655E+02  0.50478444861E+01  0.27459173747E+02  0.43400732735E+02  0.00000000000E+00 0.  1.
         11    1    3    3    0    0 -0.17226814832E+02  0.43414143344E+01 -0.91839124949E+01  0.19998881885E+02  0.51100000000E-03 0. -1.
        -11    1    3    3    0    0 -0.99929070913E+01 -0.51552686235E+00 -0.68663610298E+01  0.12135521173E+02  0.51100000000E-03 0.  1.
        -12    1    3    3    0    0 -0.60088297313E+01 -0.88737319582E+01 -0.11408900223E+02  0.15652864207E+02  0.00000000000E+00 0.  1.
</event>
<event>
 7    1  0.3742599E-009  0.4778727E+02  0.7816164E-02  0.1312668E+00
        -11   -1    0    0    0    0  0.00000000000E+00  0.00000000000E+00  0.45593999997E+02  0.45594000000E+02  0.51100000000E-03 0.  1.
         11   -1    0    0    0    0 -0.00000000000E+00 -0.00000000000E+00 -0.45593999997E+02  0.45594000000E+02  0.51100000000E-03 0. -1.
    9900012    2    1    2    0    0  0.26367252547E+02  0.33542346725E+02 -0.79562829475E+01  0.47787268795E+02  0.19999989746E+02 0.  0.
        -12    1    1    2    0    0 -0.26367252547E+02 -0.33542346725E+02  0.79562829475E+01  0.43400731205E+02  0.00000000000E+00 0.  1.
         11    1    3    3    0    0  0.86856774038E+01  0.66570819125E+01 -0.66990565605E+01  0.12831020638E+02  0.51100000000E-03 0. -1.
        -11    1    3    3    0    0  0.31104728092E+01  0.89213808350E+01  0.54057649873E+01  0.10885236445E+02  0.51100000000E-03 0.  1.
        -12    1    3    3    0    0  0.14571102334E+02  0.17963883978E+02 -0.66629913742E+01  0.24071011713E+02  0.00000000000E+00 0.  1.
</event>
<event>
 7    1  0.3742599E-009  0.4778727E+02  0.7816164E-02  0.1312668E+00
        -11   -1    0    0    0    0  0.00000000000E+00  0.00000000000E+00  0.45593999997E+02  0.45594000000E+02  0.51100000000E-03 0.  1.
         11   -1    0    0    0    0 -0.00000000000E+00 -0.00000000000E+00 -0.45593999997E+02  0.45594000000E+02  0.51100000000E-03 0. -1.
    9900012    2    1    2    0    0  0.97600556342E+01 -0.25484898498E+02 -0.33747363661E+02  0.47787270841E+02  0.19999999073E+02 0.  0.
        -12    1    1    2    0    0 -0.97600556342E+01  0.25484898498E+02  0.33747363661E+02  0.43400729159E+02  0.00000000000E+00 0.  1.
         11    1    3    3    0    0 -0.42894982737E+01 -0.33264874316E+01 -0.55150155669E+01  0.77382627919E+01  0.51100000000E-03 0. -1.
        -11    1    3    3    0    0 -0.14237158120E+01 -0.78028758855E-01 -0.17374654490E+01  0.22476302294E+01  0.51100000000E-03 0.  1.
         12    1    3    3    0    0  0.15473269720E+02 -0.22080382308E+02 -0.26494882645E+02  0.37801377820E+02  0.00000000000E+00 0. -1.
</event>
<event>
 7    1  0.3742599E-009  0.4778727E+02  0.7816164E-02  0.1312668E+00
        -11   -1    0    0    0    0  0.00000000000E+00  0.00000000000E+00  0.45593999997E+02  0.45594000000E+02  0.51100000000E-03 0. -1.
         11   -1    0    0    0    0 -0.00000000000E+00 -0.00000000000E+00 -0.45593999997E+02  0.45594000000E+02  0.51100000000E-03 0.  1.
    9900012    2    1    2    0    0  0.82508140694E+01 -0.53086728266E+01  0.42277242119E+02  0.47787272573E+02  0.20000006969E+02 0.  0.
        -12    1    1    2    0    0 -0.82508140694E+01  0.53086728266E+01 -0.42277242119E+02  0.43400727427E+02  0.00000000000E+00 0.  1.
         11    1    3    3    0    0  0.34818053706E+01 -0.30890161408E+01  0.14639949239E+01  0.48793719632E+01  0.51100000000E-03 0. -1.
        -11    1    3    3    0    0 -0.16634214435E+01 -0.40064832005E+01  0.56859872008E+01  0.71518759247E+01  0.51100000000E-03 0.  1.
         12    1    3    3    0    0  0.64324301422E+01  0.17868265147E+01  0.35127259995E+02  0.35756024685E+02  0.00000000000E+00 0. -1.
</event>
<event>
 7    1  0.3742599E-009  0.4778727E+02  0.7816164E-02  0.1312668E+00
        -11   -1    0    0    0    0  0.00000000000E+00  0.00000000000E+00  0.45593999997E+02  0.45594000000E+02  0.51100000000E-03 0. -1.
         11   -1    0    0    0    0 -0.00000000000E+00 -0.00000000000E+00 -0.45593999997E+02  0.45594000000E+02  0.51100000000E-03 0.  1.
    9900012    2    1    2    0    0 -0.37473777527E+02  0.74294315332E+01  0.20594732320E+02  0.47787268965E+02  0.19999990519E+02 0.  0.
        -12    1    1    2    0    0  0.37473777527E+02 -0.74294315332E+01 -0.20594732320E+02  0.43400731035E+02  0.00000000000E+00 0.  1.
         11    1    3    3    0    0 -0.16397701023E+02  0.83161646047E+01  0.11713951636E+02  0.21800455402E+02  0.51100000000E-03 0. -1.
        -11    1    3    3    0    0 -0.19282942911E+02  0.28155295976E+01  0.45455969503E+01  0.20010535878E+02  0.51100000000E-03 0.  1.
         12    1    3    3    0    0 -0.17931335928E+01 -0.37022626691E+01  0.43351837345E+01  0.59762776847E+01  0.00000000000E+00 0. -1.
</event>
<event>
 7    1  0.3742599E-009  0.4778727E+02  0.7816164E-02  0.1312668E+00
        -11   -1    0    0    0    0  0.00000000000E+00  0.00000000000E+00  0.45593999997E+02  0.45594000000E+02  0.51100000000E-03 0.  1.
         11   -1    0    0    0    0 -0.00000000000E+00 -0.00000000000E+00 -0.45593999997E+02  0.45594000000E+02  0.51100000000E-03 0. -1.
    9900012    2    1    2    0    0  0.50708705660E+01  0.42310112055E+02 -0.82318830037E+01  0.47787271801E+02  0.20000003451E+02 0.  0.
        -12    1    1    2    0    0 -0.50708705660E+01 -0.42310112055E+02  0.82318830037E+01  0.43400728199E+02  0.00000000000E+00 0.  1.
         11    1    3    3    0    0  0.15372855723E+01  0.29014064891E+01 -0.89702244487E+00  0.34038296187E+01  0.51100000000E-03 0. -1.
        -11    1    3    3    0    0  0.33188855632E+01 -0.89696518104E+00 -0.10156646878E+01  0.35848462920E+01  0.51100000000E-03 0.  1.
         12    1    3    3    0    0  0.21469943050E+00  0.40305670747E+02 -0.63191958710E+01  0.40798595891E+02  0.00000000000E+00 0. -1.
</event>
<event>
 7    1  0.3742599E-009  0.4778727E+02  0.7816164E-02  0.1312668E+00
        -11   -1    0    0    0    0  0.00000000000E+00  0.00000000000E+00  0.45593999997E+02  0.45594000000E+02  0.51100000000E-03 0.  1.
         11   -1    0    0    0    0 -0.00000000000E+00 -0.00000000000E+00 -0.45593999997E+02  0.45594000000E+02  0.51100000000E-03 0. -1.
    9900012    2    1    2    0    0  0.14191145838E+00 -0.10633836999E+02 -0.42077604614E+02  0.47787269151E+02  0.19999991368E+02 0.  0.
        -12    1    1    2    0    0 -0.14191145838E+00  0.10633836999E+02  0.42077604614E+02  0.43400730849E+02  0.00000000000E+00 0.  1.
         11    1    3    3    0    0  0.48381757699E+01 -0.66217443431E+01 -0.22050697844E+02  0.23526340952E+02  0.51100000000E-03 0. -1.
        -11    1    3    3    0    0  0.11970154263E+01 -0.57914701339E+01 -0.41287779698E+01  0.72125432427E+01  0.51100000000E-03 0.  1.
        -12    1    3    3    0    0 -0.58932797378E+01  0.17793774780E+01 -0.15898128800E+02  0.17048384956E+02  0.00000000000E+00 0.  1.
</event>
<event>
 7    1  0.3742599E-009  0.4778727E+02  0.7816164E-02  0.1312668E+00
        -11   -1    0    0    0    0  0.00000000000E+00  0.00000000000E+00  0.45593999997E+02  0.45594000000E+02  0.51100000000E-03 0.  1.
         11   -1    0    0    0    0 -0.00000000000E+00 -0.00000000000E+00 -0.45593999997E+02  0.45594000000E+02  0.51100000000E-03 0. -1.
    9900012    2    1    2    0    0 -0.38211452676E+02  0.36859638471E+01 -0.20246522784E+02  0.47787272703E+02  0.20000007562E+02 0.  0.
        -12    1    1    2    0    0  0.38211452676E+02 -0.36859638471E+01  0.20246522784E+02  0.43400727297E+02  0.00000000000E+00 0.  1.
         11    1    3    3    0    0 -0.19219292892E+02 -0.88376495385E+00 -0.86757464034E+01  0.21105232424E+02  0.51100000000E-03 0. -1.
        -11    1    3    3    0    0 -0.82639254161E+01 -0.47294282933E+01 -0.25356164766E+01  0.98533906064E+01  0.51100000000E-03 0.  1.
        -12    1    3    3    0    0 -0.10728234368E+02  0.92991570942E+01 -0.90351599038E+01  0.16828649673E+02  0.00000000000E+00 0.  1.
</event>
<event>
 7    1  0.3742599E-009  0.4778727E+02  0.7816164E-02  0.1312668E+00
        -11   -1    0    0    0    0  0.00000000000E+00  0.00000000000E+00  0.45593999997E+02  0.45594000000E+02  0.51100000000E-03 0.  1.
         11   -1    0    0    0    0 -0.00000000000E+00 -0.00000000000E+00 -0.45593999997E+02  0.45594000000E+02  0.51100000000E-03 0. -1.
    9900012    2    1    2    0    0 -0.82590433283E+01 -0.12855586696E+02 -0.40621981809E+02  0.47787270605E+02  0.19999997994E+02 0.  0.
        -12    1    1    2    0    0  0.82590433283E+01  0.12855586696E+02  0.40621981809E+02  0.43400729395E+02  0.00000000000E+00 0.  1.
         11    1    3    3    0    0  0.33888407516E+01 -0.63902972101E+00 -0.57637822976E+01  0.67166797794E+01  0.51100000000E-03 0. -1.
        -11    1    3    3    0    0 -0.16697073187E+01 -0.11008428575E+01  0.99238704925E+00  0.22326239817E+01  0.51100000000E-03 0.  1.
         12    1    3    3    0    0 -0.99781767612E+01 -0.11115714118E+02 -0.35850586560E+02  0.38837966843E+02  0.00000000000E+00 0. -1.
</event>
<event>
 7    1  0.3742599E-009  0.4778727E+02  0.7816164E-02  0.1312668E+00
        -11   -1    0    0    0    0  0.00000000000E+00  0.00000000000E+00  0.45593999997E+02  0.45594000000E+02  0.51100000000E-03 0. -1.
         11   -1    0    0    0    0 -0.00000000000E+00 -0.00000000000E+00 -0.45593999997E+02  0.45594000000E+02  0.51100000000E-03 0.  1.
    9900012    2    1    2    0    0  0.41792922253E+02  0.95531474528E+00  0.11664579080E+02  0.47787269801E+02  0.19999994330E+02 0.  0.
        -12    1    1    2    0    0 -0.41792922253E+02 -0.95531474528E+00 -0.11664579080E+02  0.43400730199E+02  0.00000000000E+00 0.  1.
         11    1    3    3    0    0  0.31633815993E+02  0.45877476955E+01  0.34956742536E+01  0.32155333647E+02  0.51100000000E-03 0. -1.
        -11    1    3    3    0    0  0.60642580453E+01 -0.33846817741E+01  0.53483625543E+00  0.69654394286E+01  0.51100000000E-03 0.  1.
         12    1    3    3    0    0  0.40948482146E+01 -0.24775117611E+00  0.76340685710E+01  0.86664967254E+01  0.00000000000E+00 0. -1.
</event>
<event>
 7    1  0.3742599E-009  0.4778727E+02  0.7816164E-02  0.1312668E+00
        -11   -1    0    0    0    0  0.00000000000E+00  0.00000000000E+00  0.45593999997E+02  0.45594000000E+02  0.51100000000E-03 0.  1.
         11   -1    0    0    0    0 -0.00000000000E+00 -0.00000000000E+00 -0.45593999997E+02  0.45594000000E+02  0.51100000000E-03 0. -1.
    9900012    2    1    2    0    0  0.32379439108E+02  0.19734324542E+02  0.21112830272E+02  0.47787271386E+02  0.20000001559E+02 0.  0.
        -12    1    1    2    0    0 -0.32379439108E+02 -0.19734324542E+02 -0.21112830272E+02  0.43400728614E+02  0.00000000000E+00 0.  1.
         11    1    3    3    0    0  0.12631062116E+02  0.16600642915E+01  0.16880096303E+01  0.12851027990E+02  0.51100000000E-03 0. -1.
        -11    1    3    3    0    0  0.21789455949E+01  0.11055594134E+01  0.72373963712E+01  0.76387153381E+01  0.51100000000E-03 0.  1.
        -12    1    3    3    0    0  0.17569431397E+02  0.16968700837E+02  0.12187424270E+02  0.27297528058E+02  0.00000000000E+00 0.  1.
</event>
<event>
 7    1  0.3742599E-009  0.4778727E+02  0.7816164E-02  0.1312668E+00
        -11   -1    0    0    0    0  0.00000000000E+00  0.00000000000E+00  0.45593999997E+02  0.45594000000E+02  0.51100000000E-03 0.  1.
         11   -1    0    0    0    0 -0.00000000000E+00 -0.00000000000E+00 -0.45593999997E+02  0.45594000000E+02  0.51100000000E-03 0. -1.
    9900012    2    1    2    0    0  0.30957017110E+02 -0.29679493812E+02 -0.66643828786E+01  0.47787271199E+02  0.20000000705E+02 0.  0.
        -12    1    1    2    0    0 -0.30957017110E+02  0.29679493812E+02  0.66643828786E+01  0.43400728801E+02  0.00000000000E+00 0.  1.
         11    1    3    3    0    0  0.36580276734E+01 -0.32705308112E+01  0.48373177022E+01  0.68903687173E+01  0.51100000000E-03 0. -1.
        -11    1    3    3    0    0  0.11385935931E+02 -0.14659189183E+02 -0.12152180177E+01  0.18601293493E+02  0.51100000000E-03 0.  1.
         12    1    3    3    0    0  0.15913053506E+02 -0.11749773818E+02 -0.10286482563E+02  0.22295608989E+02  0.00000000000E+00 0. -1.
</event>
<event>
 7    1  0.3742599E-009  0.4778727E+02  0.7816164E-02  0.1312668E+00
        -11   -1    0    0    0    0  0.00000000000E+00  0.00000000000E+00  0.45593999997E+02  0.45594000000E+02  0.51100000000E-03 0.  1.
         11   -1    0    0    0    0 -0.00000000000E+00 -0.00000000000E+00 -0.45593999997E+02  0.45594000000E+02  0.51100000000E-03 0. -1.
    9900012    2    1    2    0    0 -0.27205270504E+02  0.22148791904E+02 -0.25552448633E+02  0.47787270085E+02  0.19999995625E+02 0.  0.
        -12    1    1    2    0    0  0.27205270504E+02 -0.22148791904E+02  0.25552448633E+02  0.43400729915E+02  0.00000000000E+00 0.  1.
         11    1    3    3    0    0 -0.42638633107E+01  0.12763444126E+01 -0.82279651989E+01  0.93546243627E+01  0.51100000000E-03 0. -1.
        -11    1    3    3    0    0  0.17437214280E+01  0.25321916607E+01 -0.36626261427E+01  0.47819859418E+01  0.51100000000E-03 0.  1.
        -12    1    3    3    0    0 -0.24685128622E+02  0.18340255831E+02 -0.13661857291E+02  0.33650659780E+02  0.00000000000E+00 0.  1.
</event>
<event>
 7    1  0.3742599E-009  0.4778726E+02  0.7816164E-02  0.1312668E+00
        -11   -1    0    0    0    0  0.00000000000E+00  0.00000000000E+00  0.45593999997E+02  0.45594000000E+02  0.51100000000E-03 0.  1.
         11   -1    0    0    0    0 -0.00000000000E+00 -0.00000000000E+00 -0.45593999997E+02  0.45594000000E+02  0.51100000000E-03 0. -1.
    9900012    2    1    2    0    0  0.16621798444E+02 -0.57150479468E+01 -0.39682210783E+02  0.47787264878E+02  0.19999971883E+02 0.  0.
        -12    1    1    2    0    0 -0.16621798444E+02  0.57150479468E+01  0.39682210783E+02  0.43400735122E+02  0.00000000000E+00 0.  1.
         11    1    3    3    0    0  0.72072405719E+01 -0.52421154448E+01 -0.11370045929E+02  0.14446523308E+02  0.51100000000E-03 0. -1.
        -11    1    3    3    0    0  0.57141143121E+01 -0.62531098555E+01 -0.71220712783E+01  0.11066904933E+02  0.51100000000E-03 0.  1.
         12    1    3    3    0    0  0.37004435599E+01  0.57801773535E+01 -0.21190093576E+02  0.22273836637E+02  0.00000000000E+00 0. -1.
</event>
<event>
 7    1  0.3742599E-009  0.4778727E+02  0.7816164E-02  0.1312668E+00
        -11   -1    0    0    0    0  0.00000000000E+00  0.00000000000E+00  0.45593999997E+02  0.45594000000E+02  0.51100000000E-03 0.  1.
         11   -1    0    0    0    0 -0.00000000000E+00 -0.00000000000E+00 -0.45593999997E+02  0.45594000000E+02  0.51100000000E-03 0. -1.
    9900012    2    1    2    0    0  0.14646066417E+02  0.10986756060E+02 -0.39349806156E+02  0.47787270573E+02  0.19999997852E+02 0.  0.
        -12    1    1    2    0    0 -0.14646066417E+02 -0.10986756060E+02  0.39349806156E+02  0.43400729427E+02  0.00000000000E+00 0.  1.
         11    1    3    3    0    0 -0.28969918305E+01  0.52146987221E+00 -0.23602812552E+01  0.37729856027E+01  0.51100000000E-03 0. -1.
        -11    1    3    3    0    0  0.13263581670E+01  0.66927500998E+01 -0.14571017631E+02  0.16089334509E+02  0.51100000000E-03 0.  1.
        -12    1    3    3    0    0  0.16216700081E+02  0.37725360884E+01 -0.22418507270E+02  0.27924950461E+02  0.00000000000E+00 0.  1.
</event>
<event>
 7    1  0.3742599E-009  0.4778727E+02  0.7816164E-02  0.1312668E+00
        -11   -1    0    0    0    0  0.00000000000E+00  0.00000000000E+00  0.45593999997E+02  0.45594000000E+02  0.51100000000E-03 0.  1.
         11   -1    0    0    0    0 -0.00000000000E+00 -0.00000000000E+00 -0.45593999997E+02  0.45594000000E+02  0.51100000000E-03 0. -1.
    9900012    2    1    2    0    0 -0.33194009534E+02  0.26134297174E+02 -0.99388005616E+01  0.47787268274E+02  0.19999987369E+02 0.  0.
        -12    1    1    2    0    0  0.33194009534E+02 -0.26134297174E+02  0.99388005616E+01  0.43400731726E+02  0.00000000000E+00 0.  1.
         11    1    3    3    0    0 -0.19450002054E+02  0.25669750345E+02 -0.75250784901E+01  0.33073637073E+02  0.51100000000E-03 0. -1.
        -11    1    3    3    0    0 -0.70432610488E+01  0.25465760191E+01 -0.14909589062E+01  0.76364608520E+01  0.51100000000E-03 0.  1.
        -12    1    3    3    0    0 -0.67007464315E+01 -0.20820291908E+01 -0.92276316533E+00  0.70771703490E+01  0.00000000000E+00 0.  1.
</event>
<event>
 7    1  0.3742599E-009  0.4778727E+02  0.7816164E-02  0.1312668E+00
        -11   -1    0    0    0    0  0.00000000000E+00  0.00000000000E+00  0.45593999997E+02  0.45594000000E+02  0.51100000000E-03 0.  1.
         11   -1    0    0    0    0 -0.00000000000E+00 -0.00000000000E+00 -0.45593999997E+02  0.45594000000E+02  0.51100000000E-03 0. -1.
    9900012    2    1    2    0    0  0.29624151523E+02  0.10826808200E+02 -0.29812976590E+02  0.47787266107E+02  0.19999977488E+02 0.  0.
        -12    1    1    2    0    0 -0.29624151523E+02 -0.10826808200E+02  0.29812976590E+02  0.43400733893E+02  0.00000000000E+00 0.  1.
         11    1    3    3    0    0  0.11891221105E+02  0.16142721305E+01 -0.21711876568E+02  0.24807510924E+02  0.51100000000E-03 0. -1.
        -11    1    3    3    0    0 -0.79101143902E+00  0.79008987516E-01 -0.12294147301E-02  0.79494860800E+00  0.51100000000E-03 0.  1.
        -12    1    3    3    0    0  0.18523941858E+02  0.91335270824E+01 -0.80998706073E+01  0.22184806575E+02  0.00000000000E+00 0.  1.
</event>
<event>
 7    1  0.3742599E-009  0.4778727E+02  0.7816164E-02  0.1312668E+00
        -11   -1    0    0    0    0  0.00000000000E+00  0.00000000000E+00  0.45593999997E+02  0.45594000000E+02  0.51100000000E-03 0.  1.
         11   -1    0    0    0    0 -0.00000000000E+00 -0.00000000000E+00 -0.45593999997E+02  0.45594000000E+02  0.51100000000E-03 0. -1.
    9900012    2    1    2    0    0 -0.23507423032E+01 -0.32392367484E+02 -0.28789437847E+02  0.47787271986E+02  0.20000004294E+02 0.  0.
        -12    1    1    2    0    0  0.23507423032E+01  0.32392367484E+02  0.28789437847E+02  0.43400728014E+02  0.00000000000E+00 0.  1.
         11    1    3    3    0    0 -0.47051639114E+01 -0.51132748002E+01 -0.93953491434E+01  0.11685749116E+02  0.51100000000E-03 0. -1.
        -11    1    3    3    0    0 -0.38448210415E+01 -0.21102910872E+01 -0.16363263983E+01  0.46811901966E+01  0.51100000000E-03 0.  1.
         12    1    3    3    0    0  0.61992426497E+01 -0.25168801597E+02 -0.17757762305E+02  0.31420332674E+02  0.00000000000E+00 0. -1.
</event>
<event>
 7    1  0.3742599E-009  0.4778727E+02  0.7816164E-02  0.1312668E+00
        -11   -1    0    0    0    0  0.00000000000E+00  0.00000000000E+00  0.45593999997E+02  0.45594000000E+02  0.51100000000E-03 0. -1.
         11   -1    0    0    0    0 -0.00000000000E+00 -0.00000000000E+00 -0.45593999997E+02  0.45594000000E+02  0.51100000000E-03 0.  1.
    9900012    2    1    2    0    0 -0.37591695768E+01  0.42611394520E+02  0.73321791224E+01  0.47787272477E+02  0.20000006532E+02 0.  0.
        -12    1    1    2    0    0  0.37591695768E+01 -0.42611394520E+02 -0.73321791224E+01  0.43400727523E+02  0.00000000000E+00 0.  1.
         11    1    3    3    0    0  0.39615855903E+01  0.82398426124E+00 -0.10816807102E+01  0.41884536374E+01  0.51100000000E-03 0. -1.
        -11    1    3    3    0    0 -0.17500563703E+01  0.94129516079E+01 -0.17710536712E+00  0.95758927439E+01  0.51100000000E-03 0.  1.
         12    1    3    3    0    0 -0.59706987968E+01  0.32374458651E+02  0.85909651998E+01  0.34022926096E+02  0.00000000000E+00 0. -1.
</event>
<event>
 7    1  0.3742599E-009  0.4778727E+02  0.7816164E-02  0.1312668E+00
        -11   -1    0    0    0    0  0.00000000000E+00  0.00000000000E+00  0.45593999997E+02  0.45594000000E+02  0.51100000000E-03 0.  1.
         11   -1    0    0    0    0 -0.00000000000E+00 -0.00000000000E+00 -0.45593999997E+02  0.45594000000E+02  0.51100000000E-03 0. -1.
    9900012    2    1    2    0    0  0.27424676832E+02 -0.13862979587E+02 -0.30648459042E+02  0.47787272541E+02  0.20000006822E+02 0.  0.
        -12    1    1    2    0    0 -0.27424676832E+02  0.13862979587E+02  0.30648459042E+02  0.43400727459E+02  0.00000000000E+00 0.  1.
         11    1    3    3    0    0 -0.18221125988E+00 -0.42608352525E+01 -0.82310937407E+01  0.92703194347E+01  0.51100000000E-03 0. -1.
        -11    1    3    3    0    0  0.61978312030E+01 -0.35629841212E+01 -0.31064317111E+00  0.71557296560E+01  0.51100000000E-03 0.  1.
         12    1    3    3    0    0  0.21409056889E+02 -0.60391602131E+01 -0.22106722130E+02  0.31361223450E+02  0.00000000000E+00 0. -1.
</event>
<event>
 7    1  0.3742599E-009  0.4778728E+02  0.7816164E-02  0.1312668E+00
        -11   -1    0    0    0    0  0.00000000000E+00  0.00000000000E+00  0.45593999997E+02  0.45594000000E+02  0.51100000000E-03 0.  1.
         11   -1    0    0    0    0 -0.00000000000E+00 -0.00000000000E+00 -0.45593999997E+02  0.45594000000E+02  0.51100000000E-03 0. -1.
    9900012    2    1    2    0    0  0.24070107732E+02 -0.23641309922E+02  0.27300934444E+02  0.47787278317E+02  0.20000033160E+02 0.  0.
        -12    1    1    2    0    0 -0.24070107732E+02  0.23641309922E+02 -0.27300934444E+02  0.43400721683E+02  0.00000000000E+00 0.  1.
         11    1    3    3    0    0 -0.17231169048E+00 -0.54196112010E+01  0.21408249195E+01  0.58296662414E+01  0.51100000000E-03 0. -1.
        -11    1    3    3    0    0  0.15547488622E+02 -0.56195299187E+01  0.19664812470E+02  0.25690628032E+02  0.51100000000E-03 0.  1.
        -12    1    3    3    0    0  0.86949308008E+01 -0.12602168802E+02  0.54952970544E+01  0.16266984043E+02  0.00000000000E+00 0.  1.
</event>
<event>
 7    1  0.3742599E-009  0.4778727E+02  0.7816164E-02  0.1312668E+00
        -11   -1    0    0    0    0  0.00000000000E+00  0.00000000000E+00  0.45593999997E+02  0.45594000000E+02  0.51100000000E-03 0.  1.
         11   -1    0    0    0    0 -0.00000000000E+00 -0.00000000000E+00 -0.45593999997E+02  0.45594000000E+02  0.51100000000E-03 0. -1.
    9900012    2    1    2    0    0  0.21228293022E+02  0.84790803064E+01 -0.36892924723E+02  0.47787272793E+02  0.20000007973E+02 0.  0.
        -12    1    1    2    0    0 -0.21228293022E+02 -0.84790803064E+01  0.36892924723E+02  0.43400727207E+02  0.00000000000E+00 0.  1.
         11    1    3    3    0    0 -0.19320595090E+01 -0.69859739827E+00 -0.94210195879E+00  0.22601877429E+01  0.51100000000E-03 0. -1.
        -11    1    3    3    0    0  0.10145946406E+01  0.14418375446E+01 -0.11532941035E+02  0.11666920200E+02  0.51100000000E-03 0.  1.
         12    1    3    3    0    0  0.22145757890E+02  0.77358401601E+01 -0.24417881730E+02  0.33860164850E+02  0.00000000000E+00 0. -1.
</event>
<event>
 7    1  0.3742599E-009  0.4778726E+02  0.7816164E-02  0.1312668E+00
        -11   -1    0    0    0    0  0.00000000000E+00  0.00000000000E+00  0.45593999997E+02  0.45594000000E+02  0.51100000000E-03 0.  1.
         11   -1    0    0    0    0 -0.00000000000E+00 -0.00000000000E+00 -0.45593999997E+02  0.45594000000E+02  0.51100000000E-03 0. -1.
    9900012    2    1    2    0    0  0.22740298476E+02 -0.36912766841E+02 -0.19876649477E+01  0.47787258733E+02  0.19999943865E+02 0.  0.
        -12    1    1    2    0    0 -0.22740298476E+02  0.36912766841E+02  0.19876649477E+01  0.43400741267E+02  0.00000000000E+00 0.  1.
         11    1    3    3    0    0  0.54703792218E+00  0.79649357427E+00 -0.14534736202E+01  0.17453476238E+01  0.51100000000E-03 0. -1.
        -11    1    3    3    0    0  0.86984591454E+01 -0.13085813227E+02 -0.70416992387E+01  0.17218804481E+02  0.51100000000E-03 0.  1.
        -12    1    3    3    0    0  0.13494801408E+02 -0.24623447188E+02  0.65075079111E+01  0.28823106628E+02  0.00000000000E+00 0.  1.
</event>
<event>
 7    1  0.3742599E-009  0.4778728E+02  0.7816164E-02  0.1312668E+00
        -11   -1    0    0    0    0  0.00000000000E+00  0.00000000000E+00  0.45593999997E+02  0.45594000000E+02  0.51100000000E-03 0. -1.
         11   -1    0    0    0    0 -0.00000000000E+00 -0.00000000000E+00 -0.45593999997E+02  0.45594000000E+02  0.51100000000E-03 0.  1.
    9900012    2    1    2    0    0  0.41412748817E+02 -0.99860875977E+00  0.12946424349E+02  0.47787275496E+02  0.20000020298E+02 0.  0.
        -12    1    1    2    0    0 -0.41412748817E+02  0.99860875977E+00 -0.12946424349E+02  0.43400724504E+02  0.00000000000E+00 0.  1.
         11    1    3    3    0    0  0.14657677102E+02  0.23731042349E+01  0.92913981082E+01  0.17515969879E+02  0.51100000000E-03 0. -1.
        -11    1    3    3    0    0  0.26140120773E+02 -0.55478303003E+01  0.55833583131E+01  0.27299418041E+02  0.51100000000E-03 0.  1.
         12    1    3    3    0    0  0.61495094219E+00  0.21761173056E+01 -0.19283320721E+01  0.29718875768E+01  0.00000000000E+00 0. -1.
</event>
<event>
 7    1  0.3742599E-009  0.4778725E+02  0.7816164E-02  0.1312668E+00
        -11   -1    0    0    0    0  0.00000000000E+00  0.00000000000E+00  0.45593999997E+02  0.45594000000E+02  0.51100000000E-03 0. -1.
         11   -1    0    0    0    0 -0.00000000000E+00 -0.00000000000E+00 -0.45593999997E+02  0.45594000000E+02  0.51100000000E-03 0.  1.
    9900012    2    1    2    0    0 -0.38441252347E+02 -0.17817242887E+02  0.94043078603E+01  0.47787250785E+02  0.19999907628E+02 0.  0.
        -12    1    1    2    0    0  0.38441252347E+02  0.17817242887E+02 -0.94043078603E+01  0.43400749215E+02  0.00000000000E+00 0.  1.
         11    1    3    3    0    0 -0.78253458844E+01 -0.17563779309E+01  0.60224245644E+01  0.10029481519E+02  0.51100000000E-03 0. -1.
        -11    1    3    3    0    0 -0.17803123260E+02 -0.47827683441E+01 -0.44707630480E+01  0.18968758350E+02  0.51100000000E-03 0.  1.
         12    1    3    3    0    0 -0.12812783203E+02 -0.11278096612E+02  0.78526463439E+01  0.18789010916E+02  0.00000000000E+00 0. -1.
</event>
<event>
 7    1  0.3742599E-009  0.4778726E+02  0.7816164E-02  0.1312668E+00
        -11   -1    0    0    0    0  0.00000000000E+00  0.00000000000E+00  0.45593999997E+02  0.45594000000E+02  0.51100000000E-03 0. -1.
         11   -1    0    0    0    0 -0.00000000000E+00 -0.00000000000E+00 -0.45593999997E+02  0.45594000000E+02  0.51100000000E-03 0.  1.
    9900012    2    1    2    0    0  0.18985720729E+01  0.24536015234E+02  0.35749176811E+02  0.47787259659E+02  0.19999948088E+02 0.  0.
        -12    1    1    2    0    0 -0.18985720729E+01 -0.24536015234E+02 -0.35749176811E+02  0.43400740341E+02  0.00000000000E+00 0.  1.
         11    1    3    3    0    0 -0.48368844372E+01  0.61816158565E+01  0.16209864854E+02  0.18010206676E+02  0.51100000000E-03 0. -1.
        -11    1    3    3    0    0 -0.14240241834E+01  0.11511859866E+02  0.80964617354E+01  0.14145792850E+02  0.51100000000E-03 0.  1.
         12    1    3    3    0    0  0.81594806936E+01  0.68425395111E+01  0.11442850221E+02  0.15631260133E+02  0.00000000000E+00 0. -1.
</event>
<event>
 7    1  0.3742599E-009  0.4778727E+02  0.7816164E-02  0.1312668E+00
        -11   -1    0    0    0    0  0.00000000000E+00  0.00000000000E+00  0.45593999997E+02  0.45594000000E+02  0.51100000000E-03 0.  1.
         11   -1    0    0    0    0 -0.00000000000E+00 -0.00000000000E+00 -0.45593999997E+02  0.45594000000E+02  0.51100000000E-03 0. -1.
    9900012    2    1    2    0    0 -0.71692594025E+01  0.10400769305E+01 -0.42791858793E+02  0.47787271672E+02  0.20000002861E+02 0.  0.
        -12    1    1    2    0    0  0.71692594025E+01 -0.10400769305E+01  0.42791858793E+02  0.43400728328E+02  0.00000000000E+00 0.  1.
         11    1    3    3    0    0  0.11807364187E+01 -0.40982136308E+01 -0.17931335441E+02  0.18431556755E+02  0.51100000000E-03 0. -1.
        -11    1    3    3    0    0 -0.83299561149E+01 -0.11919586439E+01 -0.18776009905E+02  0.20575409655E+02  0.51100000000E-03 0.  1.
        -12    1    3    3    0    0 -0.20039706377E-01  0.63302492053E+01 -0.60845134480E+01  0.87803052617E+01  0.00000000000E+00 0.  1.
</event>
<event>
 7    1  0.3742599E-009  0.4778728E+02  0.7816164E-02  0.1312668E+00
        -11   -1    0    0    0    0  0.00000000000E+00  0.00000000000E+00  0.45593999997E+02  0.45594000000E+02  0.51100000000E-03 0.  1.
         11   -1    0    0    0    0 -0.00000000000E+00 -0.00000000000E+00 -0.45593999997E+02  0.45594000000E+02  0.51100000000E-03 0. -1.
    9900012    2    1    2    0    0  0.38810738978E+02  0.12280776915E+02 -0.15050972186E+02  0.47787277594E+02  0.20000029862E+02 0.  0.
        -12    1    1    2    0    0 -0.38810738978E+02 -0.12280776915E+02  0.15050972186E+02  0.43400722406E+02  0.00000000000E+00 0.  1.
         11    1    3    3    0    0  0.12506267244E+02  0.39278767443E+01 -0.76615697962E+01  0.15183365506E+02  0.51100000000E-03 0. -1.
        -11    1    3    3    0    0  0.61387641431E+00  0.59172937984E+01 -0.14663461862E+01  0.61271022145E+01  0.51100000000E-03 0.  1.
        -12    1    3    3    0    0  0.25690595319E+02  0.24356063726E+01 -0.59230562034E+01  0.26476809873E+02  0.00000000000E+00 0.  1.
</event>
<event>
 7    1  0.3742599E-009  0.4778727E+02  0.7816164E-02  0.1312668E+00
        -11   -1    0    0    0    0  0.00000000000E+00  0.00000000000E+00  0.45593999997E+02  0.45594000000E+02  0.51100000000E-03 0. -1.
         11   -1    0    0    0    0 -0.00000000000E+00 -0.00000000000E+00 -0.45593999997E+02  0.45594000000E+02  0.51100000000E-03 0.  1.
    9900012    2    1    2    0    0  0.36456292381E+02 -0.21375354162E+02 -0.98821154669E+01  0.47787271598E+02  0.20000002525E+02 0.  0.
        -12    1    1    2    0    0 -0.36456292381E+02  0.21375354162E+02  0.98821154669E+01  0.43400728402E+02  0.00000000000E+00 0.  1.
         11    1    3    3    0    0  0.50807955852E+01 -0.28782959584E+01  0.20257739439E+01  0.61808439339E+01  0.51100000000E-03 0. -1.
        -11    1    3    3    0    0  0.16819547402E+02 -0.66003316024E+01  0.20611881297E+01  0.18185435074E+02  0.51100000000E-03 0.  1.
        -12    1    3    3    0    0  0.14555949393E+02 -0.11896726602E+02 -0.13969077540E+02  0.23420992590E+02  0.00000000000E+00 0.  1.
</event>
<event>
 7    1  0.3742599E-009  0.4778727E+02  0.7816164E-02  0.1312668E+00
        -11   -1    0    0    0    0  0.00000000000E+00  0.00000000000E+00  0.45593999997E+02  0.45594000000E+02  0.51100000000E-03 0.  1.
         11   -1    0    0    0    0 -0.00000000000E+00 -0.00000000000E+00 -0.45593999997E+02  0.45594000000E+02  0.51100000000E-03 0. -1.
    9900012    2    1    2    0    0 -0.25522764722E+02  0.32352906254E+02 -0.13619879721E+02  0.47787272059E+02  0.20000004628E+02 0.  0.
        -12    1    1    2    0    0  0.25522764722E+02 -0.32352906254E+02  0.13619879721E+02  0.43400727941E+02  0.00000000000E+00 0.  1.
         11    1    3    3    0    0 -0.17623065607E+02  0.18957931377E+02 -0.74893750531E+01  0.26945618242E+02  0.51100000000E-03 0. -1.
        -11    1    3    3    0    0 -0.10343846337E+02  0.82212016279E+01 -0.71591813066E+01  0.15027880439E+02  0.51100000000E-03 0.  1.
        -12    1    3    3    0    0  0.24441472216E+01  0.51737732492E+01  0.10286766384E+01  0.58137733789E+01  0.00000000000E+00 0.  1.
</event>
<event>
 7    1  0.3742599E-009  0.4778727E+02  0.7816164E-02  0.1312668E+00
        -11   -1    0    0    0    0  0.00000000000E+00  0.00000000000E+00  0.45593999997E+02  0.45594000000E+02  0.51100000000E-03 0.  1.
         11   -1    0    0    0    0 -0.00000000000E+00 -0.00000000000E+00 -0.45593999997E+02  0.45594000000E+02  0.51100000000E-03 0. -1.
    9900012    2    1    2    0    0 -0.83604669930E+01  0.10994461964E+02 -0.41144234634E+02  0.47787266760E+02  0.19999980463E+02 0.  0.
        -12    1    1    2    0    0  0.83604669930E+01 -0.10994461964E+02  0.41144234634E+02  0.43400733240E+02  0.00000000000E+00 0.  1.
         11    1    3    3    0    0 -0.37818331223E+01 -0.46131726170E+00 -0.28674392533E+01  0.47683627708E+01  0.51100000000E-03 0. -1.
        -11    1    3    3    0    0 -0.86986967804E-01 -0.37419370019E+01 -0.62332917665E+01  0.72707348848E+01  0.51100000000E-03 0.  1.
         12    1    3    3    0    0 -0.44916469029E+01  0.15197716227E+02 -0.32043503614E+02  0.35748169104E+02  0.00000000000E+00 0. -1.
</event>
<event>
 7    1  0.3742599E-009  0.4778727E+02  0.7816164E-02  0.1312668E+00
        -11   -1    0    0    0    0  0.00000000000E+00  0.00000000000E+00  0.45593999997E+02  0.45594000000E+02  0.51100000000E-03 0. -1.
         11   -1    0    0    0    0 -0.00000000000E+00 -0.00000000000E+00 -0.45593999997E+02  0.45594000000E+02  0.51100000000E-03 0.  1.
    9900012    2    1    2    0    0 -0.24582539768E+02 -0.35762463587E+02 -0.60692315851E+00  0.47787269373E+02  0.19999992381E+02 0.  0.
        -12    1    1    2    0    0  0.24582539768E+02  0.35762463587E+02  0.60692315851E+00  0.43400730627E+02  0.00000000000E+00 0.  1.
         11    1    3    3    0    0 -0.18768617289E+02 -0.28767571536E+02  0.18446606447E+01  0.34398211293E+02  0.51100000000E-03 0. -1.
        -11    1    3    3    0    0 -0.92779120400E-01 -0.74165675847E+01 -0.11382235158E+01  0.75039746625E+01  0.51100000000E-03 0.  1.
        -12    1    3    3    0    0 -0.57211433589E+01  0.42167553418E+00 -0.13133602874E+01  0.58850834177E+01  0.00000000000E+00 0.  1.
</event>
<event>
 7    1  0.3742599E-009  0.4778727E+02  0.7816164E-02  0.1312668E+00
        -11   -1    0    0    0    0  0.00000000000E+00  0.00000000000E+00  0.45593999997E+02  0.45594000000E+02  0.51100000000E-03 0.  1.
         11   -1    0    0    0    0 -0.00000000000E+00 -0.00000000000E+00 -0.45593999997E+02  0.45594000000E+02  0.51100000000E-03 0. -1.
    9900012    2    1    2    0    0  0.84533918913E+01 -0.13295382318E+01 -0.42548747140E+02  0.47787269712E+02  0.19999993925E+02 0.  0.
        -12    1    1    2    0    0 -0.84533918913E+01  0.13295382318E+01  0.42548747140E+02  0.43400730288E+02  0.00000000000E+00 0.  1.
         11    1    3    3    0    0  0.71208630045E+01 -0.61211205356E+01 -0.22717457781E+02  0.24581653623E+02  0.51100000000E-03 0. -1.
        -11    1    3    3    0    0  0.34262181402E+01  0.14732123167E+00 -0.17069876354E+02  0.17410954979E+02  0.51100000000E-03 0.  1.
        -12    1    3    3    0    0 -0.20936892534E+01  0.46442610721E+01 -0.27614130048E+01  0.57946611099E+01  0.00000000000E+00 0.  1.
</event>
<event>
 7    1  0.3742599E-009  0.4778727E+02  0.7816164E-02  0.1312668E+00
        -11   -1    0    0    0    0  0.00000000000E+00  0.00000000000E+00  0.45593999997E+02  0.45594000000E+02  0.51100000000E-03 0.  1.
         11   -1    0    0    0    0 -0.00000000000E+00 -0.00000000000E+00 -0.45593999997E+02  0.45594000000E+02  0.51100000000E-03 0. -1.
    9900012    2    1    2    0    0  0.14008749441E+02 -0.19582856824E+02 -0.36109416710E+02  0.47787270542E+02  0.19999997710E+02 0.  0.
        -12    1    1    2    0    0 -0.14008749441E+02  0.19582856824E+02  0.36109416710E+02  0.43400729458E+02  0.00000000000E+00 0.  1.
         11    1    3    3    0    0  0.46742716741E+01 -0.12490812669E+01 -0.42250106691E+01  0.64233741219E+01  0.51100000000E-03 0. -1.
        -11    1    3    3    0    0  0.10650032388E+02 -0.71924028832E+01 -0.84439752470E+01  0.15377079285E+02  0.51100000000E-03 0.  1.
         12    1    3    3    0    0 -0.13155546211E+01 -0.11141372674E+02 -0.23440430794E+02  0.25986817136E+02  0.00000000000E+00 0. -1.
</event>
<event>
 7    1  0.3742599E-009  0.4778727E+02  0.7816164E-02  0.1312668E+00
        -11   -1    0    0    0    0  0.00000000000E+00  0.00000000000E+00  0.45593999997E+02  0.45594000000E+02  0.51100000000E-03 0.  1.
         11   -1    0    0    0    0 -0.00000000000E+00 -0.00000000000E+00 -0.45593999997E+02  0.45594000000E+02  0.51100000000E-03 0. -1.
    9900012    2    1    2    0    0  0.27423835386E+02 -0.11352864496E+02 -0.31664944680E+02  0.47787274187E+02  0.20000014326E+02 0.  0.
        -12    1    1    2    0    0 -0.27423835386E+02  0.11352864496E+02  0.31664944680E+02  0.43400725813E+02  0.00000000000E+00 0.  1.
         11    1    3    3    0    0  0.15665850852E+02 -0.19834850703E+01 -0.21080765576E+02  0.26339168048E+02  0.51100000000E-03 0. -1.
        -11    1    3    3    0    0  0.13500719531E+02 -0.60871402427E+01 -0.94291988175E+01  0.17556551335E+02  0.51100000000E-03 0.  1.
        -12    1    3    3    0    0 -0.17427349967E+01 -0.32822391832E+01 -0.11549802868E+01  0.38915548033E+01  0.00000000000E+00 0.  1.
</event>
<event>
 7    1  0.3742599E-009  0.4778727E+02  0.7816164E-02  0.1312668E+00
        -11   -1    0    0    0    0  0.00000000000E+00  0.00000000000E+00  0.45593999997E+02  0.45594000000E+02  0.51100000000E-03 0.  1.
         11   -1    0    0    0    0 -0.00000000000E+00 -0.00000000000E+00 -0.45593999997E+02  0.45594000000E+02  0.51100000000E-03 0. -1.
    9900012    2    1    2    0    0  0.24060365396E+01  0.43333556399E+02  0.19319327749E+00  0.47787269065E+02  0.19999990976E+02 0.  0.
        -12    1    1    2    0    0 -0.24060365396E+01 -0.43333556399E+02 -0.19319327749E+00  0.43400730935E+02  0.00000000000E+00 0.  1.
         11    1    3    3    0    0 -0.31882462546E+01  0.14826748733E+02 -0.56926096878E+01  0.16198864080E+02  0.51100000000E-03 0. -1.
        -11    1    3    3    0    0  0.40314928272E+00 -0.79739432699E+00  0.11455516927E+01  0.14528096911E+01  0.51100000000E-03 0.  1.
         12    1    3    3    0    0  0.51911335115E+01  0.29304201993E+02  0.47402512725E+01  0.30135595294E+02  0.00000000000E+00 0. -1.
</event>
<event>
 7    1  0.3742599E-009  0.4778728E+02  0.7816164E-02  0.1312668E+00
        -11   -1    0    0    0    0  0.00000000000E+00  0.00000000000E+00  0.45593999997E+02  0.45594000000E+02  0.51100000000E-03 0. -1.
         11   -1    0    0    0    0 -0.00000000000E+00 -0.00000000000E+00 -0.45593999997E+02  0.45594000000E+02  0.51100000000E-03 0.  1.
    9900012    2    1    2    0    0  0.13638695672E+02  0.25551281136E+02  0.32322448481E+02  0.47787278081E+02  0.20000032080E+02 0.  0.
        -12    1    1    2    0    0 -0.13638695672E+02 -0.25551281136E+02 -0.32322448481E+02  0.43400721919E+02  0.00000000000E+00 0.  1.
         11    1    3    3    0    0  0.90377706178E+01  0.14840699329E+02  0.11794359970E+02  0.21000823358E+02  0.51100000000E-03 0. -1.
        -11    1    3    3    0    0  0.71297170829E+01  0.31313084209E+01  0.48063826861E+01  0.91509165057E+01  0.51100000000E-03 0.  1.
         12    1    3    3    0    0 -0.25287920285E+01  0.75792733859E+01  0.15721705824E+02  0.17635538217E+02  0.00000000000E+00 0. -1.
</event>
<event>
 7    1  0.3742599E-009  0.4778727E+02  0.7816164E-02  0.1312668E+00
        -11   -1    0    0    0    0  0.00000000000E+00  0.00000000000E+00  0.45593999997E+02  0.45594000000E+02  0.51100000000E-03 0. -1.
         11   -1    0    0    0    0 -0.00000000000E+00 -0.00000000000E+00 -0.45593999997E+02  0.45594000000E+02  0.51100000000E-03 0.  1.
    9900012    2    1    2    0    0 -0.10718561690E+02 -0.41801575123E+02  0.46220911780E+01  0.47787274496E+02  0.20000015736E+02 0.  0.
        -12    1    1    2    0    0  0.10718561690E+02  0.41801575123E+02 -0.46220911780E+01  0.43400725504E+02  0.00000000000E+00 0.  1.
         11    1    3    3    0    0 -0.21696299040E+01 -0.88567176524E+00 -0.21967964574E+01  0.32121057474E+01  0.51100000000E-03 0. -1.
        -11    1    3    3    0    0  0.27896224296E+01 -0.40456484756E+01 -0.14517876821E+01  0.51241538446E+01  0.51100000000E-03 0.  1.
         12    1    3    3    0    0 -0.11338554215E+02 -0.36870254882E+02  0.82706753175E+01  0.39451014904E+02  0.00000000000E+00 0. -1.
</event>
<event>
 7    1  0.3742599E-009  0.4778727E+02  0.7816164E-02  0.1312668E+00
        -11   -1    0    0    0    0  0.00000000000E+00  0.00000000000E+00  0.45593999997E+02  0.45594000000E+02  0.51100000000E-03 0.  1.
         11   -1    0    0    0    0 -0.00000000000E+00 -0.00000000000E+00 -0.45593999997E+02  0.45594000000E+02  0.51100000000E-03 0. -1.
    9900012    2    1    2    0    0 -0.43233440291E+02 -0.31370413010E+00 -0.37940023113E+01  0.47787271629E+02  0.20000002663E+02 0.  0.
        -12    1    1    2    0    0  0.43233440291E+02  0.31370413010E+00  0.37940023113E+01  0.43400728371E+02  0.00000000000E+00 0.  1.
         11    1    3    3    0    0 -0.89804308640E+01 -0.57968390233E+01  0.14508771948E+01  0.10786868223E+02  0.51100000000E-03 0. -1.
        -11    1    3    3    0    0 -0.99778853461E+01 -0.37438024401E+01 -0.15652363039E+01  0.10771453831E+02  0.51100000000E-03 0.  1.
         12    1    3    3    0    0 -0.24275124080E+02  0.92269373333E+01 -0.36796432022E+01  0.26228949574E+02  0.00000000000E+00 0. -1.
</event>
<event>
 7    1  0.3742599E-009  0.4778728E+02  0.7816164E-02  0.1312668E+00
        -11   -1    0    0    0    0  0.00000000000E+00  0.00000000000E+00  0.45593999997E+02  0.45594000000E+02  0.51100000000E-03 0. -1.
         11   -1    0    0    0    0 -0.00000000000E+00 -0.00000000000E+00 -0.45593999997E+02  0.45594000000E+02  0.51100000000E-03 0.  1.
    9900012    2    1    2    0    0  0.80115264880E+01  0.41422112495E+02  0.10180705793E+02  0.47787277302E+02  0.20000028533E+02 0.  0.
        -12    1    1    2    0    0 -0.80115264880E+01 -0.41422112495E+02 -0.10180705793E+02  0.43400722698E+02  0.00000000000E+00 0.  1.
         11    1    3    3    0    0  0.17225308944E+01 -0.16463724710E+00  0.37700960047E+01  0.41482336303E+01  0.51100000000E-03 0. -1.
        -11    1    3    3    0    0  0.45673084071E+01  0.18054178849E+02  0.73597959731E+01  0.20024491929E+02  0.51100000000E-03 0.  1.
        -12    1    3    3    0    0  0.17216871865E+01  0.23532570893E+02 -0.94918618467E+00  0.23614551743E+02  0.00000000000E+00 0.  1.
</event>
<event>
 7    1  0.3742599E-009  0.4778726E+02  0.7816164E-02  0.1312668E+00
        -11   -1    0    0    0    0  0.00000000000E+00  0.00000000000E+00  0.45593999997E+02  0.45594000000E+02  0.51100000000E-03 0. -1.
         11   -1    0    0    0    0 -0.00000000000E+00 -0.00000000000E+00 -0.45593999997E+02  0.45594000000E+02  0.51100000000E-03 0.  1.
    9900012    2    1    2    0    0  0.38941166805E+02  0.12566077750E+02  0.14467326303E+02  0.47787259078E+02  0.19999945442E+02 0.  0.
        -12    1    1    2    0    0 -0.38941166805E+02 -0.12566077750E+02 -0.14467326303E+02  0.43400740922E+02  0.00000000000E+00 0.  1.
         11    1    3    3    0    0  0.91817164899E+01  0.40004317944E+01  0.55995798087E+01  0.11474435347E+02  0.51100000000E-03 0. -1.
        -11    1    3    3    0    0  0.86897128276E+00  0.51641196219E+01 -0.14722943685E+01  0.54397512377E+01  0.51100000000E-03 0.  1.
        -12    1    3    3    0    0  0.28890479033E+02  0.34015263337E+01  0.10340040863E+02  0.30873072493E+02  0.00000000000E+00 0.  1.
</event>
<event>
 7    1  0.3742599E-009  0.4778727E+02  0.7816164E-02  0.1312668E+00
        -11   -1    0    0    0    0  0.00000000000E+00  0.00000000000E+00  0.45593999997E+02  0.45594000000E+02  0.51100000000E-03 0.  1.
         11   -1    0    0    0    0 -0.00000000000E+00 -0.00000000000E+00 -0.45593999997E+02  0.45594000000E+02  0.51100000000E-03 0. -1.
    9900012    2    1    2    0    0 -0.21527044547E+02  0.30225639035E+02 -0.22508230879E+02  0.47787270060E+02  0.19999995512E+02 0.  0.
        -12    1    1    2    0    0  0.21527044547E+02 -0.30225639035E+02  0.22508230879E+02  0.43400729940E+02  0.00000000000E+00 0.  1.
         11    1    3    3    0    0 -0.11525151377E+02  0.10104607994E+02 -0.11728915242E+02  0.19300250516E+02  0.51100000000E-03 0. -1.
        -11    1    3    3    0    0 -0.22511261078E+01 -0.19121498140E+01 -0.62775388296E+00  0.30195961424E+01  0.51100000000E-03 0.  1.
        -12    1    3    3    0    0 -0.77507670625E+01  0.22033180855E+02 -0.10151561754E+02  0.25467423401E+02  0.00000000000E+00 0.  1.
</event>
<event>
 7    1  0.3742599E-009  0.4778727E+02  0.7816164E-02  0.1312668E+00
        -11   -1    0    0    0    0  0.00000000000E+00  0.00000000000E+00  0.45593999997E+02  0.45594000000E+02  0.51100000000E-03 0. -1.
         11   -1    0    0    0    0 -0.00000000000E+00 -0.00000000000E+00 -0.45593999997E+02  0.45594000000E+02  0.51100000000E-03 0.  1.
    9900012    2    1    2    0    0  0.68574074385E+00 -0.43395135639E+02  0.12350866263E+00  0.47787270837E+02  0.19999999052E+02 0.  0.
        -12    1    1    2    0    0 -0.68574074385E+00  0.43395135639E+02 -0.12350866263E+00  0.43400729163E+02  0.00000000000E+00 0.  1.
         11    1    3    3    0    0  0.15799332165E+01 -0.42738022662E+02  0.40482519464E+01  0.42958388169E+02  0.51100000000E-03 0. -1.
        -11    1    3    3    0    0  0.70502886214E+00  0.29716310482E+00 -0.45287345826E+00  0.88908168221E+00  0.51100000000E-03 0.  1.
         12    1    3    3    0    0 -0.15992213348E+01 -0.95427608275E+00 -0.34718698255E+01  0.39398009854E+01  0.00000000000E+00 0. -1.
</event>
<event>
 7    1  0.3742599E-009  0.4778727E+02  0.7816164E-02  0.1312668E+00
        -11   -1    0    0    0    0  0.00000000000E+00  0.00000000000E+00  0.45593999997E+02  0.45594000000E+02  0.51100000000E-03 0.  1.
         11   -1    0    0    0    0 -0.00000000000E+00 -0.00000000000E+00 -0.45593999997E+02  0.45594000000E+02  0.51100000000E-03 0. -1.
    9900012    2    1    2    0    0 -0.17718217874E+02  0.16459887508E+02 -0.36038314063E+02  0.47787271643E+02  0.20000002729E+02 0.  0.
        -12    1    1    2    0    0  0.17718217874E+02 -0.16459887508E+02  0.36038314063E+02  0.43400728357E+02  0.00000000000E+00 0.  1.
         11    1    3    3    0    0 -0.10144635708E+02  0.21219577718E+01 -0.21743182524E+02  0.24086974177E+02  0.51100000000E-03 0. -1.
        -11    1    3    3    0    0 -0.36645408098E-01 -0.14280227544E+01 -0.10378123891E+01  0.17656858976E+01  0.51100000000E-03 0.  1.
        -12    1    3    3    0    0 -0.75369367572E+01  0.15765952491E+02 -0.13257319150E+02  0.21934611569E+02  0.00000000000E+00 0.  1.
</event>
<event>
 7    1  0.3742599E-009  0.4778728E+02  0.7816164E-02  0.1312668E+00
        -11   -1    0    0    0    0  0.00000000000E+00  0.00000000000E+00  0.45593999997E+02  0.45594000000E+02  0.51100000000E-03 0.  1.
         11   -1    0    0    0    0 -0.00000000000E+00 -0.00000000000E+00 -0.45593999997E+02  0.45594000000E+02  0.51100000000E-03 0. -1.
    9900012    2    1    2    0    0 -0.74430861887E+01 -0.10972245647E+02 -0.41325934002E+02  0.47787279641E+02  0.20000039196E+02 0.  0.
        -12    1    1    2    0    0  0.74430861887E+01  0.10972245647E+02  0.41325934002E+02  0.43400720359E+02  0.00000000000E+00 0.  1.
         11    1    3    3    0    0 -0.50931099618E+01 -0.42578010923E+01 -0.61869480114E+01  0.90745228625E+01  0.51100000000E-03 0. -1.
        -11    1    3    3    0    0 -0.22096445286E+01 -0.55401509220E+01 -0.32321214048E+01  0.67839818851E+01  0.51100000000E-03 0.  1.
         12    1    3    3    0    0 -0.14033169832E+00 -0.11742936329E+01 -0.31906864586E+02  0.31928774893E+02  0.00000000000E+00 0. -1.
</event>
<event>
 7    1  0.3742599E-009  0.4778727E+02  0.7816164E-02  0.1312668E+00
        -11   -1    0    0    0    0  0.00000000000E+00  0.00000000000E+00  0.45593999997E+02  0.45594000000E+02  0.51100000000E-03 0.  1.
         11   -1    0    0    0    0 -0.00000000000E+00 -0.00000000000E+00 -0.45593999997E+02  0.45594000000E+02  0.51100000000E-03 0. -1.
    9900012    2    1    2    0    0 -0.21816544275E+01  0.39614328384E+02 -0.17594562387E+02  0.47787271262E+02  0.20000000994E+02 0.  0.
        -12    1    1    2    0    0  0.21816544275E+01 -0.39614328384E+02  0.17594562387E+02  0.43400728738E+02  0.00000000000E+00 0.  1.
         11    1    3    3    0    0 -0.85508038306E+00  0.12030524438E+02  0.16255970530E+01  0.12169932077E+02  0.51100000000E-03 0. -1.
        -11    1    3    3    0    0  0.68895678272E+00 -0.62392027954E+00  0.57955513785E+00  0.10953640411E+01  0.51100000000E-03 0.  1.
        -12    1    3    3    0    0 -0.20155308271E+01  0.28207724225E+02 -0.19799714578E+02  0.34521975144E+02  0.00000000000E+00 0.  1.
</event>
<event>
 7    1  0.3742599E-009  0.4778727E+02  0.7816164E-02  0.1312668E+00
        -11   -1    0    0    0    0  0.00000000000E+00  0.00000000000E+00  0.45593999997E+02  0.45594000000E+02  0.51100000000E-03 0.  1.
         11   -1    0    0    0    0 -0.00000000000E+00 -0.00000000000E+00 -0.45593999997E+02  0.45594000000E+02  0.51100000000E-03 0. -1.
    9900012    2    1    2    0    0 -0.11203195198E+01 -0.24460442826E+02 -0.35833713024E+02  0.47787269958E+02  0.19999995046E+02 0.  0.
        -12    1    1    2    0    0  0.11203195198E+01  0.24460442826E+02  0.35833713024E+02  0.43400730042E+02  0.00000000000E+00 0.  1.
         11    1    3    3    0    0 -0.71720672887E+01 -0.13685110559E+02 -0.16963639399E+02  0.22945279735E+02  0.51100000000E-03 0. -1.
        -11    1    3    3    0    0 -0.17225157384E+01 -0.13077231005E+01  0.20448366922E+00  0.21723291667E+01  0.51100000000E-03 0.  1.
        -12    1    3    3    0    0  0.77742635073E+01 -0.94676091670E+01 -0.19074557294E+02  0.22669661056E+02  0.00000000000E+00 0.  1.
</event>
<event>
 7    1  0.3742599E-009  0.4778727E+02  0.7816164E-02  0.1312668E+00
        -11   -1    0    0    0    0  0.00000000000E+00  0.00000000000E+00  0.45593999997E+02  0.45594000000E+02  0.51100000000E-03 0. -1.
         11   -1    0    0    0    0 -0.00000000000E+00 -0.00000000000E+00 -0.45593999997E+02  0.45594000000E+02  0.51100000000E-03 0.  1.
    9900012    2    1    2    0    0 -0.18319977037E+02 -0.11650774337E+02  0.37580063122E+02  0.47787271371E+02  0.20000001488E+02 0.  0.
        -12    1    1    2    0    0  0.18319977037E+02  0.11650774337E+02 -0.37580063122E+02  0.43400728629E+02  0.00000000000E+00 0.  1.
         11    1    3    3    0    0 -0.11867715063E+02 -0.78928456250E+01  0.17160290195E+02  0.22307291022E+02  0.51100000000E-03 0. -1.
        -11    1    3    3    0    0 -0.88671670509E+01 -0.35442752979E+01  0.69927289212E+01  0.11835826837E+02  0.51100000000E-03 0.  1.
         12    1    3    3    0    0  0.24149050775E+01 -0.21365341386E+00  0.13427044006E+02  0.13644153512E+02  0.00000000000E+00 0. -1.
</event>
<event>
 7    1  0.3742599E-009  0.4778727E+02  0.7816164E-02  0.1312668E+00
        -11   -1    0    0    0    0  0.00000000000E+00  0.00000000000E+00  0.45593999997E+02  0.45594000000E+02  0.51100000000E-03 0.  1.
         11   -1    0    0    0    0 -0.00000000000E+00 -0.00000000000E+00 -0.45593999997E+02  0.45594000000E+02  0.51100000000E-03 0. -1.
    9900012    2    1    2    0    0  0.31670324473E+02  0.20795205394E+02 -0.21170098936E+02  0.47787272949E+02  0.20000008683E+02 0.  0.
        -12    1    1    2    0    0 -0.31670324473E+02 -0.20795205394E+02  0.21170098936E+02  0.43400727051E+02  0.00000000000E+00 0.  1.
         11    1    3    3    0    0  0.12192785929E+02  0.10249446767E+02 -0.10637004440E+02  0.19153617190E+02  0.51100000000E-03 0. -1.
        -11    1    3    3    0    0  0.10910282317E+02  0.11472355886E+02 -0.11193812259E+01  0.15871427926E+02  0.51100000000E-03 0.  1.
         12    1    3    3    0    0  0.85672562265E+01 -0.92659725877E+00 -0.94137132706E+01  0.12762227833E+02  0.00000000000E+00 0. -1.
</event>
<event>
 7    1  0.3742599E-009  0.4778728E+02  0.7816164E-02  0.1312668E+00
        -11   -1    0    0    0    0  0.00000000000E+00  0.00000000000E+00  0.45593999997E+02  0.45594000000E+02  0.51100000000E-03 0. -1.
         11   -1    0    0    0    0 -0.00000000000E+00 -0.00000000000E+00 -0.45593999997E+02  0.45594000000E+02  0.51100000000E-03 0.  1.
    9900012    2    1    2    0    0  0.34608773942E+01 -0.13160304303E+02  0.41212272060E+02  0.47787278232E+02  0.20000032770E+02 0.  0.
        -12    1    1    2    0    0 -0.34608773942E+01  0.13160304303E+02 -0.41212272060E+02  0.43400721768E+02  0.00000000000E+00 0.  1.
         11    1    3    3    0    0 -0.57436774664E+01 -0.62203595396E+01  0.10110638364E+02  0.13187407328E+02  0.51100000000E-03 0. -1.
        -11    1    3    3    0    0  0.93509388589E+00 -0.67692088390E+01  0.12605992050E+02  0.14339024538E+02  0.51100000000E-03 0.  1.
        -12    1    3    3    0    0  0.82694609748E+01 -0.17073592418E+00  0.18495641646E+02  0.20260846366E+02  0.00000000000E+00 0.  1.
</event>
<event>
 7    1  0.3742599E-009  0.4778727E+02  0.7816164E-02  0.1312668E+00
        -11   -1    0    0    0    0  0.00000000000E+00  0.00000000000E+00  0.45593999997E+02  0.45594000000E+02  0.51100000000E-03 0.  1.
         11   -1    0    0    0    0 -0.00000000000E+00 -0.00000000000E+00 -0.45593999997E+02  0.45594000000E+02  0.51100000000E-03 0. -1.
    9900012    2    1    2    0    0 -0.33392608247E+02 -0.25934551929E+02 -0.97957090727E+01  0.47787272062E+02  0.20000004638E+02 0.  0.
        -12    1    1    2    0    0  0.33392608247E+02  0.25934551929E+02  0.97957090727E+01  0.43400727938E+02  0.00000000000E+00 0.  1.
         11    1    3    3    0    0 -0.60430084836E+01 -0.14849442883E+02  0.47113452208E+00  0.16038886291E+02  0.51100000000E-03 0. -1.
        -11    1    3    3    0    0 -0.60510961336E+01 -0.84737995064E+00 -0.34852236733E+00  0.61200723281E+01  0.51100000000E-03 0.  1.
         12    1    3    3    0    0 -0.21298503630E+02 -0.10237729096E+02 -0.99183212274E+01  0.25628313442E+02  0.00000000000E+00 0. -1.
</event>
<event>
 7    1  0.3742599E-009  0.4778727E+02  0.7816164E-02  0.1312668E+00
        -11   -1    0    0    0    0  0.00000000000E+00  0.00000000000E+00  0.45593999997E+02  0.45594000000E+02  0.51100000000E-03 0.  1.
         11   -1    0    0    0    0 -0.00000000000E+00 -0.00000000000E+00 -0.45593999997E+02  0.45594000000E+02  0.51100000000E-03 0. -1.
    9900012    2    1    2    0    0  0.17483925194E+02 -0.27915542774E+02 -0.28260543833E+02  0.47787268367E+02  0.19999987791E+02 0.  0.
        -12    1    1    2    0    0 -0.17483925194E+02  0.27915542774E+02  0.28260543833E+02  0.43400731633E+02  0.00000000000E+00 0.  1.
         11    1    3    3    0    0  0.46394015023E+00 -0.14556102373E+02 -0.15904013529E+02  0.21564623887E+02  0.51100000000E-03 0. -1.
        -11    1    3    3    0    0  0.22473939195E+00 -0.24958491081E+01  0.34293828223E+00  0.25293037562E+01  0.51100000000E-03 0.  1.
        -12    1    3    3    0    0  0.16795245652E+02 -0.10863591293E+02 -0.12699468586E+02  0.23693340724E+02  0.00000000000E+00 0.  1.
</event>
<event>
 7    1  0.3742599E-009  0.4778728E+02  0.7816164E-02  0.1312668E+00
        -11   -1    0    0    0    0  0.00000000000E+00  0.00000000000E+00  0.45593999997E+02  0.45594000000E+02  0.51100000000E-03 0. -1.
         11   -1    0    0    0    0 -0.00000000000E+00 -0.00000000000E+00 -0.45593999997E+02  0.45594000000E+02  0.51100000000E-03 0.  1.
    9900012    2    1    2    0    0 -0.13174665854E+02 -0.28102519530E+02  0.30336428873E+02  0.47787281791E+02  0.20000048997E+02 0.  0.
        -12    1    1    2    0    0  0.13174665854E+02  0.28102519530E+02 -0.30336428873E+02  0.43400718209E+02  0.00000000000E+00 0.  1.
         11    1    3    3    0    0 -0.25636112255E+01 -0.37345874809E+01  0.52089488984E+01  0.69030714219E+01  0.51100000000E-03 0. -1.
        -11    1    3    3    0    0 -0.64661845387E+01 -0.88684264639E+01 -0.11305136673E+00  0.10976033496E+02  0.51100000000E-03 0.  1.
        -12    1    3    3    0    0 -0.41448700897E+01 -0.15499505585E+02  0.25240531342E+02  0.29908176873E+02  0.00000000000E+00 0.  1.
</event>
<event>
 7    1  0.3742599E-009  0.4778727E+02  0.7816164E-02  0.1312668E+00
        -11   -1    0    0    0    0  0.00000000000E+00  0.00000000000E+00  0.45593999997E+02  0.45594000000E+02  0.51100000000E-03 0.  1.
         11   -1    0    0    0    0 -0.00000000000E+00 -0.00000000000E+00 -0.45593999997E+02  0.45594000000E+02  0.51100000000E-03 0. -1.
    9900012    2    1    2    0    0 -0.21645628768E+02 -0.10649059968E+02 -0.36078907440E+02  0.47787270916E+02  0.19999999416E+02 0.  0.
        -12    1    1    2    0    0  0.21645628768E+02  0.10649059968E+02  0.36078907440E+02  0.43400729084E+02  0.00000000000E+00 0.  1.
         11    1    3    3    0    0 -0.96512227086E+00 -0.18952801286E+01 -0.22723481946E+01  0.31124129453E+01  0.51100000000E-03 0. -1.
        -11    1    3    3    0    0  0.34842908973E-01  0.35345373401E+01 -0.10811647259E+02  0.11374791644E+02  0.51100000000E-03 0.  1.
        -12    1    3    3    0    0 -0.20715349406E+02 -0.12288317180E+02 -0.22994911987E+02  0.33300066327E+02  0.00000000000E+00 0.  1.
</event>
<event>
 7    1  0.3742599E-009  0.4778727E+02  0.7816164E-02  0.1312668E+00
        -11   -1    0    0    0    0  0.00000000000E+00  0.00000000000E+00  0.45593999997E+02  0.45594000000E+02  0.51100000000E-03 0.  1.
         11   -1    0    0    0    0 -0.00000000000E+00 -0.00000000000E+00 -0.45593999997E+02  0.45594000000E+02  0.51100000000E-03 0. -1.
    9900012    2    1    2    0    0 -0.14623106374E+02  0.35590299320E+02 -0.20077815540E+02  0.47787270483E+02  0.19999997442E+02 0.  0.
        -12    1    1    2    0    0  0.14623106374E+02 -0.35590299320E+02  0.20077815540E+02  0.43400729517E+02  0.00000000000E+00 0.  1.
         11    1    3    3    0    0 -0.10288630148E+02  0.13760312897E+02 -0.65155178142E+01  0.18375366499E+02  0.51100000000E-03 0. -1.
        -11    1    3    3    0    0 -0.24443133530E+01 -0.96493330688E+00  0.33294736120E+00  0.26488900054E+01  0.51100000000E-03 0.  1.
         12    1    3    3    0    0 -0.18901628729E+01  0.22794919730E+02 -0.13895245087E+02  0.26763013979E+02  0.00000000000E+00 0. -1.
</event>
<event>
 7    1  0.3742599E-009  0.4778728E+02  0.7816164E-02  0.1312668E+00
        -11   -1    0    0    0    0  0.00000000000E+00  0.00000000000E+00  0.45593999997E+02  0.45594000000E+02  0.51100000000E-03 0.  1.
         11   -1    0    0    0    0 -0.00000000000E+00 -0.00000000000E+00 -0.45593999997E+02  0.45594000000E+02  0.51100000000E-03 0. -1.
    9900012    2    1    2    0    0  0.11804552548E+02  0.18281963117E+02 -0.37550564400E+02  0.47787279694E+02  0.20000039436E+02 0.  0.
        -12    1    1    2    0    0 -0.11804552548E+02 -0.18281963117E+02  0.37550564400E+02  0.43400720306E+02  0.00000000000E+00 0.  1.
         11    1    3    3    0    0  0.94750050513E+01  0.15183092727E+01 -0.11752934553E+02  0.15172753693E+02  0.51100000000E-03 0. -1.
        -11    1    3    3    0    0 -0.15304800950E+01 -0.84308087818E+00 -0.37458118067E+01  0.41333111474E+01  0.51100000000E-03 0.  1.
         12    1    3    3    0    0  0.38600275922E+01  0.17606734723E+02 -0.22051818041E+02  0.28481214853E+02  0.00000000000E+00 0. -1.
</event>
<event>
 7    1  0.3742599E-009  0.4778726E+02  0.7816164E-02  0.1312668E+00
        -11   -1    0    0    0    0  0.00000000000E+00  0.00000000000E+00  0.45593999997E+02  0.45594000000E+02  0.51100000000E-03 0.  1.
         11   -1    0    0    0    0 -0.00000000000E+00 -0.00000000000E+00 -0.45593999997E+02  0.45594000000E+02  0.51100000000E-03 0. -1.
    9900012    2    1    2    0    0 -0.39572093980E+02  0.17789388143E+02 -0.11004971746E+01  0.47787262144E+02  0.19999959418E+02 0.  0.
        -12    1    1    2    0    0  0.39572093980E+02 -0.17789388143E+02  0.11004971746E+01  0.43400737856E+02  0.00000000000E+00 0.  1.
         11    1    3    3    0    0 -0.96370501563E+00  0.45346853488E+00  0.30342152380E+01  0.32157150746E+01  0.51100000000E-03 0. -1.
        -11    1    3    3    0    0 -0.72435108310E+01  0.76782032007E+01  0.30268959341E+01  0.10981136226E+02  0.51100000000E-03 0.  1.
         12    1    3    3    0    0 -0.31364878133E+02  0.96577164078E+01 -0.71616083468E+01  0.33590410843E+02  0.00000000000E+00 0. -1.
</event>
<event>
 7    1  0.3742599E-009  0.4778726E+02  0.7816164E-02  0.1312668E+00
        -11   -1    0    0    0    0  0.00000000000E+00  0.00000000000E+00  0.45593999997E+02  0.45594000000E+02  0.51100000000E-03 0.  1.
         11   -1    0    0    0    0 -0.00000000000E+00 -0.00000000000E+00 -0.45593999997E+02  0.45594000000E+02  0.51100000000E-03 0. -1.
    9900012    2    1    2    0    0 -0.19211764417E+00  0.16845156112E+02 -0.39997845738E+02  0.47787264323E+02  0.19999969356E+02 0.  0.
        -12    1    1    2    0    0  0.19211764417E+00 -0.16845156112E+02  0.39997845738E+02  0.43400735677E+02  0.00000000000E+00 0.  1.
         11    1    3    3    0    0 -0.50791775765E+01  0.31188081033E+01 -0.92073675565E+01  0.10968164223E+02  0.51100000000E-03 0. -1.
        -11    1    3    3    0    0 -0.88730052821E+00  0.13356102757E+02 -0.15552819969E+02  0.20519819501E+02  0.51100000000E-03 0.  1.
         12    1    3    3    0    0  0.57743604605E+01  0.37024525071E+00 -0.15237658212E+02  0.16299280600E+02  0.00000000000E+00 0. -1.
</event>
<event>
 7    1  0.3742599E-009  0.4778726E+02  0.7816164E-02  0.1312668E+00
        -11   -1    0    0    0    0  0.00000000000E+00  0.00000000000E+00  0.45593999997E+02  0.45594000000E+02  0.51100000000E-03 0.  1.
         11   -1    0    0    0    0 -0.00000000000E+00 -0.00000000000E+00 -0.45593999997E+02  0.45594000000E+02  0.51100000000E-03 0. -1.
    9900012    2    1    2    0    0  0.17688406030E+02  0.19027547916E+02 -0.34766323320E+02  0.47787256633E+02  0.19999934293E+02 0.  0.
        -12    1    1    2    0    0 -0.17688406030E+02 -0.19027547916E+02  0.34766323320E+02  0.43400743367E+02  0.00000000000E+00 0.  1.
         11    1    3    3    0    0  0.39262536986E+01  0.19545865571E+01 -0.16733935075E+02  0.17299146224E+02  0.51100000000E-03 0. -1.
        -11    1    3    3    0    0 -0.10706483555E+01  0.15400382588E+00  0.63323738928E+00  0.12533933668E+01  0.51100000000E-03 0.  1.
         12    1    3    3    0    0  0.14832800687E+02  0.16918957534E+02 -0.18665625634E+02  0.29234717042E+02  0.00000000000E+00 0. -1.
</event>
<event>
 7    1  0.3742599E-009  0.4778728E+02  0.7816164E-02  0.1312668E+00
        -11   -1    0    0    0    0  0.00000000000E+00  0.00000000000E+00  0.45593999997E+02  0.45594000000E+02  0.51100000000E-03 0.  1.
         11   -1    0    0    0    0 -0.00000000000E+00 -0.00000000000E+00 -0.45593999997E+02  0.45594000000E+02  0.51100000000E-03 0. -1.
    9900012    2    1    2    0    0  0.52528532320E+01  0.38954618096E+02 -0.18400216711E+02  0.47787277505E+02  0.20000029455E+02 0.  0.
        -12    1    1    2    0    0 -0.52528532320E+01 -0.38954618096E+02  0.18400216711E+02  0.43400722495E+02  0.00000000000E+00 0.  1.
         11    1    3    3    0    0 -0.78573612080E+00  0.30665863459E+01 -0.18972345114E+01  0.36906411530E+01  0.51100000000E-03 0. -1.
        -11    1    3    3    0    0  0.12424515695E+02  0.22240006317E+02 -0.13112467895E+02  0.28651758860E+02  0.51100000000E-03 0.  1.
        -12    1    3    3    0    0 -0.63859263419E+01  0.13648025433E+02 -0.33905143051E+01  0.15444877492E+02  0.00000000000E+00 0.  1.
</event>
<event>
 7    1  0.3742599E-009  0.4778727E+02  0.7816164E-02  0.1312668E+00
        -11   -1    0    0    0    0  0.00000000000E+00  0.00000000000E+00  0.45593999997E+02  0.45594000000E+02  0.51100000000E-03 0.  1.
         11   -1    0    0    0    0 -0.00000000000E+00 -0.00000000000E+00 -0.45593999997E+02  0.45594000000E+02  0.51100000000E-03 0. -1.
    9900012    2    1    2    0    0 -0.34312350133E+02 -0.14144661229E+02 -0.22499215728E+02  0.47787268194E+02  0.19999987003E+02 0.  0.
        -12    1    1    2    0    0  0.34312350133E+02  0.14144661229E+02  0.22499215728E+02  0.43400731806E+02  0.00000000000E+00 0.  1.
         11    1    3    3    0    0  0.11512448562E+00  0.20803464597E+01  0.51518626950E+00  0.21462786848E+01  0.51100000000E-03 0. -1.
        -11    1    3    3    0    0 -0.27645477865E+01 -0.47435397359E+01 -0.50958485110E+01  0.74907653813E+01  0.51100000000E-03 0.  1.
         12    1    3    3    0    0 -0.31662926832E+02 -0.11481467953E+02 -0.17918553487E+02  0.38150224128E+02  0.00000000000E+00 0. -1.
</event>
<event>
 7    1  0.7961530E-009  0.4778729E+02  0.7816164E-02  0.1312668E+00
        -11   -1    0    0    0    0  0.00000000000E+00  0.00000000000E+00  0.45593999997E+02  0.45594000000E+02  0.51100000000E-03 0. -1.
         11   -1    0    0    0    0 -0.00000000000E+00 -0.00000000000E+00 -0.45593999997E+02  0.45594000000E+02  0.51100000000E-03 0.  1.
    9900012    2    1    2    0    0  0.27970048623E+02 -0.12429776778E+02  0.30770099028E+02  0.47787286124E+02  0.20000068753E+02 0.  0.
        -12    1    1    2    0    0 -0.27970048623E+02  0.12429776778E+02 -0.30770099028E+02  0.43400713876E+02  0.00000000000E+00 0.  1.
         11    1    3    3    0    0  0.19901543271E+02 -0.13527174137E+02  0.22225406049E+02  0.32757053272E+02  0.51100000000E-03 0. -1.
        -11    1    3    3    0    0  0.83623438110E+01 -0.12206210203E+01  0.29228117526E+01  0.89421215878E+01  0.51100000000E-03 0.  1.
         12    1    3    3    0    0 -0.29383845878E+00  0.23180183791E+01  0.56218812263E+01  0.60881112645E+01  0.00000000000E+00 0. -1.
</event>
<event>
 7    1  0.3742599E-009  0.4778728E+02  0.7816164E-02  0.1312668E+00
        -11   -1    0    0    0    0  0.00000000000E+00  0.00000000000E+00  0.45593999997E+02  0.45594000000E+02  0.51100000000E-03 0. -1.
         11   -1    0    0    0    0 -0.00000000000E+00 -0.00000000000E+00 -0.45593999997E+02  0.45594000000E+02  0.51100000000E-03 0.  1.
    9900012    2    1    2    0    0  0.41682046902E+02  0.11439257325E+02 -0.39207887832E+01  0.47787283107E+02  0.20000054999E+02 0.  0.
        -12    1    1    2    0    0 -0.41682046902E+02 -0.11439257325E+02  0.39207887832E+01  0.43400716893E+02  0.00000000000E+00 0.  1.
         11    1    3    3    0    0  0.21672710591E+02  0.46846039145E+01  0.23884747491E+01  0.22301495691E+02  0.51100000000E-03 0. -1.
        -11    1    3    3    0    0  0.15878138207E+02 -0.98655521079E+00 -0.43978242864E+01  0.16505436159E+02  0.51100000000E-03 0.  1.
        -12    1    3    3    0    0  0.41311981051E+01  0.77412086213E+01 -0.19114392459E+01  0.89803512567E+01  0.00000000000E+00 0.  1.
</event>
<event>
 7    1  0.3742599E-009  0.4778727E+02  0.7816164E-02  0.1312668E+00
        -11   -1    0    0    0    0  0.00000000000E+00  0.00000000000E+00  0.45593999997E+02  0.45594000000E+02  0.51100000000E-03 0. -1.
         11   -1    0    0    0    0 -0.00000000000E+00 -0.00000000000E+00 -0.45593999997E+02  0.45594000000E+02  0.51100000000E-03 0.  1.
    9900012    2    1    2    0    0 -0.33323220605E+02  0.64745942292E+01  0.27041927528E+02  0.47787271362E+02  0.20000001446E+02 0.  0.
        -12    1    1    2    0    0  0.33323220605E+02 -0.64745942292E+01 -0.27041927528E+02  0.43400728638E+02  0.00000000000E+00 0.  1.
         11    1    3    3    0    0 -0.72345209037E+01 -0.34182496672E+01  0.35532392541E+00  0.80093057655E+01  0.51100000000E-03 0. -1.
        -11    1    3    3    0    0 -0.68045938116E+00  0.84086548248E+00  0.51493375148E+01  0.52617256515E+01  0.51100000000E-03 0.  1.
        -12    1    3    3    0    0 -0.25408240320E+02  0.90519784139E+01  0.21537266088E+02  0.34516239944E+02  0.00000000000E+00 0.  1.
</event>
<event>
 7    1  0.3742599E-009  0.4778727E+02  0.7816164E-02  0.1312668E+00
        -11   -1    0    0    0    0  0.00000000000E+00  0.00000000000E+00  0.45593999997E+02  0.45594000000E+02  0.51100000000E-03 0.  1.
         11   -1    0    0    0    0 -0.00000000000E+00 -0.00000000000E+00 -0.45593999997E+02  0.45594000000E+02  0.51100000000E-03 0. -1.
    9900012    2    1    2    0    0  0.13956763528E+02 -0.41041974571E+02 -0.20948548556E+01  0.47787270262E+02  0.19999996435E+02 0.  0.
        -12    1    1    2    0    0 -0.13956763528E+02  0.41041974571E+02  0.20948548556E+01  0.43400729738E+02  0.00000000000E+00 0.  1.
         11    1    3    3    0    0  0.32496096981E+01 -0.36795525158E+01  0.36271076794E+01  0.61036857951E+01  0.51100000000E-03 0. -1.
        -11    1    3    3    0    0  0.75225442754E+00 -0.10700989229E+02  0.42344978974E+01  0.11532910730E+02  0.51100000000E-03 0.  1.
         12    1    3    3    0    0  0.99548994025E+01 -0.26661432826E+02 -0.99564604324E+01  0.30150673737E+02  0.00000000000E+00 0. -1.
</event>
<event>
 7    1  0.3742599E-009  0.4778727E+02  0.7816164E-02  0.1312668E+00
        -11   -1    0    0    0    0  0.00000000000E+00  0.00000000000E+00  0.45593999997E+02  0.45594000000E+02  0.51100000000E-03 0.  1.
         11   -1    0    0    0    0 -0.00000000000E+00 -0.00000000000E+00 -0.45593999997E+02  0.45594000000E+02  0.51100000000E-03 0. -1.
    9900012    2    1    2    0    0 -0.60521645738E+01  0.41889365927E+02 -0.96060337965E+01  0.47787267758E+02  0.19999985017E+02 0.  0.
        -12    1    1    2    0    0  0.60521645738E+01 -0.41889365927E+02  0.96060337965E+01  0.43400732242E+02  0.00000000000E+00 0.  1.
         11    1    3    3    0    0 -0.21933121983E+01  0.65982914347E+01 -0.55066827457E+01  0.88697025531E+01  0.51100000000E-03 0. -1.
        -11    1    3    3    0    0  0.30484792090E+01  0.34837681864E+00 -0.60822469079E+00  0.31280232466E+01  0.51100000000E-03 0.  1.
        -12    1    3    3    0    0 -0.69073315845E+01  0.34942697674E+02 -0.34911263600E+01  0.35789541959E+02  0.00000000000E+00 0.  1.
</event>
<event>
 7    1  0.4585043E-009  0.4778726E+02  0.7816164E-02  0.1312668E+00
        -11   -1    0    0    0    0  0.00000000000E+00  0.00000000000E+00  0.45593999997E+02  0.45594000000E+02  0.51100000000E-03 0.  1.
         11   -1    0    0    0    0 -0.00000000000E+00 -0.00000000000E+00 -0.45593999997E+02  0.45594000000E+02  0.51100000000E-03 0. -1.
    9900012    2    1    2    0    0  0.10354529756E+02  0.38620877179E+02 -0.16877069266E+02  0.47787263744E+02  0.19999966714E+02 0.  0.
        -12    1    1    2    0    0 -0.10354529756E+02 -0.38620877179E+02  0.16877069266E+02  0.43400736256E+02  0.00000000000E+00 0.  1.
         11    1    3    3    0    0 -0.19245832278E+01  0.13420465592E+02 -0.97240582935E+01  0.16684430685E+02  0.51100000000E-03 0. -1.
        -11    1    3    3    0    0  0.83000960163E+01  0.18030663444E+02 -0.10247511474E+02  0.22338484948E+02  0.51100000000E-03 0.  1.
        -12    1    3    3    0    0  0.39790169672E+01  0.71697481429E+01  0.30945005013E+01  0.87643481110E+01  0.00000000000E+00 0.  1.
</event>
<event>
 7    1  0.3742599E-009  0.4778731E+02  0.7816164E-02  0.1312668E+00
        -11   -1    0    0    0    0  0.00000000000E+00  0.00000000000E+00  0.45593999997E+02  0.45594000000E+02  0.51100000000E-03 0.  1.
         11   -1    0    0    0    0 -0.00000000000E+00 -0.00000000000E+00 -0.45593999997E+02  0.45594000000E+02  0.51100000000E-03 0. -1.
    9900012    2    1    2    0    0  0.87301092973E+01 -0.24403435297E+02 -0.34812023787E+02  0.47787314951E+02  0.20000200184E+02 0.  0.
        -12    1    1    2    0    0 -0.87301092973E+01  0.24403435297E+02  0.34812023787E+02  0.43400685049E+02  0.00000000000E+00 0.  1.
         11    1    3    3    0    0  0.28829484526E+01 -0.23387658515E+02 -0.27067187759E+02  0.35887694494E+02  0.51100000000E-03 0. -1.
        -11    1    3    3    0    0 -0.75019893996E+00 -0.22043823789E+01 -0.21118672959E+01  0.31435781935E+01  0.51100000000E-03 0.  1.
        -12    1    3    3    0    0  0.65973597846E+01  0.11886055968E+01 -0.56329687312E+01  0.87560422634E+01  0.00000000000E+00 0.  1.
</event>
<event>
 7    1  0.3742599E-009  0.4778727E+02  0.7816164E-02  0.1312668E+00
        -11   -1    0    0    0    0  0.00000000000E+00  0.00000000000E+00  0.45593999997E+02  0.45594000000E+02  0.51100000000E-03 0. -1.
         11   -1    0    0    0    0 -0.00000000000E+00 -0.00000000000E+00 -0.45593999997E+02  0.45594000000E+02  0.51100000000E-03 0.  1.
    9900012    2    1    2    0    0 -0.20757486137E+02  0.30050036341E+02  0.23446649695E+02  0.47787270781E+02  0.19999998800E+02 0.  0.
        -12    1    1    2    0    0  0.20757486137E+02 -0.30050036341E+02 -0.23446649695E+02  0.43400729219E+02  0.00000000000E+00 0.  1.
         11    1    3    3    0    0 -0.47365646224E+01  0.96304897427E+01  0.27095590057E+01  0.11069014743E+02  0.51100000000E-03 0. -1.
        -11    1    3    3    0    0 -0.87402707081E+01  0.17659419316E+02  0.69673869039E+01  0.20899567057E+02  0.51100000000E-03 0.  1.
        -12    1    3    3    0    0 -0.72806508062E+01  0.27601272821E+01  0.13769703785E+02  0.15818688982E+02  0.00000000000E+00 0.  1.
</event>
<event>
 7    1  0.3742599E-009  0.4778727E+02  0.7816164E-02  0.1312668E+00
        -11   -1    0    0    0    0  0.00000000000E+00  0.00000000000E+00  0.45593999997E+02  0.45594000000E+02  0.51100000000E-03 0. -1.
         11   -1    0    0    0    0 -0.00000000000E+00 -0.00000000000E+00 -0.45593999997E+02  0.45594000000E+02  0.51100000000E-03 0.  1.
    9900012    2    1    2    0    0  0.37467736439E+02  0.13365878679E+02 -0.17353543201E+02  0.47787269034E+02  0.19999990834E+02 0.  0.
        -12    1    1    2    0    0 -0.37467736439E+02 -0.13365878679E+02  0.17353543201E+02  0.43400730966E+02  0.00000000000E+00 0.  1.
         11    1    3    3    0    0  0.19239376088E+02 -0.10773373487E+01 -0.49436496761E+01  0.19893564798E+02  0.51100000000E-03 0. -1.
        -11    1    3    3    0    0 -0.36727246636E+00  0.29099292357E+00 -0.24447232442E+01  0.24892243667E+01  0.51100000000E-03 0.  1.
         12    1    3    3    0    0  0.18595632818E+02  0.14152223104E+02 -0.99651702807E+01  0.25404479869E+02  0.00000000000E+00 0. -1.
</event>
<event>
 7    1  0.3742599E-009  0.4778727E+02  0.7816164E-02  0.1312668E+00
        -11   -1    0    0    0    0  0.00000000000E+00  0.00000000000E+00  0.45593999997E+02  0.45594000000E+02  0.51100000000E-03 0. -1.
         11   -1    0    0    0    0 -0.00000000000E+00 -0.00000000000E+00 -0.45593999997E+02  0.45594000000E+02  0.51100000000E-03 0.  1.
    9900012    2    1    2    0    0  0.89708692074E+01 -0.16285921589E+02  0.39216266671E+02  0.47787270652E+02  0.19999998212E+02 0.  0.
        -12    1    1    2    0    0 -0.89708692074E+01  0.16285921589E+02 -0.39216266671E+02  0.43400729348E+02  0.00000000000E+00 0.  1.
         11    1    3    3    0    0  0.58788853295E+01  0.26547151180E+01  0.14519173379E+02  0.15887580085E+02  0.51100000000E-03 0. -1.
        -11    1    3    3    0    0  0.34870419780E+01 -0.53203754955E+01  0.58454361946E+01  0.86391539942E+01  0.51100000000E-03 0.  1.
        -12    1    3    3    0    0 -0.39505810014E+00 -0.13620261212E+02  0.18851657097E+02  0.23260536573E+02  0.00000000000E+00 0.  1.
</event>
<event>
 7    1  0.3742599E-009  0.4778727E+02  0.7816164E-02  0.1312668E+00
        -11   -1    0    0    0    0  0.00000000000E+00  0.00000000000E+00  0.45593999997E+02  0.45594000000E+02  0.51100000000E-03 0.  1.
         11   -1    0    0    0    0 -0.00000000000E+00 -0.00000000000E+00 -0.45593999997E+02  0.45594000000E+02  0.51100000000E-03 0. -1.
    9900012    2    1    2    0    0  0.34558868661E+02  0.15574508541E+02 -0.21136284283E+02  0.47787271519E+02  0.20000002163E+02 0.  0.
        -12    1    1    2    0    0 -0.34558868661E+02 -0.15574508541E+02  0.21136284283E+02  0.43400728481E+02  0.00000000000E+00 0.  1.
         11    1    3    3    0    0  0.19225168508E+02  0.56203283966E+01 -0.42407837623E+01  0.20473872194E+02  0.51100000000E-03 0. -1.
        -11    1    3    3    0    0  0.75522234644E+01  0.76051229427E+01 -0.28580619759E+01  0.11092452062E+02  0.51100000000E-03 0.  1.
         12    1    3    3    0    0  0.77814766883E+01  0.23490572016E+01 -0.14037438545E+02  0.16220947263E+02  0.00000000000E+00 0. -1.
</event>
<event>
 7    1  0.3742599E-009  0.4778727E+02  0.7816164E-02  0.1312668E+00
        -11   -1    0    0    0    0  0.00000000000E+00  0.00000000000E+00  0.45593999997E+02  0.45594000000E+02  0.51100000000E-03 0.  1.
         11   -1    0    0    0    0 -0.00000000000E+00 -0.00000000000E+00 -0.45593999997E+02  0.45594000000E+02  0.51100000000E-03 0. -1.
    9900012    2    1    2    0    0  0.28001341699E+02  0.25583219179E+02 -0.21096134233E+02  0.47787272816E+02  0.20000008079E+02 0.  0.
        -12    1    1    2    0    0 -0.28001341699E+02 -0.25583219179E+02  0.21096134233E+02  0.43400727184E+02  0.00000000000E+00 0.  1.
         11    1    3    3    0    0  0.52037857305E+01  0.11148993211E+01  0.18384519443E+01  0.56304788640E+01  0.51100000000E-03 0. -1.
        -11    1    3    3    0    0  0.12606796474E+02  0.10842865119E+02 -0.48386318893E+01  0.17317950230E+02  0.51100000000E-03 0.  1.
         12    1    3    3    0    0  0.10190759494E+02  0.13625454739E+02 -0.18095954288E+02  0.24838843723E+02  0.00000000000E+00 0. -1.
</event>
<event>
 7    1  0.3742599E-009  0.4778727E+02  0.7816164E-02  0.1312668E+00
        -11   -1    0    0    0    0  0.00000000000E+00  0.00000000000E+00  0.45593999997E+02  0.45594000000E+02  0.51100000000E-03 0. -1.
         11   -1    0    0    0    0 -0.00000000000E+00 -0.00000000000E+00 -0.45593999997E+02  0.45594000000E+02  0.51100000000E-03 0.  1.
    9900012    2    1    2    0    0 -0.19522103535E+02  0.27493181824E+00  0.38761258703E+02  0.47787270857E+02  0.19999999146E+02 0.  0.
        -12    1    1    2    0    0  0.19522103535E+02 -0.27493181824E+00 -0.38761258703E+02  0.43400729143E+02  0.00000000000E+00 0.  1.
         11    1    3    3    0    0 -0.11888542178E+02 -0.80729812521E+00  0.25097904215E+02  0.27782979711E+02  0.51100000000E-03 0. -1.
        -11    1    3    3    0    0 -0.19548734383E+01 -0.23232178138E+01  0.12999724005E+02  0.13349595336E+02  0.51100000000E-03 0.  1.
        -12    1    3    3    0    0 -0.56786879188E+01  0.34054477573E+01  0.66363048271E+00  0.66546958100E+01  0.00000000000E+00 0.  1.
</event>
<event>
 7    1  0.3742599E-009  0.4778729E+02  0.7816164E-02  0.1312668E+00
        -11   -1    0    0    0    0  0.00000000000E+00  0.00000000000E+00  0.45593999997E+02  0.45594000000E+02  0.51100000000E-03 0. -1.
         11   -1    0    0    0    0 -0.00000000000E+00 -0.00000000000E+00 -0.45593999997E+02  0.45594000000E+02  0.51100000000E-03 0.  1.
    9900012    2    1    2    0    0 -0.28302869903E+02 -0.32294177203E+02  0.62972399954E+01  0.47787290818E+02  0.20000090155E+02 0.  0.
        -12    1    1    2    0    0  0.28302869903E+02  0.32294177203E+02 -0.62972399954E+01  0.43400709182E+02  0.00000000000E+00 0.  1.
         11    1    3    3    0    0 -0.89535032603E+01 -0.14549593342E+01  0.20754442410E+01  0.93053531021E+01  0.51100000000E-03 0. -1.
        -11    1    3    3    0    0 -0.85584730670E+01 -0.45407513953E+01  0.24882294125E+01  0.10002858109E+02  0.51100000000E-03 0.  1.
         12    1    3    3    0    0 -0.10790893576E+02 -0.26298466473E+02  0.17335663419E+01  0.28479079607E+02  0.00000000000E+00 0. -1.
</event>
<event>
 7    1  0.3742599E-009  0.4778727E+02  0.7816164E-02  0.1312668E+00
        -11   -1    0    0    0    0  0.00000000000E+00  0.00000000000E+00  0.45593999997E+02  0.45594000000E+02  0.51100000000E-03 0.  1.
         11   -1    0    0    0    0 -0.00000000000E+00 -0.00000000000E+00 -0.45593999997E+02  0.45594000000E+02  0.51100000000E-03 0. -1.
    9900012    2    1    2    0    0  0.16154126257E+02  0.62723425894E+01 -0.39791017191E+02  0.47787272751E+02  0.20000007779E+02 0.  0.
        -12    1    1    2    0    0 -0.16154126257E+02 -0.62723425894E+01  0.39791017191E+02  0.43400727249E+02  0.00000000000E+00 0.  1.
         11    1    3    3    0    0  0.71781484659E+01 -0.54168149899E+00 -0.54431081987E+01  0.90247804055E+01  0.51100000000E-03 0. -1.
        -11    1    3    3    0    0 -0.52749175229E+00  0.26402562240E+01  0.18949695764E+00  0.26990942620E+01  0.51100000000E-03 0.  1.
         12    1    3    3    0    0  0.95034695437E+01  0.41737678644E+01 -0.34537405950E+02  0.36063398083E+02  0.00000000000E+00 0. -1.
</event>
<event>
 7    1  0.3742599E-009  0.4778727E+02  0.7816164E-02  0.1312668E+00
        -11   -1    0    0    0    0  0.00000000000E+00  0.00000000000E+00  0.45593999997E+02  0.45594000000E+02  0.51100000000E-03 0.  1.
         11   -1    0    0    0    0 -0.00000000000E+00 -0.00000000000E+00 -0.45593999997E+02  0.45594000000E+02  0.51100000000E-03 0. -1.
    9900012    2    1    2    0    0 -0.26179815484E+02 -0.96116557032E+01 -0.33254424304E+02  0.47787269593E+02  0.19999993382E+02 0.  0.
        -12    1    1    2    0    0  0.26179815484E+02  0.96116557032E+01  0.33254424304E+02  0.43400730407E+02  0.00000000000E+00 0.  1.
         11    1    3    3    0    0 -0.18776514982E+02 -0.58801059824E+01 -0.24823600009E+02  0.31675610158E+02  0.51100000000E-03 0. -1.
        -11    1    3    3    0    0 -0.98049225119E+01 -0.71256312055E+00 -0.66057562207E+01  0.11843997094E+02  0.51100000000E-03 0.  1.
        -12    1    3    3    0    0  0.24016220105E+01 -0.30189866003E+01 -0.18250680739E+01  0.42676623400E+01  0.00000000000E+00 0.  1.
</event>
<event>
 7    1  0.3742599E-009  0.4778727E+02  0.7816164E-02  0.1312668E+00
        -11   -1    0    0    0    0  0.00000000000E+00  0.00000000000E+00  0.45593999997E+02  0.45594000000E+02  0.51100000000E-03 0. -1.
         11   -1    0    0    0    0 -0.00000000000E+00 -0.00000000000E+00 -0.45593999997E+02  0.45594000000E+02  0.51100000000E-03 0.  1.
    9900012    2    1    2    0    0 -0.14624155663E+02  0.38421468479E+02  0.13912158035E+02  0.47787270626E+02  0.19999998094E+02 0.  0.
        -12    1    1    2    0    0  0.14624155663E+02 -0.38421468479E+02 -0.13912158035E+02  0.43400729374E+02  0.00000000000E+00 0.  1.
         11    1    3    3    0    0 -0.10529208734E+02  0.16292387520E+02  0.11538441043E+02  0.22570816326E+02  0.51100000000E-03 0. -1.
        -11    1    3    3    0    0 -0.16845244226E+01  0.16007371718E+02  0.66004755957E+01  0.17396547077E+02  0.51100000000E-03 0.  1.
        -12    1    3    3    0    0 -0.24104225067E+01  0.61217092412E+01 -0.42267586033E+01  0.78199072236E+01  0.00000000000E+00 0.  1.
</event>
<event>
 7    1  0.3742599E-009  0.4778726E+02  0.7816164E-02  0.1312668E+00
        -11   -1    0    0    0    0  0.00000000000E+00  0.00000000000E+00  0.45593999997E+02  0.45594000000E+02  0.51100000000E-03 0.  1.
         11   -1    0    0    0    0 -0.00000000000E+00 -0.00000000000E+00 -0.45593999997E+02  0.45594000000E+02  0.51100000000E-03 0. -1.
    9900012    2    1    2    0    0  0.22871438954E+02  0.76905617198E+01 -0.36074594763E+02  0.47787264445E+02  0.19999969910E+02 0.  0.
        -12    1    1    2    0    0 -0.22871438954E+02 -0.76905617198E+01  0.36074594763E+02  0.43400735555E+02  0.00000000000E+00 0.  1.
         11    1    3    3    0    0  0.32369994427E+01  0.63064459529E+00 -0.79115980947E+01  0.85714212748E+01  0.51100000000E-03 0. -1.
        -11    1    3    3    0    0  0.65720594084E+01 -0.53148866503E+01 -0.13844222778E+02  0.16220434321E+02  0.51100000000E-03 0.  1.
         12    1    3    3    0    0  0.13062380103E+02  0.12374803775E+02 -0.14318773891E+02  0.22995408849E+02  0.00000000000E+00 0. -1.
</event>
<event>
 7    1  0.3742599E-009  0.4778727E+02  0.7816164E-02  0.1312668E+00
        -11   -1    0    0    0    0  0.00000000000E+00  0.00000000000E+00  0.45593999997E+02  0.45594000000E+02  0.51100000000E-03 0. -1.
         11   -1    0    0    0    0 -0.00000000000E+00 -0.00000000000E+00 -0.45593999997E+02  0.45594000000E+02  0.51100000000E-03 0.  1.
    9900012    2    1    2    0    0  0.30992993066E+01 -0.43273895426E+02 -0.11778361361E+01  0.47787274436E+02  0.20000015462E+02 0.  0.
        -12    1    1    2    0    0 -0.30992993066E+01  0.43273895426E+02  0.11778361361E+01  0.43400725564E+02  0.00000000000E+00 0.  1.
         11    1    3    3    0    0  0.12301294631E+01 -0.20489532436E+02  0.89197357447E+01  0.22380702490E+02  0.51100000000E-03 0. -1.
        -11    1    3    3    0    0 -0.59789809576E+00 -0.10605876392E+02 -0.27577876855E+01  0.10974857146E+02  0.51100000000E-03 0.  1.
         12    1    3    3    0    0  0.24670679393E+01 -0.12178486598E+02 -0.73397841953E+01  0.14431714800E+02  0.00000000000E+00 0. -1.
</event>
<event>
 7    1  0.3742599E-009  0.4778727E+02  0.7816164E-02  0.1312668E+00
        -11   -1    0    0    0    0  0.00000000000E+00  0.00000000000E+00  0.45593999997E+02  0.45594000000E+02  0.51100000000E-03 0. -1.
         11   -1    0    0    0    0 -0.00000000000E+00 -0.00000000000E+00 -0.45593999997E+02  0.45594000000E+02  0.51100000000E-03 0.  1.
    9900012    2    1    2    0    0 -0.72401986557E+01  0.39565410798E+02  0.16302789444E+02  0.47787272451E+02  0.20000006411E+02 0.  0.
        -12    1    1    2    0    0  0.72401986557E+01 -0.39565410798E+02 -0.16302789444E+02  0.43400727549E+02  0.00000000000E+00 0.  1.
         11    1    3    3    0    0 -0.15702869886E+00  0.21201444015E+02  0.12713712831E+02  0.24721739028E+02  0.51100000000E-03 0. -1.
        -11    1    3    3    0    0 -0.92881704363E+00  0.16129153671E+02  0.16667709821E+01  0.16241626305E+02  0.51100000000E-03 0.  1.
        -12    1    3    3    0    0 -0.61543529132E+01  0.22348131117E+01  0.19223056302E+01  0.68239071184E+01  0.00000000000E+00 0.  1.
</event>
<event>
 7    1  0.3742599E-009  0.4778727E+02  0.7816164E-02  0.1312668E+00
        -11   -1    0    0    0    0  0.00000000000E+00  0.00000000000E+00  0.45593999997E+02  0.45594000000E+02  0.51100000000E-03 0. -1.
         11   -1    0    0    0    0 -0.00000000000E+00 -0.00000000000E+00 -0.45593999997E+02  0.45594000000E+02  0.51100000000E-03 0.  1.
    9900012    2    1    2    0    0 -0.20472000416E+02  0.15135577337E+02  0.35148749850E+02  0.47787272836E+02  0.20000008168E+02 0.  0.
        -12    1    1    2    0    0  0.20472000416E+02 -0.15135577337E+02 -0.35148749850E+02  0.43400727164E+02  0.00000000000E+00 0.  1.
         11    1    3    3    0    0 -0.13152022376E+01 -0.17563518994E+01  0.52922493511E+01  0.57290865219E+01  0.51100000000E-03 0. -1.
        -11    1    3    3    0    0 -0.15328967037E+02  0.41881026826E+01  0.12538362456E+02  0.20241738261E+02  0.51100000000E-03 0.  1.
         12    1    3    3    0    0 -0.38278311413E+01  0.12703826554E+02  0.17318138044E+02  0.21816448053E+02  0.00000000000E+00 0. -1.
</event>
<event>
 7    1  0.3742599E-009  0.4778731E+02  0.7816164E-02  0.1312668E+00
        -11   -1    0    0    0    0  0.00000000000E+00  0.00000000000E+00  0.45593999997E+02  0.45594000000E+02  0.51100000000E-03 0. -1.
         11   -1    0    0    0    0 -0.00000000000E+00 -0.00000000000E+00 -0.45593999997E+02  0.45594000000E+02  0.51100000000E-03 0.  1.
    9900012    2    1    2    0    0 -0.29647228516E+02 -0.26803832945E+02  0.16917926776E+02  0.47787310310E+02  0.20000179025E+02 0.  0.
        -12    1    1    2    0    0  0.29647228516E+02  0.26803832945E+02 -0.16917926776E+02  0.43400689690E+02  0.00000000000E+00 0.  1.
         11    1    3    3    0    0 -0.15254264345E+02 -0.70748623921E+01  0.72745993239E+01  0.18321191396E+02  0.51100000000E-03 0. -1.
        -11    1    3    3    0    0 -0.56908789147E+01 -0.60834308350E+01 -0.30779197921E+01  0.88807558267E+01  0.51100000000E-03 0.  1.
         12    1    3    3    0    0 -0.87020852564E+01 -0.13645539718E+02  0.12721247244E+02  0.20585363087E+02  0.00000000000E+00 0. -1.
</event>
<event>
 7    1  0.3742599E-009  0.4778724E+02  0.7816164E-02  0.1312668E+00
        -11   -1    0    0    0    0  0.00000000000E+00  0.00000000000E+00  0.45593999997E+02  0.45594000000E+02  0.51100000000E-03 0.  1.
         11   -1    0    0    0    0 -0.00000000000E+00 -0.00000000000E+00 -0.45593999997E+02  0.45594000000E+02  0.51100000000E-03 0. -1.
    9900012    2    1    2    0    0  0.22737684382E+02 -0.27679829963E+02 -0.24504091828E+02  0.47787242010E+02  0.19999867619E+02 0.  0.
        -12    1    1    2    0    0 -0.22737684382E+02  0.27679829963E+02  0.24504091828E+02  0.43400757990E+02  0.00000000000E+00 0.  1.
         11    1    3    3    0    0  0.56229391325E+01 -0.17603400331E+02 -0.11952372335E+02  0.22008097428E+02  0.51100000000E-03 0. -1.
        -11    1    3    3    0    0  0.19540891893E+01 -0.41057622499E+01 -0.74086219368E+01  0.86927226734E+01  0.51100000000E-03 0.  1.
        -12    1    3    3    0    0  0.15160656060E+02 -0.59706673818E+01 -0.51430975559E+01  0.17086421908E+02  0.00000000000E+00 0.  1.
</event>
<event>
 7    1  0.3742599E-009  0.4778727E+02  0.7816164E-02  0.1312668E+00
        -11   -1    0    0    0    0  0.00000000000E+00  0.00000000000E+00  0.45593999997E+02  0.45594000000E+02  0.51100000000E-03 0. -1.
         11   -1    0    0    0    0 -0.00000000000E+00 -0.00000000000E+00 -0.45593999997E+02  0.45594000000E+02  0.51100000000E-03 0.  1.
    9900012    2    1    2    0    0  0.70258295058E+01  0.29808098537E+02  0.30752861265E+02  0.47787268502E+02  0.19999988407E+02 0.  0.
        -12    1    1    2    0    0 -0.70258295058E+01 -0.29808098537E+02 -0.30752861265E+02  0.43400731498E+02  0.00000000000E+00 0.  1.
         11    1    3    3    0    0 -0.35234321225E+01  0.44869052412E+01  0.17250199636E+01  0.59600827764E+01  0.51100000000E-03 0. -1.
        -11    1    3    3    0    0 -0.12040256011E+01  0.18007560065E+00  0.49116188857E+01  0.50602475443E+01  0.51100000000E-03 0.  1.
        -12    1    3    3    0    0  0.11753287229E+02  0.25141117695E+02  0.24116222415E+02  0.36766938181E+02  0.00000000000E+00 0.  1.
</event>
<event>
 7    1  0.3742599E-009  0.4778727E+02  0.7816164E-02  0.1312668E+00
        -11   -1    0    0    0    0  0.00000000000E+00  0.00000000000E+00  0.45593999997E+02  0.45594000000E+02  0.51100000000E-03 0.  1.
         11   -1    0    0    0    0 -0.00000000000E+00 -0.00000000000E+00 -0.45593999997E+02  0.45594000000E+02  0.51100000000E-03 0. -1.
    9900012    2    1    2    0    0 -0.62144544659E+01 -0.17383446995E+02 -0.39278747955E+02  0.47787265967E+02  0.19999976848E+02 0.  0.
        -12    1    1    2    0    0  0.62144544659E+01  0.17383446995E+02  0.39278747955E+02  0.43400734033E+02  0.00000000000E+00 0.  1.
         11    1    3    3    0    0 -0.10702916913E+02 -0.73426817570E+01 -0.23457208254E+02  0.26808730391E+02  0.51100000000E-03 0. -1.
        -11    1    3    3    0    0 -0.86328191262E+00 -0.75395213159E+01 -0.10944291350E+02  0.13317925918E+02  0.51100000000E-03 0.  1.
        -12    1    3    3    0    0  0.53517443602E+01 -0.25012439220E+01 -0.48772483507E+01  0.76606096578E+01  0.00000000000E+00 0.  1.
</event>
<event>
 7    1  0.3742599E-009  0.4778726E+02  0.7816164E-02  0.1312668E+00
        -11   -1    0    0    0    0  0.00000000000E+00  0.00000000000E+00  0.45593999997E+02  0.45594000000E+02  0.51100000000E-03 0. -1.
         11   -1    0    0    0    0 -0.00000000000E+00 -0.00000000000E+00 -0.45593999997E+02  0.45594000000E+02  0.51100000000E-03 0.  1.
    9900012    2    1    2    0    0  0.41190311614E+02 -0.76379041414E+01  0.11342168126E+02  0.47787261200E+02  0.19999955116E+02 0.  0.
        -12    1    1    2    0    0 -0.41190311614E+02  0.76379041414E+01 -0.11342168126E+02  0.43400738800E+02  0.00000000000E+00 0.  1.
         11    1    3    3    0    0  0.13653674730E+02 -0.42445371754E+01  0.32881848388E+01  0.14671437873E+02  0.51100000000E-03 0. -1.
        -11    1    3    3    0    0  0.21658404130E+02 -0.66685092672E+01  0.53615700548E-01  0.22661826056E+02  0.51100000000E-03 0.  1.
         12    1    3    3    0    0  0.58782327545E+01  0.32751423013E+01  0.80003675871E+01  0.10453997271E+02  0.00000000000E+00 0. -1.
</event>
<event>
 7    1  0.3742599E-009  0.4778727E+02  0.7816164E-02  0.1312668E+00
        -11   -1    0    0    0    0  0.00000000000E+00  0.00000000000E+00  0.45593999997E+02  0.45594000000E+02  0.51100000000E-03 0.  1.
         11   -1    0    0    0    0 -0.00000000000E+00 -0.00000000000E+00 -0.45593999997E+02  0.45594000000E+02  0.51100000000E-03 0. -1.
    9900012    2    1    2    0    0  0.75841598156E+01 -0.34879354508E+02 -0.24688754844E+02  0.47787268822E+02  0.19999989867E+02 0.  0.
        -12    1    1    2    0    0 -0.75841598156E+01  0.34879354508E+02  0.24688754844E+02  0.43400731178E+02  0.00000000000E+00 0.  1.
         11    1    3    3    0    0 -0.24338479106E+01 -0.14481179011E+02 -0.87325676160E+01  0.17084668526E+02  0.51100000000E-03 0. -1.
        -11    1    3    3    0    0 -0.11898961937E+00 -0.13372227662E+02 -0.52366597073E+01  0.14361519291E+02  0.51100000000E-03 0.  1.
        -12    1    3    3    0    0  0.10136997346E+02 -0.70259478346E+01 -0.10719527521E+02  0.16341081006E+02  0.00000000000E+00 0.  1.
</event>
<event>
 7    1  0.3742599E-009  0.4778727E+02  0.7816164E-02  0.1312668E+00
        -11   -1    0    0    0    0  0.00000000000E+00  0.00000000000E+00  0.45593999997E+02  0.45594000000E+02  0.51100000000E-03 0.  1.
         11   -1    0    0    0    0 -0.00000000000E+00 -0.00000000000E+00 -0.45593999997E+02  0.45594000000E+02  0.51100000000E-03 0. -1.
    9900012    2    1    2    0    0  0.41647878739E+02  0.12193403072E+02 -0.63122675175E+00  0.47787270408E+02  0.19999997097E+02 0.  0.
        -12    1    1    2    0    0 -0.41647878739E+02 -0.12193403072E+02  0.63122675175E+00  0.43400729592E+02  0.00000000000E+00 0.  1.
         11    1    3    3    0    0  0.28246469092E+02  0.72641280102E+01  0.49501578537E+01  0.29582674574E+02  0.51100000000E-03 0. -1.
        -11    1    3    3    0    0  0.67145961500E+01  0.90634322893E+00  0.22593778251E+01  0.71422719021E+01  0.51100000000E-03 0.  1.
        -12    1    3    3    0    0  0.66868134970E+01  0.40229318330E+01 -0.78407624306E+01  0.11062323932E+02  0.00000000000E+00 0.  1.
</event>
<event>
 7    1  0.3742599E-009  0.4778727E+02  0.7816164E-02  0.1312668E+00
        -11   -1    0    0    0    0  0.00000000000E+00  0.00000000000E+00  0.45593999997E+02  0.45594000000E+02  0.51100000000E-03 0.  1.
         11   -1    0    0    0    0 -0.00000000000E+00 -0.00000000000E+00 -0.45593999997E+02  0.45594000000E+02  0.51100000000E-03 0. -1.
    9900012    2    1    2    0    0 -0.41464806007E+02 -0.39402022441E+01 -0.12197048328E+02  0.47787270526E+02  0.19999997637E+02 0.  0.
        -12    1    1    2    0    0  0.41464806007E+02  0.39402022441E+01  0.12197048328E+02  0.43400729474E+02  0.00000000000E+00 0.  1.
         11    1    3    3    0    0 -0.51441245671E+01  0.21258547201E+01 -0.41842132127E+01  0.69633983315E+01  0.51100000000E-03 0. -1.
        -11    1    3    3    0    0 -0.18737268463E+02  0.46821032701E+01 -0.53757797079E+01  0.20047601558E+02  0.51100000000E-03 0.  1.
         12    1    3    3    0    0 -0.17583412977E+02 -0.10748160234E+02 -0.26370554074E+01  0.20776270637E+02  0.00000000000E+00 0. -1.
</event>
<event>
 7    1  0.3742599E-009  0.4778727E+02  0.7816164E-02  0.1312668E+00
        -11   -1    0    0    0    0  0.00000000000E+00  0.00000000000E+00  0.45593999997E+02  0.45594000000E+02  0.51100000000E-03 0.  1.
         11   -1    0    0    0    0 -0.00000000000E+00 -0.00000000000E+00 -0.45593999997E+02  0.45594000000E+02  0.51100000000E-03 0. -1.
    9900012    2    1    2    0    0 -0.15860689558E+02  0.27847028033E+02 -0.29267815069E+02  0.47787269102E+02  0.19999991145E+02 0.  0.
        -12    1    1    2    0    0  0.15860689558E+02 -0.27847028033E+02  0.29267815069E+02  0.43400730898E+02  0.00000000000E+00 0.  1.
         11    1    3    3    0    0  0.16956106651E+01  0.83254975130E+01 -0.97395425110E+01  0.12924693147E+02  0.51100000000E-03 0. -1.
        -11    1    3    3    0    0 -0.71374611501E+01  0.14520587736E+02 -0.64724440333E+01  0.17426512901E+02  0.51100000000E-03 0.  1.
         12    1    3    3    0    0 -0.10418839073E+02  0.50009427849E+01 -0.13055828524E+02  0.17436063054E+02  0.00000000000E+00 0. -1.
</event>
<event>
 7    1  0.3742599E-009  0.4778727E+02  0.7816164E-02  0.1312668E+00
        -11   -1    0    0    0    0  0.00000000000E+00  0.00000000000E+00  0.45593999997E+02  0.45594000000E+02  0.51100000000E-03 0.  1.
         11   -1    0    0    0    0 -0.00000000000E+00 -0.00000000000E+00 -0.45593999997E+02  0.45594000000E+02  0.51100000000E-03 0. -1.
    9900012    2    1    2    0    0  0.14481636708E+02 -0.33503203979E+02 -0.23482777856E+02  0.47787270347E+02  0.19999996819E+02 0.  0.
        -12    1    1    2    0    0 -0.14481636708E+02  0.33503203979E+02  0.23482777856E+02  0.43400729653E+02  0.00000000000E+00 0.  1.
         11    1    3    3    0    0  0.47342296643E+01 -0.60392454957E+01 -0.11149298074E+01  0.77542559545E+01  0.51100000000E-03 0. -1.
        -11    1    3    3    0    0  0.27829352731E+01 -0.31415737219E+01  0.22247967463E+01  0.47501510511E+01  0.51100000000E-03 0.  1.
         12    1    3    3    0    0  0.69644717705E+01 -0.24322384761E+02 -0.24592644795E+02  0.35282863341E+02  0.00000000000E+00 0. -1.
</event>
<event>
 7    1  0.3742599E-009  0.4778727E+02  0.7816164E-02  0.1312668E+00
        -11   -1    0    0    0    0  0.00000000000E+00  0.00000000000E+00  0.45593999997E+02  0.45594000000E+02  0.51100000000E-03 0.  1.
         11   -1    0    0    0    0 -0.00000000000E+00 -0.00000000000E+00 -0.45593999997E+02  0.45594000000E+02  0.51100000000E-03 0. -1.
    9900012    2    1    2    0    0  0.27790671977E+02  0.30754241688E+02  0.12863861766E+02  0.47787265326E+02  0.19999973927E+02 0.  0.
        -12    1    1    2    0    0 -0.27790671977E+02 -0.30754241688E+02 -0.12863861766E+02  0.43400734674E+02  0.00000000000E+00 0.  1.
         11    1    3    3    0    0  0.11802173810E+02  0.18292893146E+02  0.10667767284E+02  0.24242988788E+02  0.51100000000E-03 0. -1.
        -11    1    3    3    0    0  0.16223774770E+02  0.14223100083E+02  0.14743602872E+01  0.21625937720E+02  0.51100000000E-03 0.  1.
        -12    1    3    3    0    0 -0.23527660317E+00 -0.17617515409E+01  0.72173419414E+00  0.19183388176E+01  0.00000000000E+00 0.  1.
</event>
<event>
 7    1  0.3742599E-009  0.4778727E+02  0.7816164E-02  0.1312668E+00
        -11   -1    0    0    0    0  0.00000000000E+00  0.00000000000E+00  0.45593999997E+02  0.45594000000E+02  0.51100000000E-03 0.  1.
         11   -1    0    0    0    0 -0.00000000000E+00 -0.00000000000E+00 -0.45593999997E+02  0.45594000000E+02  0.51100000000E-03 0. -1.
    9900012    2    1    2    0    0  0.26511645548E+02 -0.34118575022E+02 -0.40839418767E+01  0.47787273134E+02  0.20000009529E+02 0.  0.
        -12    1    1    2    0    0 -0.26511645548E+02  0.34118575022E+02  0.40839418767E+01  0.43400726866E+02  0.00000000000E+00 0.  1.
         11    1    3    3    0    0  0.15516407858E+02 -0.19089282192E+02 -0.88726638715E+01  0.26151171520E+02  0.51100000000E-03 0. -1.
        -11    1    3    3    0    0  0.41748217523E+01  0.20156594210E+00 -0.29675916829E+00  0.41902066486E+01  0.51100000000E-03 0.  1.
         12    1    3    3    0    0  0.68204159377E+01 -0.15230858772E+02  0.50854811631E+01  0.17445894966E+02  0.00000000000E+00 0. -1.
</event>
<event>
 7    1  0.3742599E-009  0.4778727E+02  0.7816164E-02  0.1312668E+00
        -11   -1    0    0    0    0  0.00000000000E+00  0.00000000000E+00  0.45593999997E+02  0.45594000000E+02  0.51100000000E-03 0.  1.
         11   -1    0    0    0    0 -0.00000000000E+00 -0.00000000000E+00 -0.45593999997E+02  0.45594000000E+02  0.51100000000E-03 0. -1.
    9900012    2    1    2    0    0 -0.50544031280E-01 -0.18443992948E+02 -0.39286637905E+02  0.47787270185E+02  0.19999996083E+02 0.  0.
        -12    1    1    2    0    0  0.50544031280E-01  0.18443992948E+02  0.39286637905E+02  0.43400729815E+02  0.00000000000E+00 0.  1.
         11    1    3    3    0    0 -0.74418630758E+00 -0.58882396183E+00 -0.31920073953E+00  0.10012074169E+01  0.51100000000E-03 0. -1.
        -11    1    3    3    0    0 -0.83087501132E+01 -0.11412447131E+02 -0.27103252915E+02  0.30559214597E+02  0.51100000000E-03 0.  1.
         12    1    3    3    0    0  0.90023923895E+01 -0.64427218552E+01 -0.11864184250E+02  0.16226848171E+02  0.00000000000E+00 0. -1.
</event>
<event>
 7    1  0.3742599E-009  0.4778727E+02  0.7816164E-02  0.1312668E+00
        -11   -1    0    0    0    0  0.00000000000E+00  0.00000000000E+00  0.45593999997E+02  0.45594000000E+02  0.51100000000E-03 0.  1.
         11   -1    0    0    0    0 -0.00000000000E+00 -0.00000000000E+00 -0.45593999997E+02  0.45594000000E+02  0.51100000000E-03 0. -1.
    9900012    2    1    2    0    0 -0.27354650954E+02  0.33347143147E+02 -0.48284812179E+01  0.47787272866E+02  0.20000008305E+02 0.  0.
        -12    1    1    2    0    0  0.27354650954E+02 -0.33347143147E+02  0.48284812179E+01  0.43400727134E+02  0.00000000000E+00 0.  1.
         11    1    3    3    0    0 -0.96151902934E+01  0.16350475036E+02 -0.89461101332E+01  0.20971952820E+02  0.51100000000E-03 0. -1.
        -11    1    3    3    0    0 -0.11260855398E+02  0.74636378461E+01 -0.21744945758E+01  0.13683609944E+02  0.51100000000E-03 0.  1.
         12    1    3    3    0    0 -0.64786052627E+01  0.95330302647E+01  0.62921234911E+01  0.13131710102E+02  0.00000000000E+00 0. -1.
</event>
<event>
 7    1  0.3742599E-009  0.4778728E+02  0.7816164E-02  0.1312668E+00
        -11   -1    0    0    0    0  0.00000000000E+00  0.00000000000E+00  0.45593999997E+02  0.45594000000E+02  0.51100000000E-03 0. -1.
         11   -1    0    0    0    0 -0.00000000000E+00 -0.00000000000E+00 -0.45593999997E+02  0.45594000000E+02  0.51100000000E-03 0.  1.
    9900012    2    1    2    0    0 -0.69572884910E+01  0.57016202668E+01  0.42458330278E+02  0.47787284029E+02  0.20000059201E+02 0.  0.
        -12    1    1    2    0    0  0.69572884910E+01 -0.57016202668E+01 -0.42458330278E+02  0.43400715971E+02  0.00000000000E+00 0.  1.
         11    1    3    3    0    0 -0.31418220334E+01  0.27467336218E+00  0.10776130526E+02  0.11228155704E+02  0.51100000000E-03 0. -1.
        -11    1    3    3    0    0 -0.56918152050E+01  0.10028260448E+02  0.13719194358E+02  0.17921469305E+02  0.51100000000E-03 0.  1.
         12    1    3    3    0    0  0.18763487474E+01 -0.46013135437E+01  0.17963005394E+02  0.18637659020E+02  0.00000000000E+00 0. -1.
</event>
<event>
 7    1  0.3742599E-009  0.4778727E+02  0.7816164E-02  0.1312668E+00
        -11   -1    0    0    0    0  0.00000000000E+00  0.00000000000E+00  0.45593999997E+02  0.45594000000E+02  0.51100000000E-03 0.  1.
         11   -1    0    0    0    0 -0.00000000000E+00 -0.00000000000E+00 -0.45593999997E+02  0.45594000000E+02  0.51100000000E-03 0. -1.
    9900012    2    1    2    0    0 -0.62067865297E+01 -0.42162960768E+02 -0.82087554084E+01  0.47787272759E+02  0.20000007817E+02 0.  0.
        -12    1    1    2    0    0  0.62067865297E+01  0.42162960768E+02  0.82087554084E+01  0.43400727241E+02  0.00000000000E+00 0.  1.
         11    1    3    3    0    0 -0.45749354844E+01 -0.20163498663E+02  0.21096144733E+01  0.20783339157E+02  0.51100000000E-03 0. -1.
        -11    1    3    3    0    0 -0.27738154080E+01 -0.22952717027E+02 -0.84495512600E+01  0.24615364868E+02  0.51100000000E-03 0.  1.
        -12    1    3    3    0    0  0.11419643628E+01  0.95325492279E+00 -0.18688186217E+01  0.23885687335E+01  0.00000000000E+00 0.  1.
</event>
<event>
 7    1  0.3742599E-009  0.4778727E+02  0.7816164E-02  0.1312668E+00
        -11   -1    0    0    0    0  0.00000000000E+00  0.00000000000E+00  0.45593999997E+02  0.45594000000E+02  0.51100000000E-03 0. -1.
         11   -1    0    0    0    0 -0.00000000000E+00 -0.00000000000E+00 -0.45593999997E+02  0.45594000000E+02  0.51100000000E-03 0.  1.
    9900012    2    1    2    0    0  0.30104283130E+02 -0.15022165687E+02  0.27416965210E+02  0.47787270674E+02  0.19999998312E+02 0.  0.
        -12    1    1    2    0    0 -0.30104283130E+02  0.15022165687E+02 -0.27416965210E+02  0.43400729326E+02  0.00000000000E+00 0.  1.
         11    1    3    3    0    0  0.13365540293E+02  0.88433854960E+00  0.73832300257E+01  0.15294829449E+02  0.51100000000E-03 0. -1.
        -11    1    3    3    0    0  0.15564705262E+02 -0.80865695081E+01  0.12231600087E+02  0.21383748438E+02  0.51100000000E-03 0.  1.
        -12    1    3    3    0    0  0.11740375757E+01 -0.78199347281E+01  0.78021350970E+01  0.11108692788E+02  0.00000000000E+00 0.  1.
</event>
<event>
 7    1  0.3742599E-009  0.4778727E+02  0.7816164E-02  0.1312668E+00
        -11   -1    0    0    0    0  0.00000000000E+00  0.00000000000E+00  0.45593999997E+02  0.45594000000E+02  0.51100000000E-03 0.  1.
         11   -1    0    0    0    0 -0.00000000000E+00 -0.00000000000E+00 -0.45593999997E+02  0.45594000000E+02  0.51100000000E-03 0. -1.
    9900012    2    1    2    0    0  0.37791642542E+02 -0.86959791681E+01 -0.19488335129E+02  0.47787268373E+02  0.19999987818E+02 0.  0.
        -12    1    1    2    0    0 -0.37791642542E+02  0.86959791681E+01  0.19488335129E+02  0.43400731627E+02  0.00000000000E+00 0.  1.
         11    1    3    3    0    0  0.26000879127E+02 -0.11647736479E+02 -0.17376235644E+02  0.33371380641E+02  0.51100000000E-03 0. -1.
        -11    1    3    3    0    0 -0.92682758294E+00 -0.30701742919E+00 -0.72141884195E+00  0.12139664233E+01  0.51100000000E-03 0.  1.
         12    1    3    3    0    0  0.12717590998E+02  0.32587747396E+01 -0.13906806431E+01  0.13201921309E+02  0.00000000000E+00 0. -1.
</event>
<event>
 7    1  0.3742599E-009  0.4778728E+02  0.7816164E-02  0.1312668E+00
        -11   -1    0    0    0    0  0.00000000000E+00  0.00000000000E+00  0.45593999997E+02  0.45594000000E+02  0.51100000000E-03 0.  1.
         11   -1    0    0    0    0 -0.00000000000E+00 -0.00000000000E+00 -0.45593999997E+02  0.45594000000E+02  0.51100000000E-03 0. -1.
    9900012    2    1    2    0    0 -0.39286088602E+02  0.61803063909E+01 -0.17379001903E+02  0.47787278210E+02  0.20000032671E+02 0.  0.
        -12    1    1    2    0    0  0.39286088602E+02 -0.61803063909E+01  0.17379001903E+02  0.43400721790E+02  0.00000000000E+00 0.  1.
         11    1    3    3    0    0 -0.24520425658E+02  0.15565486027E+00 -0.50653539902E+01  0.25038636429E+02  0.51100000000E-03 0. -1.
        -11    1    3    3    0    0 -0.37213015374E+01 -0.30642751351E+01 -0.33049280443E+01  0.58446913413E+01  0.51100000000E-03 0.  1.
        -12    1    3    3    0    0 -0.11044361406E+02  0.90889266658E+01 -0.90087198682E+01  0.16903950440E+02  0.00000000000E+00 0.  1.
</event>
<event>
 7    1  0.3742599E-009  0.4778727E+02  0.7816164E-02  0.1312668E+00
        -11   -1    0    0    0    0  0.00000000000E+00  0.00000000000E+00  0.45593999997E+02  0.45594000000E+02  0.51100000000E-03 0.  1.
         11   -1    0    0    0    0 -0.00000000000E+00 -0.00000000000E+00 -0.45593999997E+02  0.45594000000E+02  0.51100000000E-03 0. -1.
    9900012    2    1    2    0    0  0.33951239454E+02  0.94593223876E+01 -0.25327017284E+02  0.47787271378E+02  0.20000001519E+02 0.  0.
        -12    1    1    2    0    0 -0.33951239454E+02 -0.94593223876E+01  0.25327017284E+02  0.43400728622E+02  0.00000000000E+00 0.  1.
         11    1    3    3    0    0  0.33414247219E+01  0.12733130483E+01  0.22285077272E+01  0.42133943848E+01  0.51100000000E-03 0. -1.
        -11    1    3    3    0    0  0.92841322350E+01  0.80362311121E+01 -0.81290484670E+01  0.14726084038E+02  0.51100000000E-03 0.  1.
         12    1    3    3    0    0  0.21325682497E+02  0.14977822720E+00 -0.19426476544E+02  0.28847792955E+02  0.00000000000E+00 0. -1.
</event>
<event>
 7    1  0.3742599E-009  0.4778727E+02  0.7816164E-02  0.1312668E+00
        -11   -1    0    0    0    0  0.00000000000E+00  0.00000000000E+00  0.45593999997E+02  0.45594000000E+02  0.51100000000E-03 0.  1.
         11   -1    0    0    0    0 -0.00000000000E+00 -0.00000000000E+00 -0.45593999997E+02  0.45594000000E+02  0.51100000000E-03 0. -1.
    9900012    2    1    2    0    0  0.15534427320E+02  0.22776861282E+02 -0.33518940250E+02  0.47787271924E+02  0.20000004012E+02 0.  0.
        -12    1    1    2    0    0 -0.15534427320E+02 -0.22776861282E+02  0.33518940250E+02  0.43400728076E+02  0.00000000000E+00 0.  1.
         11    1    3    3    0    0 -0.68119178390E+00  0.24545256864E+01  0.12734229367E+01  0.28478632039E+01  0.51100000000E-03 0.  1.
        -11    1    3    3    0    0  0.18322965165E+01  0.61737039962E+01 -0.25952983831E+01  0.69431625010E+01  0.51100000000E-03 0. -1.
        -12    1    3    3    0    0  0.14383322587E+02  0.14148631599E+02 -0.32197064804E+02  0.37996246219E+02  0.00000000000E+00 0.  1.
</event>
<event>
 7    1  0.3742599E-009  0.4778727E+02  0.7816164E-02  0.1312668E+00
        -11   -1    0    0    0    0  0.00000000000E+00  0.00000000000E+00  0.45593999997E+02  0.45594000000E+02  0.51100000000E-03 0.  1.
         11   -1    0    0    0    0 -0.00000000000E+00 -0.00000000000E+00 -0.45593999997E+02  0.45594000000E+02  0.51100000000E-03 0. -1.
    9900012    2    1    2    0    0 -0.24907490846E+01 -0.28023239876E+02 -0.33047208084E+02  0.47787265371E+02  0.19999974133E+02 0.  0.
        -12    1    1    2    0    0  0.24907490846E+01  0.28023239876E+02  0.33047208084E+02  0.43400734629E+02  0.00000000000E+00 0.  1.
         11    1    3    3    0    0  0.50090863293E+01 -0.16182087694E+02 -0.17865930736E+02  0.24619959166E+02  0.51100000000E-03 0.  1.
        -11    1    3    3    0    0  0.15192503554E+01 -0.68919876410E+01 -0.77131092495E+01  0.10454648241E+02  0.51100000000E-03 0. -1.
        -12    1    3    3    0    0 -0.90190857694E+01 -0.49491645413E+01 -0.74681680988E+01  0.12712657965E+02  0.00000000000E+00 0.  1.
</event>
<event>
 7    1  0.3742599E-009  0.4778727E+02  0.7816164E-02  0.1312668E+00
        -11   -1    0    0    0    0  0.00000000000E+00  0.00000000000E+00  0.45593999997E+02  0.45594000000E+02  0.51100000000E-03 0.  1.
         11   -1    0    0    0    0 -0.00000000000E+00 -0.00000000000E+00 -0.45593999997E+02  0.45594000000E+02  0.51100000000E-03 0. -1.
    9900012    2    1    2    0    0 -0.21477395597E+02 -0.87092073894E+01 -0.36694611657E+02  0.47787270287E+02  0.19999996545E+02 0.  0.
        -12    1    1    2    0    0  0.21477395597E+02  0.87092073894E+01  0.36694611657E+02  0.43400729713E+02  0.00000000000E+00 0.  1.
         11    1    3    3    0    0 -0.40194797813E+01  0.12848963874E+01  0.14396069107E+01  0.44586595247E+01  0.51100000000E-03 0. -1.
        -11    1    3    3    0    0 -0.23466964871E+01 -0.29999588153E+01 -0.89789233970E+01  0.97533482931E+01  0.51100000000E-03 0.  1.
         12    1    3    3    0    0 -0.15111219329E+02 -0.69941449615E+01 -0.29155295171E+02  0.33575262469E+02  0.00000000000E+00 0. -1.
</event>
<event>
 7    1  0.3742599E-009  0.4778727E+02  0.7816164E-02  0.1312668E+00
        -11   -1    0    0    0    0  0.00000000000E+00  0.00000000000E+00  0.45593999997E+02  0.45594000000E+02  0.51100000000E-03 0. -1.
         11   -1    0    0    0    0 -0.00000000000E+00 -0.00000000000E+00 -0.45593999997E+02  0.45594000000E+02  0.51100000000E-03 0.  1.
    9900012    2    1    2    0    0  0.14069555673E+02 -0.26327136763E+02  0.31504802074E+02  0.47787273270E+02  0.20000010147E+02 0.  0.
        -12    1    1    2    0    0 -0.14069555673E+02  0.26327136763E+02 -0.31504802074E+02  0.43400726730E+02  0.00000000000E+00 0.  1.
         11    1    3    3    0    0 -0.23083705986E+00 -0.19776351422E+01  0.14746585938E+00  0.19965152002E+01  0.51100000000E-03 0. -1.
        -11    1    3    3    0    0  0.49130628096E+00 -0.18141716107E+02  0.15503907528E+02  0.23869109621E+02  0.51100000000E-03 0.  1.
         12    1    3    3    0    0  0.13809086452E+02 -0.62077855133E+01  0.15853428687E+02  0.21921648449E+02  0.00000000000E+00 0. -1.
</event>
<event>
 7    1  0.3742599E-009  0.4778728E+02  0.7816164E-02  0.1312668E+00
        -11   -1    0    0    0    0  0.00000000000E+00  0.00000000000E+00  0.45593999997E+02  0.45594000000E+02  0.51100000000E-03 0. -1.
         11   -1    0    0    0    0 -0.00000000000E+00 -0.00000000000E+00 -0.45593999997E+02  0.45594000000E+02  0.51100000000E-03 0.  1.
    9900012    2    1    2    0    0 -0.19070193443E+02 -0.30655157173E+02  0.24087589873E+02  0.47787275062E+02  0.20000018317E+02 0.  0.
        -12    1    1    2    0    0  0.19070193443E+02  0.30655157173E+02 -0.24087589873E+02  0.43400724938E+02  0.00000000000E+00 0.  1.
         11    1    3    3    0    0 -0.11663339739E+02 -0.22951221078E+02  0.12032225955E+02  0.28417714625E+02  0.51100000000E-03 0. -1.
        -11    1    3    3    0    0 -0.68331978003E+01 -0.25588086392E+01  0.12171742314E+02  0.14191243957E+02  0.51100000000E-03 0.  1.
        -12    1    3    3    0    0 -0.57365590361E+00 -0.51451274559E+01 -0.11637839514E+00  0.51783164797E+01  0.00000000000E+00 0.  1.
</event>
<event>
 7    1  0.3742599E-009  0.4778727E+02  0.7816164E-02  0.1312668E+00
        -11   -1    0    0    0    0  0.00000000000E+00  0.00000000000E+00  0.45593999997E+02  0.45594000000E+02  0.51100000000E-03 0. -1.
         11   -1    0    0    0    0 -0.00000000000E+00 -0.00000000000E+00 -0.45593999997E+02  0.45594000000E+02  0.51100000000E-03 0.  1.
    9900012    2    1    2    0    0  0.40434022737E+02  0.10924233769E+02  0.11374278937E+02  0.47787270749E+02  0.19999998654E+02 0.  0.
        -12    1    1    2    0    0 -0.40434022737E+02 -0.10924233769E+02 -0.11374278937E+02  0.43400729251E+02  0.00000000000E+00 0.  1.
         11    1    3    3    0    0  0.50262294248E+01 -0.22843650728E+01 -0.20771649734E+01  0.58988067102E+01  0.51100000000E-03 0. -1.
        -11    1    3    3    0    0  0.56682637986E+01 -0.14862772152E+01  0.48830823284E+01  0.76277603356E+01  0.51100000000E-03 0.  1.
         12    1    3    3    0    0  0.29739529514E+02  0.14694876057E+02  0.85683615820E+01  0.34260703703E+02  0.00000000000E+00 0. -1.
</event>
<event>
 7    1  0.3742599E-009  0.4778727E+02  0.7816164E-02  0.1312668E+00
        -11   -1    0    0    0    0  0.00000000000E+00  0.00000000000E+00  0.45593999997E+02  0.45594000000E+02  0.51100000000E-03 0.  1.
         11   -1    0    0    0    0 -0.00000000000E+00 -0.00000000000E+00 -0.45593999997E+02  0.45594000000E+02  0.51100000000E-03 0. -1.
    9900012    2    1    2    0    0 -0.39060072497E+02 -0.17462143790E+02 -0.72806260117E+01  0.47787271385E+02  0.20000001551E+02 0.  0.
        -12    1    1    2    0    0  0.39060072497E+02  0.17462143790E+02  0.72806260117E+01  0.43400728615E+02  0.00000000000E+00 0.  1.
         11    1    3    3    0    0 -0.35683377336E+01 -0.36620314736E+01 -0.52897225949E+01  0.73569473348E+01  0.51100000000E-03 0. -1.
        -11    1    3    3    0    0 -0.25464983101E+00  0.17986482936E+01  0.22965615064E+00  0.18310446278E+01  0.51100000000E-03 0.  1.
         12    1    3    3    0    0 -0.35237084933E+02 -0.15598760610E+02 -0.22205595674E+01  0.38599279422E+02  0.00000000000E+00 0. -1.
</event>
<event>
 7    1  0.3742599E-009  0.4778727E+02  0.7816164E-02  0.1312668E+00
        -11   -1    0    0    0    0  0.00000000000E+00  0.00000000000E+00  0.45593999997E+02  0.45594000000E+02  0.51100000000E-03 0.  1.
         11   -1    0    0    0    0 -0.00000000000E+00 -0.00000000000E+00 -0.45593999997E+02  0.45594000000E+02  0.51100000000E-03 0. -1.
    9900012    2    1    2    0    0 -0.50566445968E+01 -0.84023433904E+01 -0.42278298043E+02  0.47787268273E+02  0.19999987363E+02 0.  0.
        -12    1    1    2    0    0  0.50566445968E+01  0.84023433904E+01  0.42278298043E+02  0.43400731727E+02  0.00000000000E+00 0.  1.
         11    1    3    3    0    0 -0.10820791048E+01 -0.92914057590E+01 -0.90275686802E+01  0.12999927411E+02  0.51100000000E-03 0. -1.
        -11    1    3    3    0    0 -0.33357484558E+01 -0.10002205368E+01 -0.33897709850E+01  0.48598566310E+01  0.51100000000E-03 0.  1.
        -12    1    3    3    0    0 -0.63881703621E+00  0.18892829054E+01 -0.29860958378E+02  0.29927484230E+02  0.00000000000E+00 0.  1.
</event>
<event>
 7    1  0.3742599E-009  0.4778726E+02  0.7816164E-02  0.1312668E+00
        -11   -1    0    0    0    0  0.00000000000E+00  0.00000000000E+00  0.45593999997E+02  0.45594000000E+02  0.51100000000E-03 0. -1.
         11   -1    0    0    0    0 -0.00000000000E+00 -0.00000000000E+00 -0.45593999997E+02  0.45594000000E+02  0.51100000000E-03 0.  1.
    9900012    2    1    2    0    0  0.14242735581E+02 -0.65620885340E+01  0.40468598568E+02  0.47787262762E+02  0.19999962236E+02 0.  0.
        -12    1    1    2    0    0 -0.14242735581E+02  0.65620885340E+01 -0.40468598568E+02  0.43400737238E+02  0.00000000000E+00 0.  1.
         11    1    3    3    0    0  0.74249123678E+00  0.21759915252E+01  0.15085102875E+01  0.27498792524E+01  0.51100000000E-03 0.  1.
        -11    1    3    3    0    0 -0.29579278126E+01 -0.48491875121E+01  0.10071859126E+02  0.11563144165E+02  0.51100000000E-03 0. -1.
         12    1    3    3    0    0  0.16458172156E+02 -0.38888925471E+01  0.28888229155E+02  0.33474239344E+02  0.00000000000E+00 0. -1.
</event>
<event>
 7    1  0.3742599E-009  0.4778727E+02  0.7816164E-02  0.1312668E+00
        -11   -1    0    0    0    0  0.00000000000E+00  0.00000000000E+00  0.45593999997E+02  0.45594000000E+02  0.51100000000E-03 0.  1.
         11   -1    0    0    0    0 -0.00000000000E+00 -0.00000000000E+00 -0.45593999997E+02  0.45594000000E+02  0.51100000000E-03 0. -1.
    9900012    2    1    2    0    0  0.32401428341E+02  0.96998992004E+01 -0.27197107622E+02  0.47787271134E+02  0.20000000410E+02 0.  0.
        -12    1    1    2    0    0 -0.32401428341E+02 -0.96998992004E+01  0.27197107622E+02  0.43400728866E+02  0.00000000000E+00 0.  1.
         11    1    3    3    0    0  0.36532487195E+01  0.50708684062E+01 -0.12794816189E+01  0.63794205124E+01  0.51100000000E-03 0. -1.
        -11    1    3    3    0    0  0.10267541752E+02 -0.50377889299E+01 -0.93087069692E+01  0.14746313324E+02  0.51100000000E-03 0.  1.
        -12    1    3    3    0    0  0.18480637869E+02  0.96668197240E+01 -0.16608919034E+02  0.26661537298E+02  0.00000000000E+00 0.  1.
</event>
<event>
 7    1  0.3742599E-009  0.4778727E+02  0.7816164E-02  0.1312668E+00
        -11   -1    0    0    0    0  0.00000000000E+00  0.00000000000E+00  0.45593999997E+02  0.45594000000E+02  0.51100000000E-03 0.  1.
         11   -1    0    0    0    0 -0.00000000000E+00 -0.00000000000E+00 -0.45593999997E+02  0.45594000000E+02  0.51100000000E-03 0. -1.
    9900012    2    1    2    0    0  0.14045963777E+02 -0.22487096070E+02 -0.34360803658E+02  0.47787269406E+02  0.19999992530E+02 0.  0.
        -12    1    1    2    0    0 -0.14045963777E+02  0.22487096070E+02  0.34360803658E+02  0.43400730594E+02  0.00000000000E+00 0.  1.
         11    1    3    3    0    0 -0.34104420766E+01 -0.22902217796E+01 -0.63024198357E+01  0.75230796223E+01  0.51100000000E-03 0. -1.
        -11    1    3    3    0    0  0.13507872603E+01 -0.11158191290E+01 -0.81312183238E+01  0.83178356705E+01  0.51100000000E-03 0.  1.
         12    1    3    3    0    0  0.16105618593E+02 -0.19081055161E+02 -0.19927165498E+02  0.31946354113E+02  0.00000000000E+00 0. -1.
</event>
<event>
 7    1  0.3742599E-009  0.4778727E+02  0.7816164E-02  0.1312668E+00
        -11   -1    0    0    0    0  0.00000000000E+00  0.00000000000E+00  0.45593999997E+02  0.45594000000E+02  0.51100000000E-03 0. -1.
         11   -1    0    0    0    0 -0.00000000000E+00 -0.00000000000E+00 -0.45593999997E+02  0.45594000000E+02  0.51100000000E-03 0.  1.
    9900012    2    1    2    0    0  0.33576376302E+02  0.24564124042E+02  0.12363425352E+02  0.47787268186E+02  0.19999986969E+02 0.  0.
        -12    1    1    2    0    0 -0.33576376302E+02 -0.24564124042E+02 -0.12363425352E+02  0.43400731814E+02  0.00000000000E+00 0.  1.
         11    1    3    3    0    0  0.18055389341E+02  0.18518735493E+02  0.11880300180E+02  0.28461942680E+02  0.51100000000E-03 0. -1.
        -11    1    3    3    0    0  0.84966022721E+01  0.89012449323E+00  0.45841557067E+01  0.96953110104E+01  0.51100000000E-03 0.  1.
        -12    1    3    3    0    0  0.70243846883E+01  0.51552640562E+01 -0.41010305342E+01  0.96300144954E+01  0.00000000000E+00 0.  1.
</event>
<event>
 7    1  0.3742599E-009  0.4778727E+02  0.7816164E-02  0.1312668E+00
        -11   -1    0    0    0    0  0.00000000000E+00  0.00000000000E+00  0.45593999997E+02  0.45594000000E+02  0.51100000000E-03 0.  1.
         11   -1    0    0    0    0 -0.00000000000E+00 -0.00000000000E+00 -0.45593999997E+02  0.45594000000E+02  0.51100000000E-03 0. -1.
    9900012    2    1    2    0    0  0.17948979201E+02  0.18275272923E+02 -0.35035298971E+02  0.47787266957E+02  0.19999981362E+02 0.  0.
        -12    1    1    2    0    0 -0.17948979201E+02 -0.18275272923E+02  0.35035298971E+02  0.43400733043E+02  0.00000000000E+00 0.  1.
         11    1    3    3    0    0  0.87402070524E+00  0.34887030597E+01 -0.20166584750E+01  0.41233327416E+01  0.51100000000E-03 0.  1.
        -11    1    3    3    0    0  0.11231991837E+02  0.31921060873E+00 -0.21536869335E+02  0.24291897354E+02  0.51100000000E-03 0. -1.
         12    1    3    3    0    0  0.58429666583E+01  0.14467359254E+02 -0.11481771161E+02  0.19372036861E+02  0.00000000000E+00 0. -1.
</event>
<event>
 7    1  0.3742599E-009  0.4778727E+02  0.7816164E-02  0.1312668E+00
        -11   -1    0    0    0    0  0.00000000000E+00  0.00000000000E+00  0.45593999997E+02  0.45594000000E+02  0.51100000000E-03 0. -1.
         11   -1    0    0    0    0 -0.00000000000E+00 -0.00000000000E+00 -0.45593999997E+02  0.45594000000E+02  0.51100000000E-03 0.  1.
    9900012    2    1    2    0    0  0.78989143185E+01  0.26322111371E+00  0.42675065526E+02  0.47787270163E+02  0.19999995981E+02 0.  0.
        -12    1    1    2    0    0 -0.78989143185E+01 -0.26322111371E+00 -0.42675065526E+02  0.43400729837E+02  0.00000000000E+00 0.  1.
         11    1    3    3    0    0  0.31693011249E+01 -0.50296143709E+00  0.15384651116E+02  0.15715754200E+02  0.51100000000E-03 0. -1.
        -11    1    3    3    0    0 -0.22645038050E+01 -0.64205379257E+01  0.10486915916E+02  0.12503067240E+02  0.51100000000E-03 0.  1.
         12    1    3    3    0    0  0.69941169986E+01  0.71867204765E+01  0.16803498494E+02  0.19568448723E+02  0.00000000000E+00 0. -1.
</event>
<event>
 7    1  0.3742599E-009  0.4778729E+02  0.7816164E-02  0.1312668E+00
        -11   -1    0    0    0    0  0.00000000000E+00  0.00000000000E+00  0.45593999997E+02  0.45594000000E+02  0.51100000000E-03 0.  1.
         11   -1    0    0    0    0 -0.00000000000E+00 -0.00000000000E+00 -0.45593999997E+02  0.45594000000E+02  0.51100000000E-03 0. -1.
    9900012    2    1    2    0    0 -0.28879001716E+02 -0.31382788184E+02 -0.80464452928E+01  0.47787292446E+02  0.20000097577E+02 0.  0.
        -12    1    1    2    0    0  0.28879001716E+02  0.31382788184E+02  0.80464452928E+01  0.43400707554E+02  0.00000000000E+00 0.  1.
         11    1    3    3    0    0 -0.13961529372E+02 -0.52401193005E+01 -0.11550978901E+01  0.14957185701E+02  0.51100000000E-03 0. -1.
        -11    1    3    3    0    0  0.15983279618E+01 -0.76471392620E+00  0.22028610830E-01  0.17719834038E+01  0.51100000000E-03 0.  1.
         12    1    3    3    0    0 -0.16515800306E+02 -0.25377954958E+02 -0.69133760135E+01  0.31058123341E+02  0.00000000000E+00 0. -1.
</event>
<event>
 7    1  0.3742599E-009  0.4778727E+02  0.7816164E-02  0.1312668E+00
        -11   -1    0    0    0    0  0.00000000000E+00  0.00000000000E+00  0.45593999997E+02  0.45594000000E+02  0.51100000000E-03 0.  1.
         11   -1    0    0    0    0 -0.00000000000E+00 -0.00000000000E+00 -0.45593999997E+02  0.45594000000E+02  0.51100000000E-03 0. -1.
    9900012    2    1    2    0    0 -0.29598642313E+02  0.19253245722E+02 -0.25236007512E+02  0.47787272210E+02  0.20000005314E+02 0.  0.
        -12    1    1    2    0    0  0.29598642313E+02 -0.19253245722E+02  0.25236007512E+02  0.43400727790E+02  0.00000000000E+00 0.  1.
         11    1    3    3    0    0 -0.25119582622E+02  0.12132962616E+02 -0.14620188846E+02  0.31495271631E+02  0.51100000000E-03 0.  1.
        -11    1    3    3    0    0 -0.55572936016E+01  0.87021567523E+01 -0.97114402651E+01  0.14174735151E+02  0.51100000000E-03 0. -1.
        -12    1    3    3    0    0  0.10782339110E+01 -0.15818736469E+01 -0.90437840080E+00  0.21172654281E+01  0.00000000000E+00 0.  1.
</event>
<event>
 7    1  0.3742599E-009  0.4778727E+02  0.7816164E-02  0.1312668E+00
        -11   -1    0    0    0    0  0.00000000000E+00  0.00000000000E+00  0.45593999997E+02  0.45594000000E+02  0.51100000000E-03 0.  1.
         11   -1    0    0    0    0 -0.00000000000E+00 -0.00000000000E+00 -0.45593999997E+02  0.45594000000E+02  0.51100000000E-03 0. -1.
    9900012    2    1    2    0    0  0.25458756664E+02  0.25067293223E+02 -0.24639514680E+02  0.47787272310E+02  0.20000005769E+02 0.  0.
        -12    1    1    2    0    0 -0.25458756664E+02 -0.25067293223E+02  0.24639514680E+02  0.43400727690E+02  0.00000000000E+00 0.  1.
         11    1    3    3    0    0  0.96362508365E+01  0.13812982126E+02 -0.77084974443E+01  0.18522330807E+02  0.51100000000E-03 0. -1.
        -11    1    3    3    0    0  0.87218145504E+01  0.13490484145E+02 -0.13841015642E+02  0.21204643967E+02  0.51100000000E-03 0.  1.
        -12    1    3    3    0    0  0.71006912771E+01 -0.22361730489E+01 -0.30900015937E+01  0.80602975358E+01  0.00000000000E+00 0.  1.
</event>
<event>
 7    1  0.3742599E-009  0.4778727E+02  0.7816164E-02  0.1312668E+00
        -11   -1    0    0    0    0  0.00000000000E+00  0.00000000000E+00  0.45593999997E+02  0.45594000000E+02  0.51100000000E-03 0. -1.
         11   -1    0    0    0    0 -0.00000000000E+00 -0.00000000000E+00 -0.45593999997E+02  0.45594000000E+02  0.51100000000E-03 0.  1.
    9900012    2    1    2    0    0  0.88563155957E+01  0.42188557185E+02  0.50313714447E+01  0.47787269800E+02  0.19999994324E+02 0.  0.
        -12    1    1    2    0    0 -0.88563155957E+01 -0.42188557185E+02 -0.50313714447E+01  0.43400730200E+02  0.00000000000E+00 0.  1.
         11    1    3    3    0    0 -0.28836903947E+01  0.38697896660E+01  0.53705504651E+01  0.72203708292E+01  0.51100000000E-03 0. -1.
        -11    1    3    3    0    0  0.40680964234E+01  0.59718099314E+01 -0.11276596952E+01  0.73132440829E+01  0.51100000000E-03 0.  1.
        -12    1    3    3    0    0  0.76719095670E+01  0.32346957588E+02  0.78848067477E+00  0.33253654888E+02  0.00000000000E+00 0.  1.
</event>
<event>
 7    1  0.3742599E-009  0.4778727E+02  0.7816164E-02  0.1312668E+00
        -11   -1    0    0    0    0  0.00000000000E+00  0.00000000000E+00  0.45593999997E+02  0.45594000000E+02  0.51100000000E-03 0. -1.
         11   -1    0    0    0    0 -0.00000000000E+00 -0.00000000000E+00 -0.45593999997E+02  0.45594000000E+02  0.51100000000E-03 0.  1.
    9900012    2    1    2    0    0  0.23940341217E+02 -0.29053980083E+02  0.21595127409E+02  0.47787271619E+02  0.20000002619E+02 0.  0.
        -12    1    1    2    0    0 -0.23940341217E+02  0.29053980083E+02 -0.21595127409E+02  0.43400728381E+02  0.00000000000E+00 0.  1.
         11    1    3    3    0    0  0.14145689901E+02 -0.53076200718E+01  0.52254418737E+01  0.15986763795E+02  0.51100000000E-03 0. -1.
        -11    1    3    3    0    0  0.27697159447E+01 -0.17405262815E+01  0.51962730458E+01  0.61401964120E+01  0.51100000000E-03 0.  1.
        -12    1    3    3    0    0  0.70249353712E+01 -0.22005833729E+02  0.11173412489E+02  0.25660311412E+02  0.00000000000E+00 0.  1.
</event>
<event>
 7    1  0.3742599E-009  0.4778727E+02  0.7816164E-02  0.1312668E+00
        -11   -1    0    0    0    0  0.00000000000E+00  0.00000000000E+00  0.45593999997E+02  0.45594000000E+02  0.51100000000E-03 0. -1.
         11   -1    0    0    0    0 -0.00000000000E+00 -0.00000000000E+00 -0.45593999997E+02  0.45594000000E+02  0.51100000000E-03 0.  1.
    9900012    2    1    2    0    0 -0.94882899179E+01 -0.42299608523E+02 -0.20830210733E+01  0.47787268399E+02  0.19999987937E+02 0.  0.
        -12    1    1    2    0    0  0.94882899179E+01  0.42299608523E+02  0.20830210733E+01  0.43400731601E+02  0.00000000000E+00 0.  1.
         11    1    3    3    0    0 -0.11660736830E+02 -0.29553593113E+02  0.43578075722E+01  0.32068335417E+02  0.51100000000E-03 0. -1.
        -11    1    3    3    0    0 -0.16464352387E+00  0.46722744336E+00  0.41897624785E+00  0.64880685197E+00  0.51100000000E-03 0.  1.
         12    1    3    3    0    0  0.23370904356E+01 -0.13213242853E+02 -0.68598048934E+01  0.15070126130E+02  0.00000000000E+00 0. -1.
</event>
<event>
 7    1  0.3742599E-009  0.4778727E+02  0.7816164E-02  0.1312668E+00
        -11   -1    0    0    0    0  0.00000000000E+00  0.00000000000E+00  0.45593999997E+02  0.45594000000E+02  0.51100000000E-03 0.  1.
         11   -1    0    0    0    0 -0.00000000000E+00 -0.00000000000E+00 -0.45593999997E+02  0.45594000000E+02  0.51100000000E-03 0. -1.
    9900012    2    1    2    0    0  0.43032082327E+02  0.54353829909E+01  0.15230660307E+01  0.47787271575E+02  0.20000002418E+02 0.  0.
        -12    1    1    2    0    0 -0.43032082327E+02 -0.54353829909E+01 -0.15230660307E+01  0.43400728425E+02  0.00000000000E+00 0.  1.
         11    1    3    3    0    0  0.10702075539E+02 -0.34138142161E+00  0.71256827979E+01  0.12861816268E+02  0.51100000000E-03 0.  1.
        -11    1    3    3    0    0  0.15180373154E+02 -0.24688680511E+01 -0.14445081550E+01  0.15447512506E+02  0.51100000000E-03 0. -1.
        -12    1    3    3    0    0  0.17149633635E+02  0.82456324636E+01 -0.41581086121E+01  0.19477942801E+02  0.00000000000E+00 0.  1.
</event>
<event>
 7    1  0.3742599E-009  0.4778727E+02  0.7816164E-02  0.1312668E+00
        -11   -1    0    0    0    0  0.00000000000E+00  0.00000000000E+00  0.45593999997E+02  0.45594000000E+02  0.51100000000E-03 0. -1.
         11   -1    0    0    0    0 -0.00000000000E+00 -0.00000000000E+00 -0.45593999997E+02  0.45594000000E+02  0.51100000000E-03 0.  1.
    9900012    2    1    2    0    0  0.19417251236E+02  0.39700002013E+01  0.38611300662E+02  0.47787273209E+02  0.20000009870E+02 0.  0.
        -12    1    1    2    0    0 -0.19417251236E+02 -0.39700002013E+01 -0.38611300662E+02  0.43400726791E+02  0.00000000000E+00 0.  1.
         11    1    3    3    0    0  0.15857204649E+02 -0.97583316504E+00  0.29303782458E+02  0.33333389510E+02  0.51100000000E-03 0. -1.
        -11    1    3    3    0    0  0.57674959312E+01  0.49018290686E+00  0.66482817902E+01  0.88149838129E+01  0.51100000000E-03 0.  1.
        -12    1    3    3    0    0 -0.22074493440E+01  0.44556504594E+01  0.26592364142E+01  0.56388998865E+01  0.00000000000E+00 0.  1.
</event>
<event>
 7    1  0.3742599E-009  0.4778727E+02  0.7816164E-02  0.1312668E+00
        -11   -1    0    0    0    0  0.00000000000E+00  0.00000000000E+00  0.45593999997E+02  0.45594000000E+02  0.51100000000E-03 0. -1.
         11   -1    0    0    0    0 -0.00000000000E+00 -0.00000000000E+00 -0.45593999997E+02  0.45594000000E+02  0.51100000000E-03 0.  1.
    9900012    2    1    2    0    0  0.39380626658E+02 -0.24495471239E+01  0.18077313899E+02  0.47787270572E+02  0.19999997845E+02 0.  0.
        -12    1    1    2    0    0 -0.39380626658E+02  0.24495471239E+01 -0.18077313899E+02  0.43400729428E+02  0.00000000000E+00 0.  1.
         11    1    3    3    0    0  0.87031530435E+01  0.70800432707E+00  0.49404713285E+01  0.10032666656E+02  0.51100000000E-03 0.  1.
        -11    1    3    3    0    0  0.12928597200E+02  0.36122286708E+01 -0.18602379048E+01  0.13552022242E+02  0.51100000000E-03 0. -1.
        -12    1    3    3    0    0  0.17748876415E+02 -0.67697801218E+01  0.14997080475E+02  0.24202581674E+02  0.00000000000E+00 0.  1.
</event>
<event>
 7    1  0.3742599E-009  0.4778727E+02  0.7816164E-02  0.1312668E+00
        -11   -1    0    0    0    0  0.00000000000E+00  0.00000000000E+00  0.45593999997E+02  0.45594000000E+02  0.51100000000E-03 0. -1.
         11   -1    0    0    0    0 -0.00000000000E+00 -0.00000000000E+00 -0.45593999997E+02  0.45594000000E+02  0.51100000000E-03 0.  1.
    9900012    2    1    2    0    0  0.16842312355E+02  0.34305651264E+01  0.39852113941E+02  0.47787271341E+02  0.20000001353E+02 0.  0.
        -12    1    1    2    0    0 -0.16842312355E+02 -0.34305651264E+01 -0.39852113941E+02  0.43400728659E+02  0.00000000000E+00 0.  1.
         11    1    3    3    0    0  0.15886737698E+01 -0.31723458040E+01  0.17957199170E+02  0.18304334583E+02  0.51100000000E-03 0. -1.
        -11    1    3    3    0    0 -0.10033805676E+00  0.11617041198E+01  0.79637162936E+01  0.80486273149E+01  0.51100000000E-03 0.  1.
        -12    1    3    3    0    0  0.15353976642E+02  0.54412068106E+01  0.13931198478E+02  0.21434309443E+02  0.00000000000E+00 0.  1.
</event>
<event>
 7    1  0.3742599E-009  0.4778727E+02  0.7816164E-02  0.1312668E+00
        -11   -1    0    0    0    0  0.00000000000E+00  0.00000000000E+00  0.45593999997E+02  0.45594000000E+02  0.51100000000E-03 0. -1.
         11   -1    0    0    0    0 -0.00000000000E+00 -0.00000000000E+00 -0.45593999997E+02  0.45594000000E+02  0.51100000000E-03 0.  1.
    9900012    2    1    2    0    0 -0.71984749725E+01  0.57753600871E+01  0.42408138799E+02  0.47787273480E+02  0.20000011106E+02 0.  0.
        -12    1    1    2    0    0  0.71984749725E+01 -0.57753600871E+01 -0.42408138799E+02  0.43400726520E+02  0.00000000000E+00 0.  1.
         11    1    3    3    0    0 -0.24235050784E+01 -0.15023208571E+01  0.16551473138E+01  0.32969467260E+01  0.51100000000E-03 0. -1.
        -11    1    3    3    0    0 -0.91297629467E+01 -0.30414662771E-03  0.17490341002E+02  0.19729789664E+02  0.51100000000E-03 0.  1.
        -12    1    3    3    0    0  0.43547930526E+01  0.72779850908E+01  0.23262650483E+02  0.24760537090E+02  0.00000000000E+00 0.  1.
</event>
<event>
 7    1  0.3742599E-009  0.4778726E+02  0.7816164E-02  0.1312668E+00
        -11   -1    0    0    0    0  0.00000000000E+00  0.00000000000E+00  0.45593999997E+02  0.45594000000E+02  0.51100000000E-03 0. -1.
         11   -1    0    0    0    0 -0.00000000000E+00 -0.00000000000E+00 -0.45593999997E+02  0.45594000000E+02  0.51100000000E-03 0.  1.
    9900012    2    1    2    0    0  0.24998468562E+02 -0.13493449710E+02  0.32812006279E+02  0.47787258399E+02  0.19999942342E+02 0.  0.
        -12    1    1    2    0    0 -0.24998468562E+02  0.13493449710E+02 -0.32812006279E+02  0.43400741601E+02  0.00000000000E+00 0.  1.
         11    1    3    3    0    0  0.53215690691E+01 -0.50385469074E+00  0.12780019206E+00  0.53468963012E+01  0.51100000000E-03 0. -1.
        -11    1    3    3    0    0  0.33778196042E+01  0.12633035022E+01  0.48559863867E+00  0.36388744573E+01  0.51100000000E-03 0.  1.
         12    1    3    3    0    0  0.16299079889E+02 -0.14252898522E+02  0.32198607448E+02  0.38801487640E+02  0.00000000000E+00 0. -1.
</event>
<event>
 7    1  0.3742599E-009  0.4778727E+02  0.7816164E-02  0.1312668E+00
        -11   -1    0    0    0    0  0.00000000000E+00  0.00000000000E+00  0.45593999997E+02  0.45594000000E+02  0.51100000000E-03 0. -1.
         11   -1    0    0    0    0 -0.00000000000E+00 -0.00000000000E+00 -0.45593999997E+02  0.45594000000E+02  0.51100000000E-03 0.  1.
    9900012    2    1    2    0    0  0.12986851954E+02 -0.37033666520E+01  0.41246215811E+02  0.47787267668E+02  0.19999984604E+02 0.  0.
        -12    1    1    2    0    0 -0.12986851954E+02  0.37033666520E+01 -0.41246215811E+02  0.43400732332E+02  0.00000000000E+00 0.  1.
         11    1    3    3    0    0  0.10411682638E+02  0.11869853364E+01  0.27084347929E+02  0.29040901717E+02  0.51100000000E-03 0. -1.
        -11    1    3    3    0    0  0.54145197832E+01 -0.21553316890E+00  0.11392762531E+02  0.12615804270E+02  0.51100000000E-03 0.  1.
        -12    1    3    3    0    0 -0.28393504677E+01 -0.46748188195E+01  0.27691053518E+01  0.61305616809E+01  0.00000000000E+00 0.  1.
</event>
<event>
 7    1  0.3742599E-009  0.4778727E+02  0.7816164E-02  0.1312668E+00
        -11   -1    0    0    0    0  0.00000000000E+00  0.00000000000E+00  0.45593999997E+02  0.45594000000E+02  0.51100000000E-03 0. -1.
         11   -1    0    0    0    0 -0.00000000000E+00 -0.00000000000E+00 -0.45593999997E+02  0.45594000000E+02  0.51100000000E-03 0.  1.
    9900012    2    1    2    0    0 -0.26139936245E+02 -0.16062214929E+02  0.30697430634E+02  0.47787271172E+02  0.20000000581E+02 0.  0.
        -12    1    1    2    0    0  0.26139936245E+02  0.16062214929E+02 -0.30697430634E+02  0.43400728828E+02  0.00000000000E+00 0.  1.
         11    1    3    3    0    0 -0.19074710552E+02 -0.86318018096E+01  0.86746724254E+01  0.22662800512E+02  0.51100000000E-03 0. -1.
        -11    1    3    3    0    0 -0.85609875029E+00 -0.65984746325E-02 -0.20569996120E+00  0.88048926472E+00  0.51100000000E-03 0.  1.
        -12    1    3    3    0    0 -0.62091269426E+01 -0.74238146453E+01  0.22228458169E+02  0.24243981395E+02  0.00000000000E+00 0.  1.
</event>
<event>
 7    1  0.3742599E-009  0.4778727E+02  0.7816164E-02  0.1312668E+00
        -11   -1    0    0    0    0  0.00000000000E+00  0.00000000000E+00  0.45593999997E+02  0.45594000000E+02  0.51100000000E-03 0.  1.
         11   -1    0    0    0    0 -0.00000000000E+00 -0.00000000000E+00 -0.45593999997E+02  0.45594000000E+02  0.51100000000E-03 0. -1.
    9900012    2    1    2    0    0  0.12604793474E+02 -0.20624926670E+02 -0.36046564649E+02  0.47787271415E+02  0.20000001691E+02 0.  0.
        -12    1    1    2    0    0 -0.12604793474E+02  0.20624926670E+02  0.36046564649E+02  0.43400728585E+02  0.00000000000E+00 0.  1.
         11    1    3    3    0    0  0.24688900436E+01 -0.11145167165E+02 -0.12945886298E+02  0.17259957748E+02  0.51100000000E-03 0. -1.
        -11    1    3    3    0    0 -0.34648347895E+01 -0.36019749258E+01 -0.43235106520E+01  0.66084830411E+01  0.51100000000E-03 0.  1.
        -12    1    3    3    0    0  0.13600738220E+02 -0.58777845791E+01 -0.18777167700E+02  0.23918830626E+02  0.00000000000E+00 0.  1.
</event>
<event>
 7    1  0.3742599E-009  0.4778727E+02  0.7816164E-02  0.1312668E+00
        -11   -1    0    0    0    0  0.00000000000E+00  0.00000000000E+00  0.45593999997E+02  0.45594000000E+02  0.51100000000E-03 0.  1.
         11   -1    0    0    0    0 -0.00000000000E+00 -0.00000000000E+00 -0.45593999997E+02  0.45594000000E+02  0.51100000000E-03 0. -1.
    9900012    2    1    2    0    0 -0.84136416300E+01  0.91927914304E+01 -0.41573147554E+02  0.47787269853E+02  0.19999994568E+02 0.  0.
        -12    1    1    2    0    0  0.84136416300E+01 -0.91927914304E+01  0.41573147554E+02  0.43400730147E+02  0.00000000000E+00 0.  1.
         11    1    3    3    0    0  0.11369234016E+01  0.42963461746E+01 -0.49907685132E+01  0.66827356589E+01  0.51100000000E-03 0. -1.
        -11    1    3    3    0    0  0.23179972357E+01 -0.34728335120E+01 -0.94086360940E+01  0.10293498783E+02  0.51100000000E-03 0.  1.
         12    1    3    3    0    0 -0.11868562267E+02  0.83692787678E+01 -0.27173742946E+02  0.30811035411E+02  0.00000000000E+00 0. -1.
</event>
<event>
 7    1  0.3742599E-009  0.4778726E+02  0.7816164E-02  0.1312668E+00
        -11   -1    0    0    0    0  0.00000000000E+00  0.00000000000E+00  0.45593999997E+02  0.45594000000E+02  0.51100000000E-03 0. -1.
         11   -1    0    0    0    0 -0.00000000000E+00 -0.00000000000E+00 -0.45593999997E+02  0.45594000000E+02  0.51100000000E-03 0.  1.
    9900012    2    1    2    0    0 -0.29091801669E+02 -0.26102146124E+02  0.18867140104E+02  0.47787263458E+02  0.19999965412E+02 0.  0.
        -12    1    1    2    0    0  0.29091801669E+02  0.26102146124E+02 -0.18867140104E+02  0.43400736542E+02  0.00000000000E+00 0.  1.
         11    1    3    3    0    0 -0.10878024079E+02 -0.19577378213E+02  0.16080086688E+02  0.27571259197E+02  0.51100000000E-03 0. -1.
        -11    1    3    3    0    0 -0.35247057509E+01 -0.35445586479E+01  0.17536058610E+00  0.50018194924E+01  0.51100000000E-03 0.  1.
        -12    1    3    3    0    0 -0.14689071839E+02 -0.29802092634E+01  0.26116928306E+01  0.15214184769E+02  0.00000000000E+00 0.  1.
</event>
<event>
 7    1  0.3742599E-009  0.4778726E+02  0.7816164E-02  0.1312668E+00
        -11   -1    0    0    0    0  0.00000000000E+00  0.00000000000E+00  0.45593999997E+02  0.45594000000E+02  0.51100000000E-03 0. -1.
         11   -1    0    0    0    0 -0.00000000000E+00 -0.00000000000E+00 -0.45593999997E+02  0.45594000000E+02  0.51100000000E-03 0.  1.
    9900012    2    1    2    0    0  0.16569033442E+02 -0.36777264990E+02 -0.16016383212E+02  0.47787255530E+02  0.19999929265E+02 0.  0.
        -12    1    1    2    0    0 -0.16569033442E+02  0.36777264990E+02  0.16016383212E+02  0.43400744470E+02  0.00000000000E+00 0.  1.
         11    1    3    3    0    0  0.27409390744E+01 -0.23935290789E+02 -0.50096240807E+01  0.24607056424E+02  0.51100000000E-03 0.  1.
        -11    1    3    3    0    0  0.61210586180E+01 -0.53420164634E+01 -0.49076375032E+00  0.81391245119E+01  0.51100000000E-03 0. -1.
         12    1    3    3    0    0  0.77070357496E+01 -0.74999577373E+01 -0.10515995381E+02  0.15041074594E+02  0.00000000000E+00 0. -1.
</event>
<event>
 7    1  0.3742599E-009  0.4778727E+02  0.7816164E-02  0.1312668E+00
        -11   -1    0    0    0    0  0.00000000000E+00  0.00000000000E+00  0.45593999997E+02  0.45594000000E+02  0.51100000000E-03 0. -1.
         11   -1    0    0    0    0 -0.00000000000E+00 -0.00000000000E+00 -0.45593999997E+02  0.45594000000E+02  0.51100000000E-03 0.  1.
    9900012    2    1    2    0    0  0.41404457426E+02  0.81198971071E+01  0.10166678260E+02  0.47787272234E+02  0.20000005424E+02 0.  0.
        -12    1    1    2    0    0 -0.41404457426E+02 -0.81198971071E+01 -0.10166678260E+02  0.43400727766E+02  0.00000000000E+00 0.  1.
         11    1    3    3    0    0  0.20800004474E+02  0.46540476150E+01  0.92739115925E+01  0.23244478523E+02  0.51100000000E-03 0. -1.
        -11    1    3    3    0    0  0.51744699997E+01  0.11490262388E+01  0.61118345558E+01  0.80901126675E+01  0.51100000000E-03 0.  1.
         12    1    3    3    0    0  0.15429982952E+02  0.23168232533E+01 -0.52190678882E+01  0.16452681044E+02  0.00000000000E+00 0. -1.
</event>
<event>
 7    1  0.3742599E-009  0.4778727E+02  0.7816164E-02  0.1312668E+00
        -11   -1    0    0    0    0  0.00000000000E+00  0.00000000000E+00  0.45593999997E+02  0.45594000000E+02  0.51100000000E-03 0.  1.
         11   -1    0    0    0    0 -0.00000000000E+00 -0.00000000000E+00 -0.45593999997E+02  0.45594000000E+02  0.51100000000E-03 0. -1.
    9900012    2    1    2    0    0  0.13625619565E+02 -0.34459279108E+02 -0.22594772597E+02  0.47787272196E+02  0.20000005253E+02 0.  0.
        -12    1    1    2    0    0 -0.13625619565E+02  0.34459279108E+02  0.22594772597E+02  0.43400727804E+02  0.00000000000E+00 0.  1.
         11    1    3    3    0    0  0.58292963789E+01 -0.20434089224E+02 -0.70783245721E+01  0.22397218080E+02  0.51100000000E-03 0. -1.
        -11    1    3    3    0    0  0.97425231506E+01 -0.79504023514E+01 -0.59985929897E+01  0.13932292453E+02  0.51100000000E-03 0.  1.
        -12    1    3    3    0    0 -0.19461999645E+01 -0.60747875322E+01 -0.95178550353E+01  0.11457761663E+02  0.00000000000E+00 0.  1.
</event>
<event>
 7    1  0.3742599E-009  0.4778727E+02  0.7816164E-02  0.1312668E+00
        -11   -1    0    0    0    0  0.00000000000E+00  0.00000000000E+00  0.45593999997E+02  0.45594000000E+02  0.51100000000E-03 0.  1.
         11   -1    0    0    0    0 -0.00000000000E+00 -0.00000000000E+00 -0.45593999997E+02  0.45594000000E+02  0.51100000000E-03 0. -1.
    9900012    2    1    2    0    0  0.36716404443E+01  0.24045390570E+02 -0.35943870018E+02  0.47787267943E+02  0.19999985860E+02 0.  0.
        -12    1    1    2    0    0 -0.36716404443E+01 -0.24045390570E+02  0.35943870018E+02  0.43400732057E+02  0.00000000000E+00 0.  1.
         11    1    3    3    0    0 -0.50216576541E+01  0.87910527880E+01 -0.14958019332E+02  0.18062170338E+02  0.51100000000E-03 0. -1.
        -11    1    3    3    0    0  0.40911611593E+01  0.51669486789E+01 -0.72687383984E+00  0.66304829479E+01  0.51100000000E-03 0.  1.
         12    1    3    3    0    0  0.46021369390E+01  0.10087389103E+02 -0.20258976845E+02  0.23094614657E+02  0.00000000000E+00 0. -1.
</event>
<event>
 7    1  0.3742599E-009  0.4778726E+02  0.7816164E-02  0.1312668E+00
        -11   -1    0    0    0    0  0.00000000000E+00  0.00000000000E+00  0.45593999997E+02  0.45594000000E+02  0.51100000000E-03 0. -1.
         11   -1    0    0    0    0 -0.00000000000E+00 -0.00000000000E+00 -0.45593999997E+02  0.45594000000E+02  0.51100000000E-03 0.  1.
    9900012    2    1    2    0    0  0.19445339880E+02  0.37973322609E+02 -0.79705383067E+01  0.47787263210E+02  0.19999964279E+02 0.  0.
        -12    1    1    2    0    0 -0.19445339880E+02 -0.37973322609E+02  0.79705383067E+01  0.43400736790E+02  0.00000000000E+00 0.  1.
         11    1    3    3    0    0 -0.18522046082E+00 -0.79660457784E+00  0.18363918994E+01  0.20102788219E+01  0.51100000000E-03 0. -1.
        -11    1    3    3    0    0  0.59895650018E+01  0.15331133838E+02  0.12130357383E+01  0.16504242171E+02  0.51100000000E-03 0.  1.
        -12    1    3    3    0    0  0.13640995339E+02  0.23438793349E+02 -0.11019965944E+02  0.29272742217E+02  0.00000000000E+00 0.  1.
</event>
<event>
 7    1  0.3742599E-009  0.4778727E+02  0.7816164E-02  0.1312668E+00
        -11   -1    0    0    0    0  0.00000000000E+00  0.00000000000E+00  0.45593999997E+02  0.45594000000E+02  0.51100000000E-03 0.  1.
         11   -1    0    0    0    0 -0.00000000000E+00 -0.00000000000E+00 -0.45593999997E+02  0.45594000000E+02  0.51100000000E-03 0. -1.
    9900012    2    1    2    0    0 -0.21695305318E+02  0.25936113913E+02 -0.27207633111E+02  0.47787267549E+02  0.19999984064E+02 0.  0.
        -12    1    1    2    0    0  0.21695305318E+02 -0.25936113913E+02  0.27207633111E+02  0.43400732451E+02  0.00000000000E+00 0.  1.
         11    1    3    3    0    0  0.24901168366E+01  0.21256482192E+01 -0.77114605845E+01  0.83776898259E+01  0.51100000000E-03 0. -1.
        -11    1    3    3    0    0 -0.13282010448E+02  0.14621660113E+02 -0.90184232665E+01  0.21714895912E+02  0.51100000000E-03 0.  1.
        -12    1    3    3    0    0 -0.10903411707E+02  0.91888055812E+01 -0.10477749260E+02  0.17694681812E+02  0.00000000000E+00 0.  1.
</event>
<event>
 7    1  0.3742599E-009  0.4778727E+02  0.7816164E-02  0.1312668E+00
        -11   -1    0    0    0    0  0.00000000000E+00  0.00000000000E+00  0.45593999997E+02  0.45594000000E+02  0.51100000000E-03 0.  1.
         11   -1    0    0    0    0 -0.00000000000E+00 -0.00000000000E+00 -0.45593999997E+02  0.45594000000E+02  0.51100000000E-03 0. -1.
    9900012    2    1    2    0    0  0.43363944541E+02 -0.16898454942E+01  0.57953613863E+00  0.47787272747E+02  0.20000007764E+02 0.  0.
        -12    1    1    2    0    0 -0.43363944541E+02  0.16898454942E+01 -0.57953613863E+00  0.43400727253E+02  0.00000000000E+00 0.  1.
         11    1    3    3    0    0  0.30924493519E+02  0.74381684710E+00 -0.65378575775E+01  0.31616785808E+02  0.51100000000E-03 0. -1.
        -11    1    3    3    0    0  0.22870743929E+01 -0.29573742169E+01 -0.38241521614E-01  0.37387476797E+01  0.51100000000E-03 0.  1.
         12    1    3    3    0    0  0.10152376629E+02  0.52371187558E+00  0.71556352377E+01  0.12431739259E+02  0.00000000000E+00 0. -1.
</event>
<event>
 7    1  0.3742599E-009  0.4778727E+02  0.7816164E-02  0.1312668E+00
        -11   -1    0    0    0    0  0.00000000000E+00  0.00000000000E+00  0.45593999997E+02  0.45594000000E+02  0.51100000000E-03 0.  1.
         11   -1    0    0    0    0 -0.00000000000E+00 -0.00000000000E+00 -0.45593999997E+02  0.45594000000E+02  0.51100000000E-03 0. -1.
    9900012    2    1    2    0    0  0.32692608194E+02  0.83618759626E+01 -0.27292777790E+02  0.47787270517E+02  0.19999997596E+02 0.  0.
        -12    1    1    2    0    0 -0.32692608194E+02 -0.83618759626E+01  0.27292777790E+02  0.43400729483E+02  0.00000000000E+00 0.  1.
         11    1    3    3    0    0  0.17980310167E+02  0.78149782907E+01 -0.16116058622E+02  0.25378983138E+02  0.51100000000E-03 0. -1.
        -11    1    3    3    0    0  0.16492043154E+02  0.21457819464E+01 -0.80657086637E+01  0.18483709695E+02  0.51100000000E-03 0.  1.
        -12    1    3    3    0    0 -0.17797451271E+01 -0.15988842745E+01 -0.31110105045E+01  0.39245776842E+01  0.00000000000E+00 0.  1.
</event>
<event>
 7    1  0.3742599E-009  0.4778727E+02  0.7816164E-02  0.1312668E+00
        -11   -1    0    0    0    0  0.00000000000E+00  0.00000000000E+00  0.45593999997E+02  0.45594000000E+02  0.51100000000E-03 0. -1.
         11   -1    0    0    0    0 -0.00000000000E+00 -0.00000000000E+00 -0.45593999997E+02  0.45594000000E+02  0.51100000000E-03 0.  1.
    9900012    2    1    2    0    0  0.15913141337E+01  0.43371277835E+02 -0.15196595462E+00  0.47787272870E+02  0.20000008325E+02 0.  0.
        -12    1    1    2    0    0 -0.15913141337E+01 -0.43371277835E+02  0.15196595462E+00  0.43400727130E+02  0.00000000000E+00 0.  1.
         11    1    3    3    0    0 -0.18557127997E+01  0.83763269759E+00  0.23288469859E+01  0.30933520776E+01  0.51100000000E-03 0. -1.
        -11    1    3    3    0    0 -0.64004162540E-01 -0.65930712870E+00  0.10212085180E+01  0.12172302662E+01  0.51100000000E-03 0.  1.
         12    1    3    3    0    0  0.35110310959E+01  0.43192952266E+02 -0.35020214585E+01  0.43476690526E+02  0.00000000000E+00 0. -1.
</event>
<event>
 7    1  0.3742599E-009  0.4778727E+02  0.7816164E-02  0.1312668E+00
        -11   -1    0    0    0    0  0.00000000000E+00  0.00000000000E+00  0.45593999997E+02  0.45594000000E+02  0.51100000000E-03 0.  1.
         11   -1    0    0    0    0 -0.00000000000E+00 -0.00000000000E+00 -0.45593999997E+02  0.45594000000E+02  0.51100000000E-03 0. -1.
    9900012    2    1    2    0    0  0.19822513337E+01 -0.36126232477E+02 -0.23970593423E+02  0.47787270255E+02  0.19999996401E+02 0.  0.
        -12    1    1    2    0    0 -0.19822513337E+01  0.36126232477E+02  0.23970593423E+02  0.43400729745E+02  0.00000000000E+00 0.  1.
         11    1    3    3    0    0  0.13726081722E+00 -0.17752307823E+01  0.19569217903E+01  0.26457188091E+01  0.51100000000E-03 0. -1.
        -11    1    3    3    0    0  0.42765119243E+01 -0.10848645523E+02 -0.26186032691E+01  0.11951516526E+02  0.51100000000E-03 0.  1.
         12    1    3    3    0    0 -0.24315214079E+01 -0.23502356172E+02 -0.23308911944E+02  0.33190034920E+02  0.00000000000E+00 0. -1.
</event>
<event>
 7    1  0.3742599E-009  0.4778726E+02  0.7816164E-02  0.1312668E+00
        -11   -1    0    0    0    0  0.00000000000E+00  0.00000000000E+00  0.45593999997E+02  0.45594000000E+02  0.51100000000E-03 0.  1.
         11   -1    0    0    0    0 -0.00000000000E+00 -0.00000000000E+00 -0.45593999997E+02  0.45594000000E+02  0.51100000000E-03 0. -1.
    9900012    2    1    2    0    0  0.33659429078E+02  0.18428643981E+02 -0.20274425204E+02  0.47787258046E+02  0.19999940733E+02 0.  0.
        -12    1    1    2    0    0 -0.33659429078E+02 -0.18428643981E+02  0.20274425204E+02  0.43400741954E+02  0.00000000000E+00 0.  1.
         11    1    3    3    0    0  0.13260557375E+01  0.27010628465E+00 -0.72093659014E+00  0.15333398358E+01  0.51100000000E-03 0. -1.
        -11    1    3    3    0    0  0.17916472437E+02 -0.94241306681E+00 -0.94457513437E+01  0.20275856226E+02  0.51100000000E-03 0.  1.
         12    1    3    3    0    0  0.14416900903E+02  0.19100950763E+02 -0.10107737270E+02  0.25978061984E+02  0.00000000000E+00 0. -1.
</event>
<event>
 7    1  0.3742599E-009  0.4778727E+02  0.7816164E-02  0.1312668E+00
        -11   -1    0    0    0    0  0.00000000000E+00  0.00000000000E+00  0.45593999997E+02  0.45594000000E+02  0.51100000000E-03 0. -1.
         11   -1    0    0    0    0 -0.00000000000E+00 -0.00000000000E+00 -0.45593999997E+02  0.45594000000E+02  0.51100000000E-03 0.  1.
    9900012    2    1    2    0    0  0.11892010668E+02 -0.31278651165E+02  0.27637822576E+02  0.47787272205E+02  0.20000005292E+02 0.  0.
        -12    1    1    2    0    0 -0.11892010668E+02  0.31278651165E+02 -0.27637822576E+02  0.43400727795E+02  0.00000000000E+00 0.  1.
         11    1    3    3    0    0  0.69928593283E+01 -0.10842694345E+02  0.95545438869E+01  0.16054700601E+02  0.51100000000E-03 0. -1.
        -11    1    3    3    0    0  0.59432517995E+01 -0.15635174280E+02  0.45490569387E+01  0.17334209991E+02  0.51100000000E-03 0.  1.
        -12    1    3    3    0    0 -0.10441004599E+01 -0.48007825403E+01  0.13534221750E+02  0.14398361614E+02  0.00000000000E+00 0.  1.
</event>
<event>
 7    1  0.3742599E-009  0.4778726E+02  0.7816164E-02  0.1312668E+00
        -11   -1    0    0    0    0  0.00000000000E+00  0.00000000000E+00  0.45593999997E+02  0.45594000000E+02  0.51100000000E-03 0.  1.
         11   -1    0    0    0    0 -0.00000000000E+00 -0.00000000000E+00 -0.45593999997E+02  0.45594000000E+02  0.51100000000E-03 0. -1.
    9900012    2    1    2    0    0  0.15698554967E+02  0.22613543042E+02 -0.33553047836E+02  0.47787262955E+02  0.19999963118E+02 0.  0.
        -12    1    1    2    0    0 -0.15698554967E+02 -0.22613543042E+02  0.33553047836E+02  0.43400737045E+02  0.00000000000E+00 0.  1.
         11    1    3    3    0    0 -0.64123480376E+00 -0.66454274473E+00  0.58011676172E+00  0.10905662985E+01  0.51100000000E-03 0. -1.
        -11    1    3    3    0    0 -0.94990228097E+00 -0.14081735551E+01 -0.13950064023E+01  0.21980241646E+01  0.51100000000E-03 0.  1.
         12    1    3    3    0    0  0.17289692052E+02  0.24686259342E+02 -0.32738158195E+02  0.44498672492E+02  0.00000000000E+00 0. -1.
</event>
<event>
 7    1  0.3742599E-009  0.4778727E+02  0.7816164E-02  0.1312668E+00
        -11   -1    0    0    0    0  0.00000000000E+00  0.00000000000E+00  0.45593999997E+02  0.45594000000E+02  0.51100000000E-03 0.  1.
         11   -1    0    0    0    0 -0.00000000000E+00 -0.00000000000E+00 -0.45593999997E+02  0.45594000000E+02  0.51100000000E-03 0. -1.
    9900012    2    1    2    0    0  0.17082603874E+01  0.34692607258E+01 -0.43228105439E+02  0.47787273930E+02  0.20000013156E+02 0.  0.
        -12    1    1    2    0    0 -0.17082603874E+01 -0.34692607258E+01  0.43228105439E+02  0.43400726070E+02  0.00000000000E+00 0.  1.
         11    1    3    3    0    0  0.20057267516E+01 -0.16967890978E+01 -0.25765203758E+02  0.25898798389E+02  0.51100000000E-03 0. -1.
        -11    1    3    3    0    0 -0.54535100203E+01 -0.48636066835E-01 -0.10204456058E+02  0.11570395875E+02  0.51100000000E-03 0.  1.
        -12    1    3    3    0    0  0.51560436561E+01  0.52146858904E+01 -0.72584456235E+01  0.10318079666E+02  0.00000000000E+00 0.  1.
</event>
<event>
 7    1  0.3742599E-009  0.4778728E+02  0.7816164E-02  0.1312668E+00
        -11   -1    0    0    0    0  0.00000000000E+00  0.00000000000E+00  0.45593999997E+02  0.45594000000E+02  0.51100000000E-03 0.  1.
         11   -1    0    0    0    0 -0.00000000000E+00 -0.00000000000E+00 -0.45593999997E+02  0.45594000000E+02  0.51100000000E-03 0. -1.
    9900012    2    1    2    0    0  0.18663594045E+02 -0.38379565799E+02 -0.78931344912E+01  0.47787281277E+02  0.20000046655E+02 0.  0.
        -12    1    1    2    0    0 -0.18663594045E+02  0.38379565799E+02  0.78931344912E+01  0.43400718723E+02  0.00000000000E+00 0.  1.
         11    1    3    3    0    0 -0.12397944529E+01 -0.37903035139E+01  0.26519086660E+01  0.47891659865E+01  0.51100000000E-03 0.  1.
        -11    1    3    3    0    0  0.11520084669E+02 -0.15848116933E+02  0.66952051754E+00  0.19604168411E+02  0.51100000000E-03 0. -1.
         12    1    3    3    0    0  0.83833038283E+01 -0.18741145352E+02 -0.11214563675E+02  0.23393946879E+02  0.00000000000E+00 0. -1.
</event>
<event>
 7    1  0.3742599E-009  0.4778724E+02  0.7816164E-02  0.1312668E+00
        -11   -1    0    0    0    0  0.00000000000E+00  0.00000000000E+00  0.45593999997E+02  0.45594000000E+02  0.51100000000E-03 0. -1.
         11   -1    0    0    0    0 -0.00000000000E+00 -0.00000000000E+00 -0.45593999997E+02  0.45594000000E+02  0.51100000000E-03 0.  1.
    9900012    2    1    2    0    0 -0.14865309602E+02 -0.25160109741E+02  0.32087657605E+02  0.47787235925E+02  0.19999839874E+02 0.  0.
        -12    1    1    2    0    0  0.14865309602E+02  0.25160109741E+02 -0.32087657605E+02  0.43400764075E+02  0.00000000000E+00 0.  1.
         11    1    3    3    0    0 -0.70587031663E+01 -0.75592585473E+01  0.24316091363E+02  0.26424230918E+02  0.51100000000E-03 0. -1.
        -11    1    3    3    0    0  0.65070605059E+00 -0.15685534798E+01  0.16757035558E+00  0.17064168508E+01  0.51100000000E-03 0.  1.
         12    1    3    3    0    0 -0.84573124866E+01 -0.16032297714E+02  0.76039958862E+01  0.19656588156E+02  0.00000000000E+00 0. -1.
</event>
<event>
 7    1  0.3742599E-009  0.4778727E+02  0.7816164E-02  0.1312668E+00
        -11   -1    0    0    0    0  0.00000000000E+00  0.00000000000E+00  0.45593999997E+02  0.45594000000E+02  0.51100000000E-03 0. -1.
         11   -1    0    0    0    0 -0.00000000000E+00 -0.00000000000E+00 -0.45593999997E+02  0.45594000000E+02  0.51100000000E-03 0.  1.
    9900012    2    1    2    0    0  0.25186483168E+02 -0.75897670066E+01  0.34520426493E+02  0.47787270250E+02  0.19999996377E+02 0.  0.
        -12    1    1    2    0    0 -0.25186483168E+02  0.75897670066E+01 -0.34520426493E+02  0.43400729750E+02  0.00000000000E+00 0.  1.
         11    1    3    3    0    0 -0.41840350568E+00 -0.10850877647E+01  0.65548341840E+01  0.66572012431E+01  0.51100000000E-03 0. -1.
        -11    1    3    3    0    0  0.15121887772E+02 -0.98588942737E+01  0.22484175345E+02  0.28834136493E+02  0.51100000000E-03 0.  1.
        -12    1    3    3    0    0  0.10482998901E+02  0.33542150318E+01  0.54814169638E+01  0.12295932513E+02  0.00000000000E+00 0.  1.
</event>
<event>
 7    1  0.3742599E-009  0.4778727E+02  0.7816164E-02  0.1312668E+00
        -11   -1    0    0    0    0  0.00000000000E+00  0.00000000000E+00  0.45593999997E+02  0.45594000000E+02  0.51100000000E-03 0. -1.
         11   -1    0    0    0    0 -0.00000000000E+00 -0.00000000000E+00 -0.45593999997E+02  0.45594000000E+02  0.51100000000E-03 0.  1.
    9900012    2    1    2    0    0 -0.28099877101E+02 -0.31970364761E+02  0.84803250174E+01  0.47787271568E+02  0.20000002387E+02 0.  0.
        -12    1    1    2    0    0  0.28099877101E+02  0.31970364761E+02 -0.84803250174E+01  0.43400728432E+02  0.00000000000E+00 0.  1.
         11    1    3    3    0    0 -0.23969179782E+01  0.10791393976E+01  0.10520030199E+00  0.26307460916E+01  0.51100000000E-03 0. -1.
        -11    1    3    3    0    0 -0.12568665687E+01 -0.72543534882E+01 -0.28384687970E+01  0.78906440469E+01  0.51100000000E-03 0.  1.
         12    1    3    3    0    0 -0.24446092554E+02 -0.25795150671E+02  0.11213593512E+02  0.37265881430E+02  0.00000000000E+00 0. -1.
</event>
<event>
 7    1  0.3742599E-009  0.4778727E+02  0.7816164E-02  0.1312668E+00
        -11   -1    0    0    0    0  0.00000000000E+00  0.00000000000E+00  0.45593999997E+02  0.45594000000E+02  0.51100000000E-03 0.  1.
         11   -1    0    0    0    0 -0.00000000000E+00 -0.00000000000E+00 -0.45593999997E+02  0.45594000000E+02  0.51100000000E-03 0. -1.
    9900012    2    1    2    0    0  0.18230804113E+02 -0.35439073050E+02 -0.17185260251E+02  0.47787270892E+02  0.19999999305E+02 0.  0.
        -12    1    1    2    0    0 -0.18230804113E+02  0.35439073050E+02  0.17185260251E+02  0.43400729108E+02  0.00000000000E+00 0.  1.
         11    1    3    3    0    0 -0.19858653123E+01 -0.48131208027E+01  0.56112292981E+00  0.52368551730E+01  0.51100000000E-03 0.  1.
        -11    1    3    3    0    0  0.55698700234E+01 -0.18076580901E+01 -0.53387937782E+01  0.79242538523E+01  0.51100000000E-03 0. -1.
         12    1    3    3    0    0  0.14646799402E+02 -0.28818294157E+02 -0.12407589402E+02  0.34626161867E+02  0.00000000000E+00 0. -1.
</event>
<event>
 7    1  0.3742599E-009  0.4778727E+02  0.7816164E-02  0.1312668E+00
        -11   -1    0    0    0    0  0.00000000000E+00  0.00000000000E+00  0.45593999997E+02  0.45594000000E+02  0.51100000000E-03 0.  1.
         11   -1    0    0    0    0 -0.00000000000E+00 -0.00000000000E+00 -0.45593999997E+02  0.45594000000E+02  0.51100000000E-03 0. -1.
    9900012    2    1    2    0    0  0.39921978435E+01 -0.27657389243E+02 -0.33207748540E+02  0.47787269747E+02  0.19999994084E+02 0.  0.
        -12    1    1    2    0    0 -0.39921978435E+01  0.27657389243E+02  0.33207748540E+02  0.43400730253E+02  0.00000000000E+00 0.  1.
         11    1    3    3    0    0  0.48158510382E+01 -0.10597938770E+02 -0.20348527734E+02  0.23442937286E+02  0.51100000000E-03 0. -1.
        -11    1    3    3    0    0  0.49205596192E+01 -0.82296720063E+01 -0.89261799777E+01  0.13100232729E+02  0.51100000000E-03 0.  1.
         12    1    3    3    0    0 -0.57442128139E+01 -0.88297784665E+01 -0.39330408287E+01  0.11244099732E+02  0.00000000000E+00 0. -1.
</event>
<event>
 7    1  0.3742599E-009  0.4778729E+02  0.7816164E-02  0.1312668E+00
        -11   -1    0    0    0    0  0.00000000000E+00  0.00000000000E+00  0.45593999997E+02  0.45594000000E+02  0.51100000000E-03 0.  1.
         11   -1    0    0    0    0 -0.00000000000E+00 -0.00000000000E+00 -0.45593999997E+02  0.45594000000E+02  0.51100000000E-03 0. -1.
    9900012    2    1    2    0    0 -0.97601334629E+01  0.31139873870E+02 -0.28612401385E+02  0.47787291908E+02  0.20000095125E+02 0.  0.
        -12    1    1    2    0    0  0.97601334629E+01 -0.31139873870E+02  0.28612401385E+02  0.43400708092E+02  0.00000000000E+00 0.  1.
         11    1    3    3    0    0 -0.43961409418E+01  0.12253950889E+02 -0.16646247196E+02  0.21132508454E+02  0.51100000000E-03 0. -1.
        -11    1    3    3    0    0 -0.73551026672E+01  0.12033193844E+02 -0.13311346093E+02  0.19392968427E+02  0.51100000000E-03 0.  1.
        -12    1    3    3    0    0  0.19911101461E+01  0.68527291371E+01  0.13451919034E+01  0.72618150277E+01  0.00000000000E+00 0.  1.
</event>
<event>
 7    1  0.3742599E-009  0.4778728E+02  0.7816164E-02  0.1312668E+00
        -11   -1    0    0    0    0  0.00000000000E+00  0.00000000000E+00  0.45593999997E+02  0.45594000000E+02  0.51100000000E-03 0.  1.
         11   -1    0    0    0    0 -0.00000000000E+00 -0.00000000000E+00 -0.45593999997E+02  0.45594000000E+02  0.51100000000E-03 0. -1.
    9900012    2    1    2    0    0 -0.29449841576E+02  0.31641691199E+02 -0.38901115971E+01  0.47787276976E+02  0.20000027044E+02 0.  0.
        -12    1    1    2    0    0  0.29449841576E+02 -0.31641691199E+02  0.38901115971E+01  0.43400723024E+02  0.00000000000E+00 0.  1.
         11    1    3    3    0    0 -0.59840677105E+01  0.58283417858E+01 -0.38588474718E+01  0.92015943406E+01  0.51100000000E-03 0. -1.
        -11    1    3    3    0    0 -0.29297837888E+01  0.11406860979E+02 -0.53618597199E+01  0.12940233783E+02  0.51100000000E-03 0.  1.
         12    1    3    3    0    0 -0.20535990077E+02  0.14406488434E+02  0.53305955946E+01  0.25645448852E+02  0.00000000000E+00 0. -1.
</event>
<event>
 7    1  0.3742599E-009  0.4778727E+02  0.7816164E-02  0.1312668E+00
        -11   -1    0    0    0    0  0.00000000000E+00  0.00000000000E+00  0.45593999997E+02  0.45594000000E+02  0.51100000000E-03 0.  1.
         11   -1    0    0    0    0 -0.00000000000E+00 -0.00000000000E+00 -0.45593999997E+02  0.45594000000E+02  0.51100000000E-03 0. -1.
    9900012    2    1    2    0    0  0.24285422816E+02 -0.13236684060E+02 -0.33445953001E+02  0.47787270301E+02  0.19999996609E+02 0.  0.
        -12    1    1    2    0    0 -0.24285422816E+02  0.13236684060E+02  0.33445953001E+02  0.43400729699E+02  0.00000000000E+00 0.  1.
         11    1    3    3    0    0  0.45443006114E+01  0.50667584932E+01 -0.98255569775E+01  0.11952584652E+02  0.51100000000E-03 0. -1.
        -11    1    3    3    0    0  0.34769890037E+01 -0.37196681895E+01 -0.40641221271E+01  0.65147887838E+01  0.51100000000E-03 0.  1.
         12    1    3    3    0    0  0.16264133201E+02 -0.14583774364E+02 -0.19556273897E+02  0.29319896865E+02  0.00000000000E+00 0. -1.
</event>
<event>
 7    1  0.3742599E-009  0.4778727E+02  0.7816164E-02  0.1312668E+00
        -11   -1    0    0    0    0  0.00000000000E+00  0.00000000000E+00  0.45593999997E+02  0.45594000000E+02  0.51100000000E-03 0. -1.
         11   -1    0    0    0    0 -0.00000000000E+00 -0.00000000000E+00 -0.45593999997E+02  0.45594000000E+02  0.51100000000E-03 0.  1.
    9900012    2    1    2    0    0 -0.36882574241E+02 -0.20473221064E+02  0.10205197549E+02  0.47787272813E+02  0.20000008061E+02 0.  0.
        -12    1    1    2    0    0  0.36882574241E+02  0.20473221064E+02 -0.10205197549E+02  0.43400727187E+02  0.00000000000E+00 0.  1.
         11    1    3    3    0    0 -0.40628717884E+01 -0.29846009193E+01  0.47798947238E-01  0.50415329828E+01  0.51100000000E-03 0. -1.
        -11    1    3    3    0    0 -0.16347308043E+02 -0.12944460384E+02 -0.31490644256E+01  0.21088151694E+02  0.51100000000E-03 0.  1.
         12    1    3    3    0    0 -0.16472394410E+02 -0.45441597606E+01  0.13306463028E+02  0.21657588135E+02  0.00000000000E+00 0. -1.
</event>
<event>
 7    1  0.3742599E-009  0.4778727E+02  0.7816164E-02  0.1312668E+00
        -11   -1    0    0    0    0  0.00000000000E+00  0.00000000000E+00  0.45593999997E+02  0.45594000000E+02  0.51100000000E-03 0. -1.
         11   -1    0    0    0    0 -0.00000000000E+00 -0.00000000000E+00 -0.45593999997E+02  0.45594000000E+02  0.51100000000E-03 0.  1.
    9900012    2    1    2    0    0 -0.28741900167E+02 -0.21916158129E+02  0.24025163964E+02  0.47787270561E+02  0.19999997794E+02 0.  0.
        -12    1    1    2    0    0  0.28741900167E+02  0.21916158129E+02 -0.24025163964E+02  0.43400729439E+02  0.00000000000E+00 0.  1.
         11    1    3    3    0    0 -0.20479651595E+02 -0.13754145048E+02  0.13494218855E+02  0.28119149671E+02  0.51100000000E-03 0. -1.
        -11    1    3    3    0    0 -0.78932598587E+01 -0.45228413277E+01  0.12541993264E+02  0.15493909777E+02  0.51100000000E-03 0.  1.
         12    1    3    3    0    0 -0.36898871349E+00 -0.36391717540E+01 -0.20110481561E+01  0.41742111125E+01  0.00000000000E+00 0. -1.
</event>
<event>
 7    1  0.3742599E-009  0.4778728E+02  0.7816164E-02  0.1312668E+00
        -11   -1    0    0    0    0  0.00000000000E+00  0.00000000000E+00  0.45593999997E+02  0.45594000000E+02  0.51100000000E-03 0.  1.
         11   -1    0    0    0    0 -0.00000000000E+00 -0.00000000000E+00 -0.45593999997E+02  0.45594000000E+02  0.51100000000E-03 0. -1.
    9900012    2    1    2    0    0 -0.23320920859E+02 -0.31488135107E+02  0.18661588977E+02  0.47787275290E+02  0.20000019356E+02 0.  0.
        -12    1    1    2    0    0  0.23320920859E+02  0.31488135107E+02 -0.18661588977E+02  0.43400724710E+02  0.00000000000E+00 0.  1.
         11    1    3    3    0    0 -0.56287173508E+01 -0.87438087158E+01  0.10231132583E+02  0.14588102140E+02  0.51100000000E-03 0.  1.
        -11    1    3    3    0    0 -0.15259496787E+02 -0.24618757741E+02  0.82789685633E+01  0.30124355522E+02  0.51100000000E-03 0. -1.
         12    1    3    3    0    0 -0.24327067214E+01  0.18744313499E+01  0.15148783156E+00  0.30748176273E+01  0.00000000000E+00 0. -1.
</event>
<event>
 7    1  0.3742599E-009  0.4778726E+02  0.7816164E-02  0.1312668E+00
        -11   -1    0    0    0    0  0.00000000000E+00  0.00000000000E+00  0.45593999997E+02  0.45594000000E+02  0.51100000000E-03 0.  1.
         11   -1    0    0    0    0 -0.00000000000E+00 -0.00000000000E+00 -0.45593999997E+02  0.45594000000E+02  0.51100000000E-03 0. -1.
    9900012    2    1    2    0    0  0.28721194148E+02  0.32272604108E+02 -0.41468345031E+01  0.47787260311E+02  0.19999951062E+02 0.  0.
        -12    1    1    2    0    0 -0.28721194148E+02 -0.32272604108E+02  0.41468345031E+01  0.43400739689E+02  0.00000000000E+00 0.  1.
         11    1    3    3    0    0  0.11805223892E+02  0.11280215283E+02 -0.62845878540E+01  0.17495788428E+02  0.51100000000E-03 0. -1.
        -11    1    3    3    0    0 -0.48190840689E+00  0.78216562171E+01 -0.19861029232E+01  0.80842530128E+01  0.51100000000E-03 0.  1.
         12    1    3    3    0    0  0.17397878663E+02  0.13170732607E+02  0.41238562741E+01  0.22207218870E+02  0.00000000000E+00 0. -1.
</event>
<event>
 7    1  0.3742599E-009  0.4778727E+02  0.7816164E-02  0.1312668E+00
        -11   -1    0    0    0    0  0.00000000000E+00  0.00000000000E+00  0.45593999997E+02  0.45594000000E+02  0.51100000000E-03 0.  1.
         11   -1    0    0    0    0 -0.00000000000E+00 -0.00000000000E+00 -0.45593999997E+02  0.45594000000E+02  0.51100000000E-03 0. -1.
    9900012    2    1    2    0    0 -0.17200309078E+02  0.16225504070E+02 -0.36393758234E+02  0.47787271284E+02  0.20000001092E+02 0.  0.
        -12    1    1    2    0    0  0.17200309078E+02 -0.16225504070E+02  0.36393758234E+02  0.43400728716E+02  0.00000000000E+00 0.  1.
         11    1    3    3    0    0 -0.12715606640E+02  0.17493712794E+02 -0.16964274724E+02  0.27486419496E+02  0.51100000000E-03 0. -1.
        -11    1    3    3    0    0  0.60315097431E+00 -0.23366116115E+00 -0.30639920043E+01  0.31315229361E+01  0.51100000000E-03 0.  1.
        -12    1    3    3    0    0 -0.50878534132E+01 -0.10345475632E+01 -0.16365491505E+02  0.17169328851E+02  0.00000000000E+00 0.  1.
</event>
<event>
 7    1  0.3742599E-009  0.4778727E+02  0.7816164E-02  0.1312668E+00
        -11   -1    0    0    0    0  0.00000000000E+00  0.00000000000E+00  0.45593999997E+02  0.45594000000E+02  0.51100000000E-03 0. -1.
         11   -1    0    0    0    0 -0.00000000000E+00 -0.00000000000E+00 -0.45593999997E+02  0.45594000000E+02  0.51100000000E-03 0.  1.
    9900012    2    1    2    0    0  0.35092232507E+02  0.18198061580E+02  0.17916165177E+02  0.47787271870E+02  0.20000003763E+02 0.  0.
        -12    1    1    2    0    0 -0.35092232507E+02 -0.18198061580E+02 -0.17916165177E+02  0.43400728130E+02  0.00000000000E+00 0.  1.
         11    1    3    3    0    0  0.25821373275E+02  0.12964338605E+02  0.72852653240E+01  0.29797524803E+02  0.51100000000E-03 0. -1.
        -11    1    3    3    0    0  0.67010115839E+01  0.33308158800E+01  0.65257665026E+00  0.75115742171E+01  0.51100000000E-03 0.  1.
        -12    1    3    3    0    0  0.25698476485E+01  0.19029070945E+01  0.99783232023E+01  0.10478172850E+02  0.00000000000E+00 0.  1.
</event>
<event>
 7    1  0.3742599E-009  0.4778727E+02  0.7816164E-02  0.1312668E+00
        -11   -1    0    0    0    0  0.00000000000E+00  0.00000000000E+00  0.45593999997E+02  0.45594000000E+02  0.51100000000E-03 0.  1.
         11   -1    0    0    0    0 -0.00000000000E+00 -0.00000000000E+00 -0.45593999997E+02  0.45594000000E+02  0.51100000000E-03 0. -1.
    9900012    2    1    2    0    0 -0.31386978867E+02  0.29963676179E+02 -0.81189942077E+00  0.47787268288E+02  0.19999987430E+02 0.  0.
        -12    1    1    2    0    0  0.31386978867E+02 -0.29963676179E+02  0.81189942077E+00  0.43400731712E+02  0.00000000000E+00 0.  1.
         11    1    3    3    0    0 -0.17593238671E+02  0.95278055832E+01  0.43039630882E+01  0.20465219879E+02  0.51100000000E-03 0. -1.
        -11    1    3    3    0    0 -0.29575595851E+01  0.80252687480E+01  0.28586570313E+01  0.90179830041E+01  0.51100000000E-03 0.  1.
         12    1    3    3    0    0 -0.10836180610E+02  0.12410601847E+02 -0.79745195403E+01  0.18304065404E+02  0.00000000000E+00 0. -1.
</event>
<event>
 7    1  0.3742599E-009  0.4778727E+02  0.7816164E-02  0.1312668E+00
        -11   -1    0    0    0    0  0.00000000000E+00  0.00000000000E+00  0.45593999997E+02  0.45594000000E+02  0.51100000000E-03 0. -1.
         11   -1    0    0    0    0 -0.00000000000E+00 -0.00000000000E+00 -0.45593999997E+02  0.45594000000E+02  0.51100000000E-03 0.  1.
    9900012    2    1    2    0    0  0.30674966323E+02 -0.20551355257E+01  0.30634064787E+02  0.47787273436E+02  0.20000010905E+02 0.  0.
        -12    1    1    2    0    0 -0.30674966323E+02  0.20551355257E+01 -0.30634064787E+02  0.43400726564E+02  0.00000000000E+00 0.  1.
         11    1    3    3    0    0  0.15325315468E+02  0.27946993147E+01  0.89589562773E+01  0.17970490708E+02  0.51100000000E-03 0. -1.
        -11    1    3    3    0    0  0.16882564513E+02 -0.34571740695E+01  0.21743701599E+02  0.27744577787E+02  0.51100000000E-03 0.  1.
        -12    1    3    3    0    0 -0.15329136579E+01 -0.13926607709E+01 -0.68593090226E-01  0.20722049410E+01  0.00000000000E+00 0.  1.
</event>
<event>
 7    1  0.3742599E-009  0.4778727E+02  0.7816164E-02  0.1312668E+00
        -11   -1    0    0    0    0  0.00000000000E+00  0.00000000000E+00  0.45593999997E+02  0.45594000000E+02  0.51100000000E-03 0.  1.
         11   -1    0    0    0    0 -0.00000000000E+00 -0.00000000000E+00 -0.45593999997E+02  0.45594000000E+02  0.51100000000E-03 0. -1.
    9900012    2    1    2    0    0 -0.33704139634E+02  0.73278604611E+01 -0.26343053039E+02  0.47787274075E+02  0.20000013818E+02 0.  0.
        -12    1    1    2    0    0  0.33704139634E+02 -0.73278604611E+01  0.26343053039E+02  0.43400725925E+02  0.00000000000E+00 0.  1.
         11    1    3    3    0    0 -0.12017922613E+02 -0.14543169398E+01 -0.45550987601E+01  0.12934234677E+02  0.51100000000E-03 0. -1.
        -11    1    3    3    0    0 -0.45905364412E+01  0.32134636300E+01  0.11377199393E+01  0.57178475181E+01  0.51100000000E-03 0.  1.
        -12    1    3    3    0    0 -0.17095680580E+02  0.55687137709E+01 -0.22925674218E+02  0.29135191880E+02  0.00000000000E+00 0.  1.
</event>
<event>
 7    1  0.3742599E-009  0.4778728E+02  0.7816164E-02  0.1312668E+00
        -11   -1    0    0    0    0  0.00000000000E+00  0.00000000000E+00  0.45593999997E+02  0.45594000000E+02  0.51100000000E-03 0.  1.
         11   -1    0    0    0    0 -0.00000000000E+00 -0.00000000000E+00 -0.45593999997E+02  0.45594000000E+02  0.51100000000E-03 0. -1.
    9900012    2    1    2    0    0 -0.28923695472E+02  0.15661936998E+01 -0.32320113749E+02  0.47787275637E+02  0.20000020941E+02 0.  0.
        -12    1    1    2    0    0  0.28923695472E+02 -0.15661936998E+01  0.32320113749E+02  0.43400724363E+02  0.00000000000E+00 0.  1.
         11    1    3    3    0    0 -0.11050447659E+02  0.25310513560E+00 -0.11502554452E+02  0.15952592731E+02  0.51100000000E-03 0. -1.
        -11    1    3    3    0    0 -0.17115964283E+02  0.16152084712E+01 -0.79497294337E+01  0.18941048812E+02  0.51100000000E-03 0.  1.
        -12    1    3    3    0    0 -0.75728353064E+00 -0.30211990705E+00 -0.12867829863E+02  0.12893634095E+02  0.00000000000E+00 0.  1.
</event>
<event>
 7    1  0.3742599E-009  0.4778726E+02  0.7816164E-02  0.1312668E+00
        -11   -1    0    0    0    0  0.00000000000E+00  0.00000000000E+00  0.45593999997E+02  0.45594000000E+02  0.51100000000E-03 0. -1.
         11   -1    0    0    0    0 -0.00000000000E+00 -0.00000000000E+00 -0.45593999997E+02  0.45594000000E+02  0.51100000000E-03 0.  1.
    9900012    2    1    2    0    0  0.10375437116E+02 -0.36380049632E+02 -0.21271260041E+02  0.47787260256E+02  0.19999950811E+02 0.  0.
        -12    1    1    2    0    0 -0.10375437116E+02  0.36380049632E+02  0.21271260041E+02  0.43400739744E+02  0.00000000000E+00 0.  1.
         11    1    3    3    0    0  0.56987890393E+01 -0.48443338572E+01 -0.93718304645E+00  0.75380421435E+01  0.51100000000E-03 0. -1.
        -11    1    3    3    0    0  0.80337829482E+01 -0.11921653728E+02 -0.53494936620E+01  0.15338988844E+02  0.51100000000E-03 0.  1.
        -12    1    3    3    0    0 -0.33571348718E+01 -0.19614062048E+02 -0.14984583332E+02  0.24910229268E+02  0.00000000000E+00 0.  1.
</event>
<event>
 7    1  0.3742599E-009  0.4778727E+02  0.7816164E-02  0.1312668E+00
        -11   -1    0    0    0    0  0.00000000000E+00  0.00000000000E+00  0.45593999997E+02  0.45594000000E+02  0.51100000000E-03 0.  1.
         11   -1    0    0    0    0 -0.00000000000E+00 -0.00000000000E+00 -0.45593999997E+02  0.45594000000E+02  0.51100000000E-03 0. -1.
    9900012    2    1    2    0    0 -0.23759249002E+01  0.28242014512E+02 -0.32868939573E+02  0.47787267386E+02  0.19999983318E+02 0.  0.
        -12    1    1    2    0    0  0.23759249002E+01 -0.28242014512E+02  0.32868939573E+02  0.43400732614E+02  0.00000000000E+00 0.  1.
         11    1    3    3    0    0 -0.51658403526E+01  0.14712456589E+02 -0.11724977254E+02  0.19509417657E+02  0.51100000000E-03 0. -1.
        -11    1    3    3    0    0 -0.50599102470E+00  0.12495530639E+02 -0.83778767836E+01  0.15052678584E+02  0.51100000000E-03 0.  1.
         12    1    3    3    0    0  0.32959064771E+01  0.10340272833E+01 -0.12766085535E+02  0.13225171145E+02  0.00000000000E+00 0. -1.
</event>
<event>
 7    1  0.3742599E-009  0.4778727E+02  0.7816164E-02  0.1312668E+00
        -11   -1    0    0    0    0  0.00000000000E+00  0.00000000000E+00  0.45593999997E+02  0.45594000000E+02  0.51100000000E-03 0.  1.
         11   -1    0    0    0    0 -0.00000000000E+00 -0.00000000000E+00 -0.45593999997E+02  0.45594000000E+02  0.51100000000E-03 0. -1.
    9900012    2    1    2    0    0  0.72921002169E+01 -0.42469218371E+02 -0.51782126393E+01  0.47787272809E+02  0.20000008045E+02 0.  0.
        -12    1    1    2    0    0 -0.72921002169E+01  0.42469218371E+02  0.51782126393E+01  0.43400727191E+02  0.00000000000E+00 0.  1.
         11    1    3    3    0    0  0.18303900001E+01 -0.15098331053E+02 -0.17701680002E+01  0.15311545420E+02  0.51100000000E-03 0. -1.
        -11    1    3    3    0    0  0.49968468933E+00 -0.22007372268E+02  0.36536630567E+01  0.22314196667E+02  0.51100000000E-03 0.  1.
         12    1    3    3    0    0  0.49620255275E+01 -0.53635150503E+01 -0.70617076958E+01  0.10161530722E+02  0.00000000000E+00 0. -1.
</event>
<event>
 7    1  0.3742599E-009  0.4778727E+02  0.7816164E-02  0.1312668E+00
        -11   -1    0    0    0    0  0.00000000000E+00  0.00000000000E+00  0.45593999997E+02  0.45594000000E+02  0.51100000000E-03 0.  1.
         11   -1    0    0    0    0 -0.00000000000E+00 -0.00000000000E+00 -0.45593999997E+02  0.45594000000E+02  0.51100000000E-03 0. -1.
    9900012    2    1    2    0    0 -0.37282529098E+02  0.13938124647E+02  0.17302170599E+02  0.47787269568E+02  0.19999993269E+02 0.  0.
        -12    1    1    2    0    0  0.37282529098E+02 -0.13938124647E+02 -0.17302170599E+02  0.43400730432E+02  0.00000000000E+00 0.  1.
         11    1    3    3    0    0 -0.18535271256E+02  0.42292038270E+01  0.14862204686E+02  0.24131464397E+02  0.51100000000E-03 0. -1.
        -11    1    3    3    0    0 -0.31011265930E+00 -0.15570307320E+01  0.12423582207E+01  0.20159287615E+01  0.51100000000E-03 0.  1.
        -12    1    3    3    0    0 -0.18437145183E+02  0.11265951552E+02  0.11976076916E+01  0.21639876410E+02  0.00000000000E+00 0.  1.
</event>
<event>
 7    1  0.3742599E-009  0.4778727E+02  0.7816164E-02  0.1312668E+00
        -11   -1    0    0    0    0  0.00000000000E+00  0.00000000000E+00  0.45593999997E+02  0.45594000000E+02  0.51100000000E-03 0.  1.
         11   -1    0    0    0    0 -0.00000000000E+00 -0.00000000000E+00 -0.45593999997E+02  0.45594000000E+02  0.51100000000E-03 0. -1.
    9900012    2    1    2    0    0 -0.34550903278E+02 -0.24987116746E+02 -0.80933605558E+01  0.47787269525E+02  0.19999993074E+02 0.  0.
        -12    1    1    2    0    0  0.34550903278E+02  0.24987116746E+02  0.80933605558E+01  0.43400730475E+02  0.00000000000E+00 0.  1.
         11    1    3    3    0    0 -0.33308794584E+01 -0.80324721085E+00  0.15332055867E+01  0.37537559431E+01  0.51100000000E-03 0.  1.
        -11    1    3    3    0    0 -0.12842489141E+02 -0.18912747117E+02 -0.99013175169E+01  0.24913001018E+02  0.51100000000E-03 0. -1.
         12    1    3    3    0    0 -0.18377534679E+02 -0.52711224181E+01  0.27475137440E+00  0.19120512565E+02  0.00000000000E+00 0. -1.
</event>
<event>
 7    1  0.3742599E-009  0.4778727E+02  0.7816164E-02  0.1312668E+00
        -11   -1    0    0    0    0  0.00000000000E+00  0.00000000000E+00  0.45593999997E+02  0.45594000000E+02  0.51100000000E-03 0.  1.
         11   -1    0    0    0    0 -0.00000000000E+00 -0.00000000000E+00 -0.45593999997E+02  0.45594000000E+02  0.51100000000E-03 0. -1.
    9900012    2    1    2    0    0 -0.35231891350E+02  0.21414287103E+02 -0.13556008015E+02  0.47787271739E+02  0.20000003169E+02 0.  0.
        -12    1    1    2    0    0  0.35231891350E+02 -0.21414287103E+02  0.13556008015E+02  0.43400728261E+02  0.00000000000E+00 0.  1.
         11    1    3    3    0    0 -0.93489167267E+01  0.48343047033E+01 -0.20707277186E-01  0.10524883609E+02  0.51100000000E-03 0.  1.
        -11    1    3    3    0    0 -0.19830920749E+02  0.12791804865E+02 -0.19830533502E+01  0.23681811382E+02  0.51100000000E-03 0. -1.
        -12    1    3    3    0    0 -0.60520538748E+01  0.37881775339E+01 -0.11552247387E+02  0.13580576749E+02  0.00000000000E+00 0.  1.
</event>
<event>
 7    1  0.3742599E-009  0.4778727E+02  0.7816164E-02  0.1312668E+00
        -11   -1    0    0    0    0  0.00000000000E+00  0.00000000000E+00  0.45593999997E+02  0.45594000000E+02  0.51100000000E-03 0.  1.
         11   -1    0    0    0    0 -0.00000000000E+00 -0.00000000000E+00 -0.45593999997E+02  0.45594000000E+02  0.51100000000E-03 0. -1.
    9900012    2    1    2    0    0  0.29271548015E+02 -0.31373511428E+02 -0.65193716058E+01  0.47787274791E+02  0.20000017083E+02 0.  0.
        -12    1    1    2    0    0 -0.29271548015E+02  0.31373511428E+02  0.65193716058E+01  0.43400725209E+02  0.00000000000E+00 0.  1.
         11    1    3    3    0    0  0.39365068760E+01 -0.15752175753E+01 -0.66922998270E+01  0.79223906764E+01  0.51100000000E-03 0. -1.
        -11    1    3    3    0    0  0.13847189674E+02 -0.11385196894E+02 -0.20728610925E+01  0.18046166450E+02  0.51100000000E-03 0.  1.
        -12    1    3    3    0    0  0.11487851465E+02 -0.18413096958E+02  0.22457893136E+01  0.21818717665E+02  0.00000000000E+00 0.  1.
</event>
<event>
 7    1  0.3742599E-009  0.4778727E+02  0.7816164E-02  0.1312668E+00
        -11   -1    0    0    0    0  0.00000000000E+00  0.00000000000E+00  0.45593999997E+02  0.45594000000E+02  0.51100000000E-03 0. -1.
         11   -1    0    0    0    0 -0.00000000000E+00 -0.00000000000E+00 -0.45593999997E+02  0.45594000000E+02  0.51100000000E-03 0.  1.
    9900012    2    1    2    0    0  0.36965350877E+02 -0.83698384552E+01 -0.21145494217E+02  0.47787270894E+02  0.19999999315E+02 0.  0.
        -12    1    1    2    0    0 -0.36965350877E+02  0.83698384552E+01  0.21145494217E+02  0.43400729106E+02  0.00000000000E+00 0.  1.
         11    1    3    3    0    0  0.19660921048E+01 -0.55505414594E+01 -0.54910774935E+00  0.59140128710E+01  0.51100000000E-03 0. -1.
        -11    1    3    3    0    0  0.62665430973E+01  0.48882667414E-01 -0.85143854041E+01  0.10571977628E+02  0.51100000000E-03 0.  1.
         12    1    3    3    0    0  0.28732715675E+02 -0.28681796632E+01 -0.12082001064E+02  0.31301280395E+02  0.00000000000E+00 0. -1.
</event>
<event>
 7    1  0.3742599E-009  0.4778728E+02  0.7816164E-02  0.1312668E+00
        -11   -1    0    0    0    0  0.00000000000E+00  0.00000000000E+00  0.45593999997E+02  0.45594000000E+02  0.51100000000E-03 0.  1.
         11   -1    0    0    0    0 -0.00000000000E+00 -0.00000000000E+00 -0.45593999997E+02  0.45594000000E+02  0.51100000000E-03 0. -1.
    9900012    2    1    2    0    0  0.17268875788E+02  0.36582110405E+02 -0.15721255779E+02  0.47787277011E+02  0.20000027206E+02 0.  0.
        -12    1    1    2    0    0 -0.17268875788E+02 -0.36582110405E+02  0.15721255779E+02  0.43400722989E+02  0.00000000000E+00 0.  1.
         11    1    3    3    0    0  0.54762897192E+01  0.28699542032E+02 -0.14007991412E+02  0.32401809912E+02  0.51100000000E-03 0. -1.
        -11    1    3    3    0    0  0.31468853758E+01  0.54548419072E+01 -0.10091193453E+01  0.63778138821E+01  0.51100000000E-03 0.  1.
        -12    1    3    3    0    0  0.86457006931E+01  0.24277264658E+01 -0.70414502170E+00  0.90076532171E+01  0.00000000000E+00 0.  1.
</event>
<event>
 7    1  0.3742599E-009  0.4778727E+02  0.7816164E-02  0.1312668E+00
        -11   -1    0    0    0    0  0.00000000000E+00  0.00000000000E+00  0.45593999997E+02  0.45594000000E+02  0.51100000000E-03 0. -1.
         11   -1    0    0    0    0 -0.00000000000E+00 -0.00000000000E+00 -0.45593999997E+02  0.45594000000E+02  0.51100000000E-03 0.  1.
    9900012    2    1    2    0    0  0.39285270240E+02 -0.18041383063E+02  0.38469800992E+01  0.47787271705E+02  0.20000003011E+02 0.  0.
        -12    1    1    2    0    0 -0.39285270240E+02  0.18041383063E+02 -0.38469800992E+01  0.43400728295E+02  0.00000000000E+00 0.  1.
         11    1    3    3    0    0  0.94708544796E+01 -0.32051439879E+01  0.31479687020E+01  0.10482353732E+02  0.51100000000E-03 0. -1.
        -11    1    3    3    0    0  0.29589752898E+02 -0.10795171681E+02 -0.32319518770E+01  0.31662828701E+02  0.51100000000E-03 0.  1.
         12    1    3    3    0    0  0.22466286307E+00 -0.40410673940E+01  0.39309632743E+01  0.56420892716E+01  0.00000000000E+00 0. -1.
</event>
<event>
 7    1  0.3742599E-009  0.4778727E+02  0.7816164E-02  0.1312668E+00
        -11   -1    0    0    0    0  0.00000000000E+00  0.00000000000E+00  0.45593999997E+02  0.45594000000E+02  0.51100000000E-03 0.  1.
         11   -1    0    0    0    0 -0.00000000000E+00 -0.00000000000E+00 -0.45593999997E+02  0.45594000000E+02  0.51100000000E-03 0. -1.
    9900012    2    1    2    0    0 -0.24334839624E+02  0.30426577269E+02 -0.19122300643E+02  0.47787269526E+02  0.19999993076E+02 0.  0.
        -12    1    1    2    0    0  0.24334839624E+02 -0.30426577269E+02  0.19122300643E+02  0.43400730474E+02  0.00000000000E+00 0.  1.
         11    1    3    3    0    0  0.96379713754E+00  0.63151835292E-02 -0.31107906861E+01  0.32566798673E+01  0.51100000000E-03 0. -1.
        -11    1    3    3    0    0 -0.11341913833E+02  0.46755876303E+01 -0.46730781397E+01  0.13127748804E+02  0.51100000000E-03 0.  1.
         12    1    3    3    0    0 -0.13956722928E+02  0.25744674455E+02 -0.11338431817E+02  0.31402840855E+02  0.00000000000E+00 0. -1.
</event>
<event>
 7    1  0.3742599E-009  0.4778727E+02  0.7816164E-02  0.1312668E+00
        -11   -1    0    0    0    0  0.00000000000E+00  0.00000000000E+00  0.45593999997E+02  0.45594000000E+02  0.51100000000E-03 0. -1.
         11   -1    0    0    0    0 -0.00000000000E+00 -0.00000000000E+00 -0.45593999997E+02  0.45594000000E+02  0.51100000000E-03 0.  1.
    9900012    2    1    2    0    0 -0.14838750449E+02  0.22920794932E+02  0.33735326906E+02  0.47787266865E+02  0.19999980943E+02 0.  0.
        -12    1    1    2    0    0  0.14838750449E+02 -0.22920794932E+02 -0.33735326906E+02  0.43400733135E+02  0.00000000000E+00 0.  1.
         11    1    3    3    0    0 -0.59191373659E+01  0.18960606057E+02  0.14752346422E+02  0.24742119845E+02  0.51100000000E-03 0. -1.
        -11    1    3    3    0    0 -0.30201834170E+00  0.34515823977E+01  0.10015025399E+02  0.10597422806E+02  0.51100000000E-03 0.  1.
         12    1    3    3    0    0 -0.86175947418E+01  0.50860647691E+00  0.89679550857E+01  0.12447724214E+02  0.00000000000E+00 0. -1.
</event>
<event>
 7    1  0.4429665E-009  0.4778727E+02  0.7816164E-02  0.1312668E+00
        -11   -1    0    0    0    0  0.00000000000E+00  0.00000000000E+00  0.45593999997E+02  0.45594000000E+02  0.51100000000E-03 0.  1.
         11   -1    0    0    0    0 -0.00000000000E+00 -0.00000000000E+00 -0.45593999997E+02  0.45594000000E+02  0.51100000000E-03 0. -1.
    9900012    2    1    2    0    0 -0.19194928659E+02 -0.24091324595E+02 -0.30574268286E+02  0.47787273183E+02  0.20000009752E+02 0.  0.
        -12    1    1    2    0    0  0.19194928659E+02  0.24091324595E+02  0.30574268286E+02  0.43400726817E+02  0.00000000000E+00 0.  1.
         11    1    3    3    0    0 -0.40362446362E+01 -0.12212195656E+02 -0.84610487099E+01  0.15395399931E+02  0.51100000000E-03 0. -1.
        -11    1    3    3    0    0 -0.14912899754E+02 -0.14050406995E+02 -0.22193444595E+02  0.30205256149E+02  0.51100000000E-03 0.  1.
        -12    1    3    3    0    0 -0.24578426928E+00  0.21712780558E+01  0.80225018484E-01  0.21866171032E+01  0.00000000000E+00 0.  1.
</event>
<event>
 7    1  0.3742599E-009  0.4778727E+02  0.7816164E-02  0.1312668E+00
        -11   -1    0    0    0    0  0.00000000000E+00  0.00000000000E+00  0.45593999997E+02  0.45594000000E+02  0.51100000000E-03 0. -1.
         11   -1    0    0    0    0 -0.00000000000E+00 -0.00000000000E+00 -0.45593999997E+02  0.45594000000E+02  0.51100000000E-03 0.  1.
    9900012    2    1    2    0    0  0.11834599868E+02  0.51055719202E+01 -0.41442720502E+02  0.47787266120E+02  0.19999977550E+02 0.  0.
        -12    1    1    2    0    0 -0.11834599868E+02 -0.51055719202E+01  0.41442720502E+02  0.43400733880E+02  0.00000000000E+00 0.  1.
         11    1    3    3    0    0  0.14157736840E+01  0.67467694257E+01 -0.14601151409E+02  0.16146731420E+02  0.51100000000E-03 0. -1.
        -11    1    3    3    0    0  0.10848800393E+02 -0.61278110068E+00 -0.27999025723E+02  0.30033604717E+02  0.51100000000E-03 0.  1.
         12    1    3    3    0    0 -0.42997420900E+00 -0.10284164048E+01  0.11574566296E+01  0.16069299834E+01  0.00000000000E+00 0. -1.
</event>
<event>
 7    1  0.3742599E-009  0.4778726E+02  0.7816164E-02  0.1312668E+00
        -11   -1    0    0    0    0  0.00000000000E+00  0.00000000000E+00  0.45593999997E+02  0.45594000000E+02  0.51100000000E-03 0.  1.
         11   -1    0    0    0    0 -0.00000000000E+00 -0.00000000000E+00 -0.45593999997E+02  0.45594000000E+02  0.51100000000E-03 0. -1.
    9900012    2    1    2    0    0  0.32907035334E+02 -0.28228932663E+02 -0.19693658049E+01  0.47787262502E+02  0.19999961051E+02 0.  0.
        -12    1    1    2    0    0 -0.32907035334E+02  0.28228932663E+02  0.19693658049E+01  0.43400737498E+02  0.00000000000E+00 0.  1.
         11    1    3    3    0    0  0.97545205222E+01 -0.89021285686E+01 -0.49575292468E+01  0.14105873251E+02  0.51100000000E-03 0. -1.
        -11    1    3    3    0    0  0.30573225300E+01 -0.45021208967E+01  0.64851056656E+01  0.84659854345E+01  0.51100000000E-03 0.  1.
        -12    1    3    3    0    0  0.20095192281E+02 -0.14824683197E+02 -0.34969422237E+01  0.25215403817E+02  0.00000000000E+00 0.  1.
</event>
<event>
 7    1  0.3742599E-009  0.4778722E+02  0.7816164E-02  0.1312668E+00
        -11   -1    0    0    0    0  0.00000000000E+00  0.00000000000E+00  0.45593999997E+02  0.45594000000E+02  0.51100000000E-03 0. -1.
         11   -1    0    0    0    0 -0.00000000000E+00 -0.00000000000E+00 -0.45593999997E+02  0.45594000000E+02  0.51100000000E-03 0.  1.
    9900012    2    1    2    0    0 -0.23805917078E+01 -0.11962005782E+02  0.41651785909E+02  0.47787215807E+02  0.19999748147E+02 0.  0.
        -12    1    1    2    0    0  0.23805917078E+01  0.11962005782E+02 -0.41651785909E+02  0.43400784193E+02  0.00000000000E+00 0.  1.
         11    1    3    3    0    0 -0.16381150234E+01 -0.52806512449E+01  0.10283656220E+02  0.11675713422E+02  0.51100000000E-03 0. -1.
        -11    1    3    3    0    0  0.65491117537E+01 -0.68312678741E+01  0.11186214212E+02  0.14652251505E+02  0.51100000000E-03 0.  1.
         12    1    3    3    0    0 -0.72915884381E+01  0.14991333755E+00  0.20181915478E+02  0.21459250879E+02  0.00000000000E+00 0. -1.
</event>
<event>
 7    1  0.3742599E-009  0.4778727E+02  0.7816164E-02  0.1312668E+00
        -11   -1    0    0    0    0  0.00000000000E+00  0.00000000000E+00  0.45593999997E+02  0.45594000000E+02  0.51100000000E-03 0. -1.
         11   -1    0    0    0    0 -0.00000000000E+00 -0.00000000000E+00 -0.45593999997E+02  0.45594000000E+02  0.51100000000E-03 0.  1.
    9900012    2    1    2    0    0 -0.12486625331E+02  0.41479759160E+02 -0.26714791918E+01  0.47787273817E+02  0.20000012640E+02 0.  0.
        -12    1    1    2    0    0  0.12486625331E+02 -0.41479759160E+02  0.26714791918E+01  0.43400726183E+02  0.00000000000E+00 0.  1.
         11    1    3    3    0    0 -0.79867088190E+01  0.38696857467E+02 -0.23464815483E+01  0.39582070076E+02  0.51100000000E-03 0. -1.
        -11    1    3    3    0    0 -0.40150809268E+01  0.43161313671E+01  0.11696177001E+01  0.60098145272E+01  0.51100000000E-03 0.  1.
        -12    1    3    3    0    0 -0.48483558525E+00 -0.15332296733E+01 -0.14946153437E+01  0.21953892141E+01  0.00000000000E+00 0.  1.
</event>
<event>
 7    1  0.3742599E-009  0.4778727E+02  0.7816164E-02  0.1312668E+00
        -11   -1    0    0    0    0  0.00000000000E+00  0.00000000000E+00  0.45593999997E+02  0.45594000000E+02  0.51100000000E-03 0. -1.
         11   -1    0    0    0    0 -0.00000000000E+00 -0.00000000000E+00 -0.45593999997E+02  0.45594000000E+02  0.51100000000E-03 0.  1.
    9900012    2    1    2    0    0  0.27040059751E+02 -0.58527442268E+01  0.33439554341E+02  0.47787271425E+02  0.20000001736E+02 0.  0.
        -12    1    1    2    0    0 -0.27040059751E+02  0.58527442268E+01 -0.33439554341E+02  0.43400728575E+02  0.00000000000E+00 0.  1.
         11    1    3    3    0    0  0.13924746932E+02 -0.91446653780E-01  0.96672045099E+01  0.16951748668E+02  0.51100000000E-03 0. -1.
        -11    1    3    3    0    0  0.81815749940E+01  0.32768028308E+01  0.74684090918E+01  0.11552174722E+02  0.51100000000E-03 0.  1.
        -12    1    3    3    0    0  0.49337378247E+01 -0.90381004038E+01  0.16303940739E+02  0.19283348036E+02  0.00000000000E+00 0.  1.
</event>
<event>
 7    1  0.3742599E-009  0.4778727E+02  0.7816164E-02  0.1312668E+00
        -11   -1    0    0    0    0  0.00000000000E+00  0.00000000000E+00  0.45593999997E+02  0.45594000000E+02  0.51100000000E-03 0. -1.
         11   -1    0    0    0    0 -0.00000000000E+00 -0.00000000000E+00 -0.45593999997E+02  0.45594000000E+02  0.51100000000E-03 0.  1.
    9900012    2    1    2    0    0 -0.91819711528E+01 -0.36456615555E+02  0.21684782173E+02  0.47787272012E+02  0.20000004412E+02 0.  0.
        -12    1    1    2    0    0  0.91819711528E+01  0.36456615555E+02 -0.21684782173E+02  0.43400727988E+02  0.00000000000E+00 0.  1.
         11    1    3    3    0    0 -0.80146566013E+01 -0.19550550843E+02  0.13243890335E+02  0.24937108697E+02  0.51100000000E-03 0. -1.
        -11    1    3    3    0    0 -0.90346063056E+00 -0.19007682780E+02  0.81917064541E+01  0.20717439529E+02  0.51100000000E-03 0.  1.
        -12    1    3    3    0    0 -0.26385392085E+00  0.21016180671E+01  0.24918538349E+00  0.21327237859E+01  0.00000000000E+00 0.  1.
</event>
<event>
 7    1  0.3742599E-009  0.4778727E+02  0.7816164E-02  0.1312668E+00
        -11   -1    0    0    0    0  0.00000000000E+00  0.00000000000E+00  0.45593999997E+02  0.45594000000E+02  0.51100000000E-03 0.  1.
         11   -1    0    0    0    0 -0.00000000000E+00 -0.00000000000E+00 -0.45593999997E+02  0.45594000000E+02  0.51100000000E-03 0. -1.
    9900012    2    1    2    0    0  0.12289993212E+02  0.31030679024E+02 -0.27743039817E+02  0.47787271525E+02  0.20000002191E+02 0.  0.
        -12    1    1    2    0    0 -0.12289993212E+02 -0.31030679024E+02  0.27743039817E+02  0.43400728475E+02  0.00000000000E+00 0.  1.
         11    1    3    3    0    0  0.16502259179E+01  0.93800338309E+01 -0.37052306991E+01  0.10219442991E+02  0.51100000000E-03 0. -1.
        -11    1    3    3    0    0  0.74529715977E+01  0.50913491908E+00 -0.56172854838E+01  0.93466518320E+01  0.51100000000E-03 0.  1.
        -12    1    3    3    0    0  0.31867956969E+01  0.21141510274E+02 -0.18420523635E+02  0.28221176702E+02  0.00000000000E+00 0.  1.
</event>
<event>
 7    1  0.3742599E-009  0.4778727E+02  0.7816164E-02  0.1312668E+00
        -11   -1    0    0    0    0  0.00000000000E+00  0.00000000000E+00  0.45593999997E+02  0.45594000000E+02  0.51100000000E-03 0. -1.
         11   -1    0    0    0    0 -0.00000000000E+00 -0.00000000000E+00 -0.45593999997E+02  0.45594000000E+02  0.51100000000E-03 0.  1.
    9900012    2    1    2    0    0 -0.15900940459E+02 -0.77918761899E+01  0.39624110217E+02  0.47787270138E+02  0.19999995868E+02 0.  0.
        -12    1    1    2    0    0  0.15900940459E+02  0.77918761899E+01 -0.39624110217E+02  0.43400729862E+02  0.00000000000E+00 0.  1.
         11    1    3    3    0    0 -0.13431937471E+02 -0.71179955825E+01  0.16069066452E+02  0.22120074644E+02  0.51100000000E-03 0.  1.
        -11    1    3    3    0    0 -0.47924475431E+01 -0.21681553951E+01  0.63678660167E+01  0.82594291049E+01  0.51100000000E-03 0. -1.
        -12    1    3    3    0    0  0.23234445546E+01  0.14942747877E+01  0.17187177748E+02  0.17407766390E+02  0.00000000000E+00 0.  1.
</event>
<event>
 7    1  0.3742599E-009  0.4778725E+02  0.7816164E-02  0.1312668E+00
        -11   -1    0    0    0    0  0.00000000000E+00  0.00000000000E+00  0.45593999997E+02  0.45594000000E+02  0.51100000000E-03 0. -1.
         11   -1    0    0    0    0 -0.00000000000E+00 -0.00000000000E+00 -0.45593999997E+02  0.45594000000E+02  0.51100000000E-03 0.  1.
    9900012    2    1    2    0    0 -0.13559851744E+02 -0.60875207814E+01  0.40776186175E+02  0.47787252915E+02  0.19999917339E+02 0.  0.
        -12    1    1    2    0    0  0.13559851744E+02  0.60875207814E+01 -0.40776186175E+02  0.43400747085E+02  0.00000000000E+00 0.  1.
         11    1    3    3    0    0 -0.12658849606E+02 -0.41204789268E+01  0.19415771198E+02  0.23541388901E+02  0.51100000000E-03 0. -1.
        -11    1    3    3    0    0 -0.22832045500E+01 -0.12370581242E+01 -0.22260238675E+00  0.26063169231E+01  0.51100000000E-03 0.  1.
         12    1    3    3    0    0  0.13822024115E+01 -0.72998373037E+00  0.21583017364E+02  0.21639547091E+02  0.00000000000E+00 0. -1.
</event>
<event>
 7    1  0.3742599E-009  0.4778728E+02  0.7816164E-02  0.1312668E+00
        -11   -1    0    0    0    0  0.00000000000E+00  0.00000000000E+00  0.45593999997E+02  0.45594000000E+02  0.51100000000E-03 0.  1.
         11   -1    0    0    0    0 -0.00000000000E+00 -0.00000000000E+00 -0.45593999997E+02  0.45594000000E+02  0.51100000000E-03 0. -1.
    9900012    2    1    2    0    0 -0.37783911366E+02  0.75857540232E+01 -0.19961344489E+02  0.47787275397E+02  0.20000019846E+02 0.  0.
        -12    1    1    2    0    0  0.37783911366E+02 -0.75857540232E+01  0.19961344489E+02  0.43400724603E+02  0.00000000000E+00 0.  1.
         11    1    3    3    0    0 -0.10710417370E+02  0.69245221189E+01 -0.47603430903E+01  0.13613335867E+02  0.51100000000E-03 0. -1.
        -11    1    3    3    0    0 -0.15007245367E+02  0.24272309024E+01 -0.68822160153E+00  0.15217835345E+02  0.51100000000E-03 0.  1.
         12    1    3    3    0    0 -0.12066248629E+02 -0.17659989981E+01 -0.14512779798E+02  0.18956104186E+02  0.00000000000E+00 0. -1.
</event>
<event>
 7    1  0.3742599E-009  0.4778727E+02  0.7816164E-02  0.1312668E+00
        -11   -1    0    0    0    0  0.00000000000E+00  0.00000000000E+00  0.45593999997E+02  0.45594000000E+02  0.51100000000E-03 0. -1.
         11   -1    0    0    0    0 -0.00000000000E+00 -0.00000000000E+00 -0.45593999997E+02  0.45594000000E+02  0.51100000000E-03 0.  1.
    9900012    2    1    2    0    0 -0.15143715891E+02 -0.17419501097E+01  0.40635656131E+02  0.47787273389E+02  0.20000010692E+02 0.  0.
        -12    1    1    2    0    0  0.15143715891E+02  0.17419501097E+01 -0.40635656131E+02  0.43400726611E+02  0.00000000000E+00 0.  1.
         11    1    3    3    0    0 -0.56344712039E+00 -0.32096355693E+00  0.18945299453E+02  0.18956393694E+02  0.51100000000E-03 0. -1.
        -11    1    3    3    0    0 -0.23862589097E+01  0.24834825656E+01  0.12769318055E+02  0.13225634241E+02  0.51100000000E-03 0.  1.
        -12    1    3    3    0    0 -0.12194009861E+02 -0.39044691183E+01  0.89210386228E+01  0.15605245454E+02  0.00000000000E+00 0.  1.
</event>
<event>
 7    1  0.3742599E-009  0.4778727E+02  0.7816164E-02  0.1312668E+00
        -11   -1    0    0    0    0  0.00000000000E+00  0.00000000000E+00  0.45593999997E+02  0.45594000000E+02  0.51100000000E-03 0.  1.
         11   -1    0    0    0    0 -0.00000000000E+00 -0.00000000000E+00 -0.45593999997E+02  0.45594000000E+02  0.51100000000E-03 0. -1.
    9900012    2    1    2    0    0  0.31241363841E+02  0.22215907427E+02 -0.20348314532E+02  0.47787271184E+02  0.20000000638E+02 0.  0.
        -12    1    1    2    0    0 -0.31241363841E+02 -0.22215907427E+02  0.20348314532E+02  0.43400728816E+02  0.00000000000E+00 0.  1.
         11    1    3    3    0    0  0.44190479127E+01  0.31431587742E+01  0.23913864924E+01  0.59267327553E+01  0.51100000000E-03 0. -1.
        -11    1    3    3    0    0 -0.96354388907E+00  0.22995737072E+01 -0.28853087751E+01  0.38133270316E+01  0.51100000000E-03 0.  1.
         12    1    3    3    0    0  0.27785859817E+02  0.16773174945E+02 -0.19854392249E+02  0.38047211397E+02  0.00000000000E+00 0. -1.
</event>
<event>
 7    1  0.3742599E-009  0.4778727E+02  0.7816164E-02  0.1312668E+00
        -11   -1    0    0    0    0  0.00000000000E+00  0.00000000000E+00  0.45593999997E+02  0.45594000000E+02  0.51100000000E-03 0.  1.
         11   -1    0    0    0    0 -0.00000000000E+00 -0.00000000000E+00 -0.45593999997E+02  0.45594000000E+02  0.51100000000E-03 0. -1.
    9900012    2    1    2    0    0  0.14524066320E+02 -0.18410965045E+02 -0.36520010347E+02  0.47787270834E+02  0.19999999042E+02 0.  0.
        -12    1    1    2    0    0 -0.14524066320E+02  0.18410965045E+02  0.36520010347E+02  0.43400729166E+02  0.00000000000E+00 0.  1.
         11    1    3    3    0    0  0.22795034914E+01 -0.13558508886E+02 -0.16478593512E+02  0.21460972573E+02  0.51100000000E-03 0. -1.
        -11    1    3    3    0    0  0.32582740070E+01 -0.26692063672E+01  0.46158335006E-01  0.42122610304E+01  0.51100000000E-03 0.  1.
         12    1    3    3    0    0  0.89862888214E+01 -0.21832497923E+01 -0.20087575170E+02  0.22114037231E+02  0.00000000000E+00 0. -1.
</event>
<event>
 7    1  0.3742599E-009  0.4778727E+02  0.7816164E-02  0.1312668E+00
        -11   -1    0    0    0    0  0.00000000000E+00  0.00000000000E+00  0.45593999997E+02  0.45594000000E+02  0.51100000000E-03 0. -1.
         11   -1    0    0    0    0 -0.00000000000E+00 -0.00000000000E+00 -0.45593999997E+02  0.45594000000E+02  0.51100000000E-03 0.  1.
    9900012    2    1    2    0    0 -0.32468884604E+02  0.92111204486E+01  0.27286444797E+02  0.47787271008E+02  0.19999999833E+02 0.  0.
        -12    1    1    2    0    0  0.32468884604E+02 -0.92111204486E+01 -0.27286444797E+02  0.43400728992E+02  0.00000000000E+00 0.  1.
         11    1    3    3    0    0 -0.78806548612E+01  0.75683464944E+01  0.16677302643E+02  0.19937828704E+02  0.51100000000E-03 0.  1.
        -11    1    3    3    0    0 -0.13414378977E+02  0.39499119450E+01  0.81239110153E+01  0.16172362170E+02  0.51100000000E-03 0. -1.
        -12    1    3    3    0    0 -0.11173850766E+02 -0.23071379907E+01  0.24852311391E+01  0.11677080134E+02  0.00000000000E+00 0.  1.
</event>
<event>
 7    1  0.3742599E-009  0.4778727E+02  0.7816164E-02  0.1312668E+00
        -11   -1    0    0    0    0  0.00000000000E+00  0.00000000000E+00  0.45593999997E+02  0.45594000000E+02  0.51100000000E-03 0.  1.
         11   -1    0    0    0    0 -0.00000000000E+00 -0.00000000000E+00 -0.45593999997E+02  0.45594000000E+02  0.51100000000E-03 0. -1.
    9900012    2    1    2    0    0  0.25620458247E+02 -0.38321219547E+00 -0.35029536060E+02  0.47787272714E+02  0.20000007614E+02 0.  0.
        -12    1    1    2    0    0 -0.25620458247E+02  0.38321219547E+00  0.35029536060E+02  0.43400727286E+02  0.00000000000E+00 0.  1.
         11    1    3    3    0    0  0.21920735405E+01 -0.43921336428E+01 -0.17413836760E+01  0.52084970684E+01  0.51100000000E-03 0. -1.
        -11    1    3    3    0    0  0.28449405124E+01  0.40979153563E+01 -0.25965669721E+01  0.56239449756E+01  0.51100000000E-03 0.  1.
         12    1    3    3    0    0  0.20583444194E+02 -0.88993908959E-01 -0.30691585412E+02  0.36954830670E+02  0.00000000000E+00 0. -1.
</event>
<event>
 7    1  0.3742599E-009  0.4778727E+02  0.7816164E-02  0.1312668E+00
        -11   -1    0    0    0    0  0.00000000000E+00  0.00000000000E+00  0.45593999997E+02  0.45594000000E+02  0.51100000000E-03 0.  1.
         11   -1    0    0    0    0 -0.00000000000E+00 -0.00000000000E+00 -0.45593999997E+02  0.45594000000E+02  0.51100000000E-03 0. -1.
    9900012    2    1    2    0    0 -0.20514003007E+02  0.35377889390E+01 -0.38082580575E+02  0.47787271743E+02  0.20000003187E+02 0.  0.
        -12    1    1    2    0    0  0.20514003007E+02 -0.35377889390E+01  0.38082580575E+02  0.43400728257E+02  0.00000000000E+00 0.  1.
         11    1    3    3    0    0 -0.70854037712E+01 -0.19346397360E+01 -0.15928135329E+02  0.17539990673E+02  0.51100000000E-03 0. -1.
        -11    1    3    3    0    0  0.85019894466E+00  0.29107072792E+01 -0.12401452337E+02  0.12766795817E+02  0.51100000000E-03 0.  1.
         12    1    3    3    0    0 -0.14278798181E+02  0.25617213959E+01 -0.97529929093E+01  0.17480485253E+02  0.00000000000E+00 0. -1.
</event>
<event>
 7    1  0.3742599E-009  0.4778728E+02  0.7816164E-02  0.1312668E+00
        -11   -1    0    0    0    0  0.00000000000E+00  0.00000000000E+00  0.45593999997E+02  0.45594000000E+02  0.51100000000E-03 0.  1.
         11   -1    0    0    0    0 -0.00000000000E+00 -0.00000000000E+00 -0.45593999997E+02  0.45594000000E+02  0.51100000000E-03 0. -1.
    9900012    2    1    2    0    0 -0.21626075696E+02  0.36218746981E+02 -0.10204801382E+02  0.47787277032E+02  0.20000027301E+02 0.  0.
        -12    1    1    2    0    0  0.21626075696E+02 -0.36218746981E+02  0.10204801382E+02  0.43400722968E+02  0.00000000000E+00 0.  1.
         11    1    3    3    0    0 -0.11592261040E+02  0.19367137809E+02 -0.25100332432E+01  0.22710499996E+02  0.51100000000E-03 0.  1.
        -11    1    3    3    0    0 -0.87432595963E+01  0.18201072386E+02 -0.96444304446E+01  0.22377190691E+02  0.51100000000E-03 0. -1.
         12    1    3    3    0    0 -0.12905550598E+01 -0.13494632136E+01  0.19496623061E+01  0.26995863452E+01  0.00000000000E+00 0. -1.
</event>
<event>
 7    1  0.3742599E-009  0.4778727E+02  0.7816164E-02  0.1312668E+00
        -11   -1    0    0    0    0  0.00000000000E+00  0.00000000000E+00  0.45593999997E+02  0.45594000000E+02  0.51100000000E-03 0.  1.
         11   -1    0    0    0    0 -0.00000000000E+00 -0.00000000000E+00 -0.45593999997E+02  0.45594000000E+02  0.51100000000E-03 0. -1.
    9900012    2    1    2    0    0 -0.29304220225E+02 -0.32005886796E+02  0.71355982502E+00  0.47787270971E+02  0.19999999666E+02 0.  0.
        -12    1    1    2    0    0  0.29304220225E+02  0.32005886796E+02 -0.71355982502E+00  0.43400729029E+02  0.00000000000E+00 0.  1.
         11    1    3    3    0    0 -0.65806453175E+01 -0.91251984450E+01 -0.19836792190E+01  0.11424058953E+02  0.51100000000E-03 0. -1.
        -11    1    3    3    0    0 -0.16620177812E+02 -0.50154909558E+01  0.19471865970E+01  0.17469315841E+02  0.51100000000E-03 0.  1.
        -12    1    3    3    0    0 -0.61033970950E+01 -0.17865197396E+02  0.75005244700E+00  0.18893896177E+02  0.00000000000E+00 0.  1.
</event>
<event>
 7    1  0.3742599E-009  0.4778727E+02  0.7816164E-02  0.1312668E+00
        -11   -1    0    0    0    0  0.00000000000E+00  0.00000000000E+00  0.45593999997E+02  0.45594000000E+02  0.51100000000E-03 0.  1.
         11   -1    0    0    0    0 -0.00000000000E+00 -0.00000000000E+00 -0.45593999997E+02  0.45594000000E+02  0.51100000000E-03 0. -1.
    9900012    2    1    2    0    0 -0.35944708628E+02 -0.16890993421E+02  0.17501306682E+02  0.47787268754E+02  0.19999989559E+02 0.  0.
        -12    1    1    2    0    0  0.35944708628E+02  0.16890993421E+02 -0.17501306682E+02  0.43400731246E+02  0.00000000000E+00 0.  1.
         11    1    3    3    0    0 -0.31813306352E+02 -0.16022040188E+02  0.94120839298E+01  0.36842632330E+02  0.51100000000E-03 0. -1.
        -11    1    3    3    0    0 -0.39035436757E+01 -0.25367117255E+01  0.28894129373E+01  0.54791666328E+01  0.51100000000E-03 0.  1.
         12    1    3    3    0    0 -0.22785860041E+00  0.16677584931E+01  0.51998098152E+01  0.54654697920E+01  0.00000000000E+00 0. -1.
</event>
<event>
 7    1  0.3742599E-009  0.4778727E+02  0.7816164E-02  0.1312668E+00
        -11   -1    0    0    0    0  0.00000000000E+00  0.00000000000E+00  0.45593999997E+02  0.45594000000E+02  0.51100000000E-03 0. -1.
         11   -1    0    0    0    0 -0.00000000000E+00 -0.00000000000E+00 -0.45593999997E+02  0.45594000000E+02  0.51100000000E-03 0.  1.
    9900012    2    1    2    0    0  0.39658833100E+02 -0.57798068359E+01 -0.16655153285E+02  0.47787270272E+02  0.19999996480E+02 0.  0.
        -12    1    1    2    0    0 -0.39658833100E+02  0.57798068359E+01  0.16655153285E+02  0.43400729728E+02  0.00000000000E+00 0.  1.
         11    1    3    3    0    0  0.19510880820E+01  0.33125521667E+01  0.37765560250E+00  0.38629484305E+01  0.51100000000E-03 0. -1.
        -11    1    3    3    0    0  0.46075537664E+01 -0.49915667409E+01 -0.51237973791E+01  0.85087361036E+01  0.51100000000E-03 0.  1.
         12    1    3    3    0    0  0.33100191252E+02 -0.41007922618E+01 -0.11909011508E+02  0.35415585738E+02  0.00000000000E+00 0. -1.
</event>
<event>
 7    1  0.3742599E-009  0.4778728E+02  0.7816164E-02  0.1312668E+00
        -11   -1    0    0    0    0  0.00000000000E+00  0.00000000000E+00  0.45593999997E+02  0.45594000000E+02  0.51100000000E-03 0. -1.
         11   -1    0    0    0    0 -0.00000000000E+00 -0.00000000000E+00 -0.45593999997E+02  0.45594000000E+02  0.51100000000E-03 0.  1.
    9900012    2    1    2    0    0 -0.24264878631E+02 -0.25020039406E+02  0.25861859095E+02  0.47787280389E+02  0.20000042607E+02 0.  0.
        -12    1    1    2    0    0  0.24264878631E+02  0.25020039406E+02 -0.25861859095E+02  0.43400719611E+02  0.00000000000E+00 0.  1.
         11    1    3    3    0    0 -0.77864983137E+01 -0.17299497580E+02  0.17057080754E+02  0.25511687059E+02  0.51100000000E-03 0. -1.
        -11    1    3    3    0    0 -0.58623662048E+00 -0.24592439857E+01 -0.11731903556E+01  0.27871006849E+01  0.51100000000E-03 0.  1.
         12    1    3    3    0    0 -0.15892143697E+02 -0.52612978402E+01  0.99779686970E+01  0.19488492645E+02  0.00000000000E+00 0. -1.
</event>
<event>
 7    1  0.3742599E-009  0.4778727E+02  0.7816164E-02  0.1312668E+00
        -11   -1    0    0    0    0  0.00000000000E+00  0.00000000000E+00  0.45593999997E+02  0.45594000000E+02  0.51100000000E-03 0.  1.
         11   -1    0    0    0    0 -0.00000000000E+00 -0.00000000000E+00 -0.45593999997E+02  0.45594000000E+02  0.51100000000E-03 0. -1.
    9900012    2    1    2    0    0 -0.31322795313E+02 -0.23256345606E+02 -0.19017050146E+02  0.47787270589E+02  0.19999997925E+02 0.  0.
        -12    1    1    2    0    0  0.31322795313E+02  0.23256345606E+02  0.19017050146E+02  0.43400729411E+02  0.00000000000E+00 0.  1.
         11    1    3    3    0    0 -0.14359959124E+02 -0.13018487210E+02 -0.79153545694E+01  0.20936625169E+02  0.51100000000E-03 0. -1.
        -11    1    3    3    0    0 -0.10203384101E+02 -0.60514185637E+01  0.14927544367E+01  0.11956463934E+02  0.51100000000E-03 0.  1.
         12    1    3    3    0    0 -0.67594520881E+01 -0.41864398323E+01 -0.12594450013E+02  0.14894181486E+02  0.00000000000E+00 0. -1.
</event>
<event>
 7    1  0.3742599E-009  0.4778727E+02  0.7816164E-02  0.1312668E+00
        -11   -1    0    0    0    0  0.00000000000E+00  0.00000000000E+00  0.45593999997E+02  0.45594000000E+02  0.51100000000E-03 0.  1.
         11   -1    0    0    0    0 -0.00000000000E+00 -0.00000000000E+00 -0.45593999997E+02  0.45594000000E+02  0.51100000000E-03 0. -1.
    9900012    2    1    2    0    0 -0.15210301761E+02  0.32719959114E+02 -0.24117933242E+02  0.47787266044E+02  0.19999977202E+02 0.  0.
        -12    1    1    2    0    0  0.15210301761E+02 -0.32719959114E+02  0.24117933242E+02  0.43400733956E+02  0.00000000000E+00 0.  1.
         11    1    3    3    0    0 -0.22262489446E+01  0.85700100526E+01 -0.52222783983E+01  0.10279759170E+02  0.51100000000E-03 0. -1.
        -11    1    3    3    0    0  0.65975662866E+00 -0.19339314852E+01  0.68282446834E+00  0.21544417639E+01  0.51100000000E-03 0.  1.
         12    1    3    3    0    0 -0.13643809445E+02  0.26083880546E+02 -0.19578479312E+02  0.35353065110E+02  0.00000000000E+00 0. -1.
</event>
<event>
 7    1  0.3742599E-009  0.4778728E+02  0.7816164E-02  0.1312668E+00
        -11   -1    0    0    0    0  0.00000000000E+00  0.00000000000E+00  0.45593999997E+02  0.45594000000E+02  0.51100000000E-03 0.  1.
         11   -1    0    0    0    0 -0.00000000000E+00 -0.00000000000E+00 -0.45593999997E+02  0.45594000000E+02  0.51100000000E-03 0. -1.
    9900012    2    1    2    0    0 -0.24647911146E+02 -0.21489914810E+02  0.28535699061E+02  0.47787284760E+02  0.20000062535E+02 0.  0.
        -12    1    1    2    0    0  0.24647911146E+02  0.21489914810E+02 -0.28535699061E+02  0.43400715240E+02  0.00000000000E+00 0.  1.
         11    1    3    3    0    0 -0.65400549085E+01 -0.65849711029E+01  0.99151058057E+01  0.13580997240E+02  0.51100000000E-03 0. -1.
        -11    1    3    3    0    0  0.31819216059E+01 -0.13581493060E+01  0.22515009211E+01  0.41277658972E+01  0.51100000000E-03 0.  1.
        -12    1    3    3    0    0 -0.21289777843E+02 -0.13546794401E+02  0.16369092335E+02  0.30078521623E+02  0.00000000000E+00 0.  1.
</event>
<event>
 7    1  0.3742599E-009  0.4778727E+02  0.7816164E-02  0.1312668E+00
        -11   -1    0    0    0    0  0.00000000000E+00  0.00000000000E+00  0.45593999997E+02  0.45594000000E+02  0.51100000000E-03 0.  1.
         11   -1    0    0    0    0 -0.00000000000E+00 -0.00000000000E+00 -0.45593999997E+02  0.45594000000E+02  0.51100000000E-03 0. -1.
    9900012    2    1    2    0    0  0.77352309066E+01 -0.20113345249E+02 -0.37672838247E+02  0.47787271943E+02  0.20000004099E+02 0.  0.
        -12    1    1    2    0    0 -0.77352309066E+01  0.20113345249E+02  0.37672838247E+02  0.43400728057E+02  0.00000000000E+00 0.  1.
         11    1    3    3    0    0  0.90198740400E+01 -0.18980617729E+02 -0.21573322011E+02  0.30116942075E+02  0.51100000000E-03 0. -1.
        -11    1    3    3    0    0  0.97733535195E+00  0.11435583701E+01 -0.28191356083E+00  0.15304854304E+01  0.51100000000E-03 0.  1.
         12    1    3    3    0    0 -0.22619784853E+01 -0.22762858900E+01 -0.15817602674E+02  0.16139844438E+02  0.00000000000E+00 0. -1.
</event>
<event>
 7    1  0.3742599E-009  0.4778728E+02  0.7816164E-02  0.1312668E+00
        -11   -1    0    0    0    0  0.00000000000E+00  0.00000000000E+00  0.45593999997E+02  0.45594000000E+02  0.51100000000E-03 0.  1.
         11   -1    0    0    0    0 -0.00000000000E+00 -0.00000000000E+00 -0.45593999997E+02  0.45594000000E+02  0.51100000000E-03 0. -1.
    9900012    2    1    2    0    0  0.39947888410E+02 -0.68515163606E+01 -0.15519205503E+02  0.47787276454E+02  0.20000024666E+02 0.  0.
        -12    1    1    2    0    0 -0.39947888410E+02  0.68515163606E+01  0.15519205503E+02  0.43400723546E+02  0.00000000000E+00 0.  1.
         11    1    3    3    0    0  0.19486028924E+02 -0.54907541676E+01 -0.42177566165E+01  0.20679535190E+02  0.51100000000E-03 0. -1.
        -11    1    3    3    0    0  0.22224352819E+02 -0.17994779573E+01 -0.86984687246E+01  0.23933728033E+02  0.51100000000E-03 0.  1.
         12    1    3    3    0    0 -0.17624933326E+01  0.43871576421E+00 -0.26029801621E+01  0.31740132314E+01  0.00000000000E+00 0. -1.
</event>
<event>
 7    1  0.3742599E-009  0.4778727E+02  0.7816164E-02  0.1312668E+00
        -11   -1    0    0    0    0  0.00000000000E+00  0.00000000000E+00  0.45593999997E+02  0.45594000000E+02  0.51100000000E-03 0. -1.
         11   -1    0    0    0    0 -0.00000000000E+00 -0.00000000000E+00 -0.45593999997E+02  0.45594000000E+02  0.51100000000E-03 0.  1.
    9900012    2    1    2    0    0 -0.29509004146E+02 -0.31110494537E+02  0.67066360885E+01  0.47787272314E+02  0.20000005789E+02 0.  0.
        -12    1    1    2    0    0  0.29509004146E+02  0.31110494537E+02 -0.67066360885E+01  0.43400727686E+02  0.00000000000E+00 0.  1.
         11    1    3    3    0    0 -0.17578429255E+02 -0.20001558738E+02 -0.33587641284E+00  0.26630365004E+02  0.51100000000E-03 0. -1.
        -11    1    3    3    0    0 -0.12168889893E+02 -0.45100251463E+01  0.27054846668E+01  0.13256766408E+02  0.51100000000E-03 0.  1.
        -12    1    3    3    0    0  0.23831500109E+00 -0.65989106525E+01  0.43370278345E+01  0.79001409023E+01  0.00000000000E+00 0.  1.
</event>
<event>
 7    1  0.3742599E-009  0.4778727E+02  0.7816164E-02  0.1312668E+00
        -11   -1    0    0    0    0  0.00000000000E+00  0.00000000000E+00  0.45593999997E+02  0.45594000000E+02  0.51100000000E-03 0.  1.
         11   -1    0    0    0    0 -0.00000000000E+00 -0.00000000000E+00 -0.45593999997E+02  0.45594000000E+02  0.51100000000E-03 0. -1.
    9900012    2    1    2    0    0 -0.41661976233E+02 -0.61600821652E+01 -0.10486034137E+02  0.47787265123E+02  0.19999973002E+02 0.  0.
        -12    1    1    2    0    0  0.41661976233E+02  0.61600821652E+01  0.10486034137E+02  0.43400734877E+02  0.00000000000E+00 0.  1.
         11    1    3    3    0    0 -0.15306108839E+02 -0.90011538964E+01 -0.95519250373E+01  0.20162762991E+02  0.51100000000E-03 0. -1.
        -11    1    3    3    0    0 -0.28508400426E+01 -0.89682313146E+00 -0.23206290038E+01  0.37837679517E+01  0.51100000000E-03 0.  1.
        -12    1    3    3    0    0 -0.23505027352E+02  0.37378948627E+01  0.13865199046E+01  0.23840734180E+02  0.00000000000E+00 0.  1.
</event>
<event>
 7    1  0.3742599E-009  0.4778728E+02  0.7816164E-02  0.1312668E+00
        -11   -1    0    0    0    0  0.00000000000E+00  0.00000000000E+00  0.45593999997E+02  0.45594000000E+02  0.51100000000E-03 0.  1.
         11   -1    0    0    0    0 -0.00000000000E+00 -0.00000000000E+00 -0.45593999997E+02  0.45594000000E+02  0.51100000000E-03 0. -1.
    9900012    2    1    2    0    0 -0.35174414703E+02 -0.45733333465E+01 -0.25009351426E+02  0.47787280117E+02  0.20000041367E+02 0.  0.
        -12    1    1    2    0    0  0.35174414703E+02  0.45733333465E+01  0.25009351426E+02  0.43400719883E+02  0.00000000000E+00 0.  1.
         11    1    3    3    0    0 -0.16031569671E+02 -0.54485530036E+01 -0.74383990682E+01  0.18493991914E+02  0.51100000000E-03 0. -1.
        -11    1    3    3    0    0 -0.13877040328E+02  0.39460365532E+01 -0.49074091404E+01  0.15238967074E+02  0.51100000000E-03 0.  1.
         12    1    3    3    0    0 -0.52658047033E+01 -0.30708168962E+01 -0.12663543218E+02  0.14054321129E+02  0.00000000000E+00 0. -1.
</event>
<event>
 7    1  0.3742599E-009  0.4778727E+02  0.7816164E-02  0.1312668E+00
        -11   -1    0    0    0    0  0.00000000000E+00  0.00000000000E+00  0.45593999997E+02  0.45594000000E+02  0.51100000000E-03 0.  1.
         11   -1    0    0    0    0 -0.00000000000E+00 -0.00000000000E+00 -0.45593999997E+02  0.45594000000E+02  0.51100000000E-03 0. -1.
    9900012    2    1    2    0    0 -0.87409933399E+01  0.14998870032E+02 -0.39777532245E+02  0.47787272606E+02  0.20000007122E+02 0.  0.
        -12    1    1    2    0    0  0.87409933399E+01 -0.14998870032E+02  0.39777532245E+02  0.43400727394E+02  0.00000000000E+00 0.  1.
         11    1    3    3    0    0 -0.76835630117E+00  0.21136915494E+01 -0.76372868551E+01  0.79615459641E+01  0.51100000000E-03 0. -1.
        -11    1    3    3    0    0 -0.77524858032E+01  0.21670654174E+01 -0.26936613909E+01  0.84884050682E+01  0.51100000000E-03 0.  1.
        -12    1    3    3    0    0 -0.22015123552E+00  0.10718113065E+02 -0.29446583999E+02  0.31337321574E+02  0.00000000000E+00 0.  1.
</event>
<event>
 7    1  0.3742599E-009  0.4778727E+02  0.7816164E-02  0.1312668E+00
        -11   -1    0    0    0    0  0.00000000000E+00  0.00000000000E+00  0.45593999997E+02  0.45594000000E+02  0.51100000000E-03 0. -1.
         11   -1    0    0    0    0 -0.00000000000E+00 -0.00000000000E+00 -0.45593999997E+02  0.45594000000E+02  0.51100000000E-03 0.  1.
    9900012    2    1    2    0    0  0.37111132325E+02  0.19761418620E+02  0.10764456582E+02  0.47787270354E+02  0.19999996850E+02 0.  0.
        -12    1    1    2    0    0 -0.37111132325E+02 -0.19761418620E+02 -0.10764456582E+02  0.43400729646E+02  0.00000000000E+00 0.  1.
         11    1    3    3    0    0  0.13197674998E+01 -0.14261353736E+00 -0.10482014649E+01  0.16914051693E+01  0.51100000000E-03 0. -1.
        -11    1    3    3    0    0  0.11645218764E+01  0.43736475780E+01 -0.29201815527E+01  0.53863127368E+01  0.51100000000E-03 0.  1.
         12    1    3    3    0    0  0.34626842949E+02  0.15530384579E+02  0.14732839599E+02  0.40709552447E+02  0.00000000000E+00 0. -1.
</event>
<event>
 7    1  0.3742599E-009  0.4778729E+02  0.7816164E-02  0.1312668E+00
        -11   -1    0    0    0    0  0.00000000000E+00  0.00000000000E+00  0.45593999997E+02  0.45594000000E+02  0.51100000000E-03 0.  1.
         11   -1    0    0    0    0 -0.00000000000E+00 -0.00000000000E+00 -0.45593999997E+02  0.45594000000E+02  0.51100000000E-03 0. -1.
    9900012    2    1    2    0    0  0.51866190819E+01  0.12606894365E+02 -0.41204213156E+02  0.47787285895E+02  0.20000067709E+02 0.  0.
        -12    1    1    2    0    0 -0.51866190819E+01 -0.12606894365E+02  0.41204213156E+02  0.43400714105E+02  0.00000000000E+00 0.  1.
         11    1    3    3    0    0  0.29903445809E+00  0.11305778817E+02 -0.28185095757E+02  0.30369551847E+02  0.51100000000E-03 0. -1.
        -11    1    3    3    0    0  0.73931895399E+00 -0.35464629190E-01 -0.13038424832E+02  0.13059417009E+02  0.51100000000E-03 0.  1.
         12    1    3    3    0    0  0.41482656698E+01  0.13365801769E+01  0.19307433329E-01  0.43583170391E+01  0.00000000000E+00 0. -1.
</event>
<event>
 7    1  0.3742599E-009  0.4778727E+02  0.7816164E-02  0.1312668E+00
        -11   -1    0    0    0    0  0.00000000000E+00  0.00000000000E+00  0.45593999997E+02  0.45594000000E+02  0.51100000000E-03 0.  1.
         11   -1    0    0    0    0 -0.00000000000E+00 -0.00000000000E+00 -0.45593999997E+02  0.45594000000E+02  0.51100000000E-03 0. -1.
    9900012    2    1    2    0    0  0.58036100187E+01 -0.15590293644E+02 -0.40085962464E+02  0.47787268072E+02  0.19999986449E+02 0.  0.
        -12    1    1    2    0    0 -0.58036100187E+01  0.15590293644E+02  0.40085962464E+02  0.43400731928E+02  0.00000000000E+00 0.  1.
         11    1    3    3    0    0  0.27128737557E+01 -0.13264333027E+02 -0.23951273236E+02  0.27513009733E+02  0.51100000000E-03 0. -1.
        -11    1    3    3    0    0  0.42413537788E+01 -0.56604215778E+01 -0.51839524497E+01  0.87694251566E+01  0.51100000000E-03 0.  1.
        -12    1    3    3    0    0 -0.11506175159E+01  0.33344609609E+01 -0.10950736778E+02  0.11504833183E+02  0.00000000000E+00 0.  1.
</event>
<event>
 7    1  0.3742599E-009  0.4778727E+02  0.7816164E-02  0.1312668E+00
        -11   -1    0    0    0    0  0.00000000000E+00  0.00000000000E+00  0.45593999997E+02  0.45594000000E+02  0.51100000000E-03 0.  1.
         11   -1    0    0    0    0 -0.00000000000E+00 -0.00000000000E+00 -0.45593999997E+02  0.45594000000E+02  0.51100000000E-03 0. -1.
    9900012    2    1    2    0    0 -0.22208315217E+02  0.12546071885E+02 -0.35114243284E+02  0.47787271136E+02  0.20000000419E+02 0.  0.
        -12    1    1    2    0    0  0.22208315217E+02 -0.12546071885E+02  0.35114243284E+02  0.43400728864E+02  0.00000000000E+00 0.  1.
         11    1    3    3    0    0 -0.11482157780E+01 -0.35247436243E+01 -0.35879280210E+01  0.51590158785E+01  0.51100000000E-03 0. -1.
        -11    1    3    3    0    0 -0.39622429052E+01  0.69229270370E+01 -0.39086145183E+01  0.88827673229E+01  0.51100000000E-03 0.  1.
         12    1    3    3    0    0 -0.17097856533E+02  0.91478884725E+01 -0.27617700745E+02  0.33745487935E+02  0.00000000000E+00 0. -1.
</event>
<event>
 7    1  0.3742599E-009  0.4778727E+02  0.7816164E-02  0.1312668E+00
        -11   -1    0    0    0    0  0.00000000000E+00  0.00000000000E+00  0.45593999997E+02  0.45594000000E+02  0.51100000000E-03 0. -1.
         11   -1    0    0    0    0 -0.00000000000E+00 -0.00000000000E+00 -0.45593999997E+02  0.45594000000E+02  0.51100000000E-03 0.  1.
    9900012    2    1    2    0    0 -0.56357108949E+01 -0.33035370579E+01  0.42906277178E+02  0.47787271715E+02  0.20000003058E+02 0.  0.
        -12    1    1    2    0    0  0.56357108949E+01  0.33035370579E+01 -0.42906277178E+02  0.43400728285E+02  0.00000000000E+00 0.  1.
         11    1    3    3    0    0 -0.43103072921E+01  0.46658778917E+01  0.11640442922E+02  0.13260809822E+02  0.51100000000E-03 0. -1.
        -11    1    3    3    0    0  0.38244551650E+01 -0.84109987169E+00  0.19204435248E+02  0.19599597949E+02  0.51100000000E-03 0.  1.
        -12    1    3    3    0    0 -0.51498587678E+01 -0.71283150779E+01  0.12061399008E+02  0.14926863944E+02  0.00000000000E+00 0.  1.
</event>
<event>
 7    1  0.3742599E-009  0.4778727E+02  0.7816164E-02  0.1312668E+00
        -11   -1    0    0    0    0  0.00000000000E+00  0.00000000000E+00  0.45593999997E+02  0.45594000000E+02  0.51100000000E-03 0.  1.
         11   -1    0    0    0    0 -0.00000000000E+00 -0.00000000000E+00 -0.45593999997E+02  0.45594000000E+02  0.51100000000E-03 0. -1.
    9900012    2    1    2    0    0 -0.10306566098E+02  0.39576164566E+02 -0.14530141798E+02  0.47787272735E+02  0.20000007707E+02 0.  0.
        -12    1    1    2    0    0  0.10306566098E+02 -0.39576164566E+02  0.14530141798E+02  0.43400727265E+02  0.00000000000E+00 0.  1.
         11    1    3    3    0    0 -0.20217482864E+00  0.66305008060E+01 -0.32241270057E+00  0.66414129378E+01  0.51100000000E-03 0. -1.
        -11    1    3    3    0    0 -0.75181856399E+01  0.33817793626E+02 -0.15700344046E+02  0.38035077027E+02  0.51100000000E-03 0.  1.
        -12    1    3    3    0    0 -0.25862056293E+01 -0.87212986583E+00  0.14926149483E+01  0.31107827702E+01  0.00000000000E+00 0.  1.
</event>
<event>
 7    1  0.3742599E-009  0.4778727E+02  0.7816164E-02  0.1312668E+00
        -11   -1    0    0    0    0  0.00000000000E+00  0.00000000000E+00  0.45593999997E+02  0.45594000000E+02  0.51100000000E-03 0. -1.
         11   -1    0    0    0    0 -0.00000000000E+00 -0.00000000000E+00 -0.45593999997E+02  0.45594000000E+02  0.51100000000E-03 0.  1.
    9900012    2    1    2    0    0 -0.31337953422E+02 -0.11130931827E+02  0.27886527520E+02  0.47787269763E+02  0.19999994158E+02 0.  0.
        -12    1    1    2    0    0  0.31337953422E+02  0.11130931827E+02 -0.27886527520E+02  0.43400730237E+02  0.00000000000E+00 0.  1.
         11    1    3    3    0    0 -0.93950255747E+01  0.83817842866E-01  0.37242110672E+01  0.10106595832E+02  0.51100000000E-03 0. -1.
        -11    1    3    3    0    0 -0.67097704591E+01 -0.38822631869E+01 -0.51351012671E+00  0.77689561704E+01  0.51100000000E-03 0.  1.
        -12    1    3    3    0    0 -0.15233157388E+02 -0.73324864829E+01  0.24675826579E+02  0.29911717761E+02  0.00000000000E+00 0.  1.
</event>
<event>
 7    1  0.3742599E-009  0.4778727E+02  0.7816164E-02  0.1312668E+00
        -11   -1    0    0    0    0  0.00000000000E+00  0.00000000000E+00  0.45593999997E+02  0.45594000000E+02  0.51100000000E-03 0.  1.
         11   -1    0    0    0    0 -0.00000000000E+00 -0.00000000000E+00 -0.45593999997E+02  0.45594000000E+02  0.51100000000E-03 0. -1.
    9900012    2    1    2    0    0  0.23683306923E+02 -0.36332471319E+02 -0.16358061462E+01  0.47787270044E+02  0.19999995440E+02 0.  0.
        -12    1    1    2    0    0 -0.23683306923E+02  0.36332471319E+02  0.16358061462E+01  0.43400729956E+02  0.00000000000E+00 0.  1.
         11    1    3    3    0    0  0.28161874591E+01 -0.47873930076E-01 -0.26519169629E+01  0.38685743572E+01  0.51100000000E-03 0. -1.
        -11    1    3    3    0    0  0.31301835169E+01 -0.34116974610E+01 -0.41408828310E+01  0.62116535074E+01  0.51100000000E-03 0.  1.
        -12    1    3    3    0    0  0.17736935947E+02 -0.32872899928E+02  0.51569936477E+01  0.37707042180E+02  0.00000000000E+00 0.  1.
</event>
<event>
 7    1  0.3742599E-009  0.4778727E+02  0.7816164E-02  0.1312668E+00
        -11   -1    0    0    0    0  0.00000000000E+00  0.00000000000E+00  0.45593999997E+02  0.45594000000E+02  0.51100000000E-03 0.  1.
         11   -1    0    0    0    0 -0.00000000000E+00 -0.00000000000E+00 -0.45593999997E+02  0.45594000000E+02  0.51100000000E-03 0. -1.
    9900012    2    1    2    0    0  0.10998793202E+02 -0.39435270458E+02 -0.14405181573E+02  0.47787271156E+02  0.20000000509E+02 0.  0.
        -12    1    1    2    0    0 -0.10998793202E+02  0.39435270458E+02  0.14405181573E+02  0.43400728844E+02  0.00000000000E+00 0.  1.
         11    1    3    3    0    0  0.50551117942E+01 -0.17361504077E+02 -0.47044293434E+01  0.18684422249E+02  0.51100000000E-03 0. -1.
        -11    1    3    3    0    0  0.54161887939E+01 -0.42763818380E+01  0.26941582240E+01  0.74081732885E+01  0.51100000000E-03 0.  1.
        -12    1    3    3    0    0  0.52749261373E+00 -0.17797384544E+02 -0.12394910454E+02  0.21694675619E+02  0.00000000000E+00 0.  1.
</event>
<event>
 7    1  0.3742599E-009  0.4778727E+02  0.7816164E-02  0.1312668E+00
        -11   -1    0    0    0    0  0.00000000000E+00  0.00000000000E+00  0.45593999997E+02  0.45594000000E+02  0.51100000000E-03 0.  1.
         11   -1    0    0    0    0 -0.00000000000E+00 -0.00000000000E+00 -0.45593999997E+02  0.45594000000E+02  0.51100000000E-03 0. -1.
    9900012    2    1    2    0    0 -0.75842632472E+01  0.35008623286E+02 -0.24505070358E+02  0.47787271588E+02  0.20000002479E+02 0.  0.
        -12    1    1    2    0    0  0.75842632472E+01 -0.35008623286E+02  0.24505070358E+02  0.43400728412E+02  0.00000000000E+00 0.  1.
         11    1    3    3    0    0 -0.47496687307E+01  0.13430711557E+02 -0.94116639192E+01  0.17074038303E+02  0.51100000000E-03 0.  1.
        -11    1    3    3    0    0 -0.43841405869E+01  0.18385322684E+02 -0.18019239690E+02  0.26113861801E+02  0.51100000000E-03 0. -1.
        -12    1    3    3    0    0  0.15495460703E+01  0.31925890452E+01  0.29258332512E+01  0.45993714842E+01  0.00000000000E+00 0.  1.
</event>
<event>
 7    1  0.3742599E-009  0.4778727E+02  0.7816164E-02  0.1312668E+00
        -11   -1    0    0    0    0  0.00000000000E+00  0.00000000000E+00  0.45593999997E+02  0.45594000000E+02  0.51100000000E-03 0.  1.
         11   -1    0    0    0    0 -0.00000000000E+00 -0.00000000000E+00 -0.45593999997E+02  0.45594000000E+02  0.51100000000E-03 0. -1.
    9900012    2    1    2    0    0  0.34931795061E+01  0.33501606925E+02 -0.27369019917E+02  0.47787271655E+02  0.20000002785E+02 0.  0.
        -12    1    1    2    0    0 -0.34931795061E+01 -0.33501606925E+02  0.27369019917E+02  0.43400728345E+02  0.00000000000E+00 0.  1.
         11    1    3    3    0    0  0.43195138408E+01  0.36578789793E+01 -0.10273598912E+02  0.11729668082E+02  0.51100000000E-03 0. -1.
        -11    1    3    3    0    0  0.48859109583E+01  0.14220988968E+02 -0.93654207958E+01  0.17714958652E+02  0.51100000000E-03 0.  1.
        -12    1    3    3    0    0 -0.57122452929E+01  0.15622738978E+02 -0.77300002098E+01  0.18342644921E+02  0.00000000000E+00 0.  1.
</event>
<event>
 7    1  0.3742599E-009  0.4778727E+02  0.7816164E-02  0.1312668E+00
        -11   -1    0    0    0    0  0.00000000000E+00  0.00000000000E+00  0.45593999997E+02  0.45594000000E+02  0.51100000000E-03 0.  1.
         11   -1    0    0    0    0 -0.00000000000E+00 -0.00000000000E+00 -0.45593999997E+02  0.45594000000E+02  0.51100000000E-03 0. -1.
    9900012    2    1    2    0    0 -0.16671382510E+02  0.69161155307E+01 -0.39469684618E+02  0.47787266681E+02  0.19999980104E+02 0.  0.
        -12    1    1    2    0    0  0.16671382510E+02 -0.69161155307E+01  0.39469684618E+02  0.43400733319E+02  0.00000000000E+00 0.  1.
         11    1    3    3    0    0  0.28453183714E+01  0.23236721150E+01 -0.74566204731E+01  0.83124291199E+01  0.51100000000E-03 0. -1.
        -11    1    3    3    0    0  0.39181542416E+00 -0.19509546846E+01 -0.42282664950E+01  0.46731125946E+01  0.51100000000E-03 0.  1.
        -12    1    3    3    0    0 -0.19908516306E+02  0.65433981003E+01 -0.27784797650E+02  0.34801724966E+02  0.00000000000E+00 0.  1.
</event>
<event>
 7    1  0.3742599E-009  0.4778727E+02  0.7816164E-02  0.1312668E+00
        -11   -1    0    0    0    0  0.00000000000E+00  0.00000000000E+00  0.45593999997E+02  0.45594000000E+02  0.51100000000E-03 0.  1.
         11   -1    0    0    0    0 -0.00000000000E+00 -0.00000000000E+00 -0.45593999997E+02  0.45594000000E+02  0.51100000000E-03 0. -1.
    9900012    2    1    2    0    0 -0.22918994213E+02 -0.27745203608E+02 -0.24259983865E+02  0.47787269175E+02  0.19999991478E+02 0.  0.
        -12    1    1    2    0    0  0.22918994213E+02  0.27745203608E+02  0.24259983865E+02  0.43400730825E+02  0.00000000000E+00 0.  1.
         11    1    3    3    0    0 -0.11423392427E+02 -0.25907313261E+02 -0.16144521504E+02  0.32593378925E+02  0.51100000000E-03 0. -1.
        -11    1    3    3    0    0  0.34099693458E+00  0.52068660677E+00  0.46062671890E-01  0.62411175500E+00  0.51100000000E-03 0.  1.
         12    1    3    3    0    0 -0.11836598721E+02 -0.23585769538E+01 -0.81615250334E+01  0.14569778495E+02  0.00000000000E+00 0. -1.
</event>
<event>
 7    1  0.6544945E-009  0.4778727E+02  0.7816164E-02  0.1312668E+00
        -11   -1    0    0    0    0  0.00000000000E+00  0.00000000000E+00  0.45593999997E+02  0.45594000000E+02  0.51100000000E-03 0.  1.
         11   -1    0    0    0    0 -0.00000000000E+00 -0.00000000000E+00 -0.45593999997E+02  0.45594000000E+02  0.51100000000E-03 0. -1.
    9900012    2    1    2    0    0 -0.16742315317E+02  0.34097631519E+02 -0.20992137912E+02  0.47787268998E+02  0.19999990670E+02 0.  0.
        -12    1    1    2    0    0  0.16742315317E+02 -0.34097631519E+02  0.20992137912E+02  0.43400731002E+02  0.00000000000E+00 0.  1.
         11    1    3    3    0    0 -0.13145189325E+02  0.16806050486E+02 -0.11938031555E+02  0.24449047690E+02  0.51100000000E-03 0. -1.
        -11    1    3    3    0    0 -0.41948890346E+01  0.23124444912E+01  0.14830475103E+01  0.50143717170E+01  0.51100000000E-03 0.  1.
        -12    1    3    3    0    0  0.59776304187E+00  0.14979136542E+02 -0.10537153867E+02  0.18323849591E+02  0.00000000000E+00 0.  1.
</event>
<event>
 7    1  0.3742599E-009  0.4778727E+02  0.7816164E-02  0.1312668E+00
        -11   -1    0    0    0    0  0.00000000000E+00  0.00000000000E+00  0.45593999997E+02  0.45594000000E+02  0.51100000000E-03 0.  1.
         11   -1    0    0    0    0 -0.00000000000E+00 -0.00000000000E+00 -0.45593999997E+02  0.45594000000E+02  0.51100000000E-03 0. -1.
    9900012    2    1    2    0    0 -0.28485479972E+01  0.36182977686E+02 -0.23797092122E+02  0.47787266211E+02  0.19999977963E+02 0.  0.
        -12    1    1    2    0    0  0.28485479972E+01 -0.36182977686E+02  0.23797092122E+02  0.43400733789E+02  0.00000000000E+00 0.  1.
         11    1    3    3    0    0 -0.10867541712E+01  0.25016653580E+01 -0.43911877566E+01  0.51693224282E+01  0.51100000000E-03 0. -1.
        -11    1    3    3    0    0  0.61184220466E+00 -0.11323697681E+01 -0.44870351238E+01  0.46679863580E+01  0.51100000000E-03 0.  1.
         12    1    3    3    0    0 -0.23736360307E+01  0.34813682096E+02 -0.14918869242E+02  0.37949957425E+02  0.00000000000E+00 0. -1.
</event>
<event>
 7    1  0.3742599E-009  0.4778727E+02  0.7816164E-02  0.1312668E+00
        -11   -1    0    0    0    0  0.00000000000E+00  0.00000000000E+00  0.45593999997E+02  0.45594000000E+02  0.51100000000E-03 0.  1.
         11   -1    0    0    0    0 -0.00000000000E+00 -0.00000000000E+00 -0.45593999997E+02  0.45594000000E+02  0.51100000000E-03 0. -1.
    9900012    2    1    2    0    0 -0.33932401226E+01 -0.43262793747E+02 -0.66330299230E+00  0.47787269912E+02  0.19999994835E+02 0.  0.
        -12    1    1    2    0    0  0.33932401226E+01  0.43262793747E+02  0.66330299230E+00  0.43400730088E+02  0.00000000000E+00 0.  1.
         11    1    3    3    0    0  0.27356438725E+00 -0.11618551801E+02 -0.45428350996E+01  0.12478098190E+02  0.51100000000E-03 0. -1.
        -11    1    3    3    0    0 -0.50737501456E+01 -0.12234964943E+02 -0.46826296800E+01  0.14048641524E+02  0.51100000000E-03 0.  1.
        -12    1    3    3    0    0  0.14069456358E+01 -0.19409277003E+02  0.85621617873E+01  0.21260530197E+02  0.00000000000E+00 0.  1.
</event>
<event>
 7    1  0.3742599E-009  0.4778727E+02  0.7816164E-02  0.1312668E+00
        -11   -1    0    0    0    0  0.00000000000E+00  0.00000000000E+00  0.45593999997E+02  0.45594000000E+02  0.51100000000E-03 0.  1.
         11   -1    0    0    0    0 -0.00000000000E+00 -0.00000000000E+00 -0.45593999997E+02  0.45594000000E+02  0.51100000000E-03 0. -1.
    9900012    2    1    2    0    0 -0.93020854464E+01 -0.38670831503E+02 -0.17368412906E+02  0.47787265333E+02  0.19999973957E+02 0.  0.
        -12    1    1    2    0    0  0.93020854464E+01  0.38670831503E+02  0.17368412906E+02  0.43400734667E+02  0.00000000000E+00 0.  1.
         11    1    3    3    0    0 -0.55740094426E+01 -0.19797627161E+02 -0.11362424141E+02  0.23497240372E+02  0.51100000000E-03 0. -1.
        -11    1    3    3    0    0 -0.37660529605E+01 -0.21020724044E+02 -0.50815516744E+01  0.21951677884E+02  0.51100000000E-03 0.  1.
        -12    1    3    3    0    0  0.37976956579E-01  0.21475197017E+01 -0.92443709025E+00  0.23383470769E+01  0.00000000000E+00 0.  1.
</event>
<event>
 7    1  0.3742599E-009  0.4778726E+02  0.7816164E-02  0.1312668E+00
        -11   -1    0    0    0    0  0.00000000000E+00  0.00000000000E+00  0.45593999997E+02  0.45594000000E+02  0.51100000000E-03 0.  1.
         11   -1    0    0    0    0 -0.00000000000E+00 -0.00000000000E+00 -0.45593999997E+02  0.45594000000E+02  0.51100000000E-03 0. -1.
    9900012    2    1    2    0    0 -0.53532663549E+00  0.15416331622E+02 -0.40566907976E+02  0.47787264084E+02  0.19999968265E+02 0.  0.
        -12    1    1    2    0    0  0.53532663549E+00 -0.15416331622E+02  0.40566907976E+02  0.43400735916E+02  0.00000000000E+00 0.  1.
         11    1    3    3    0    0  0.21811013767E+01 -0.53999185395E-01 -0.12076857798E+01  0.24937169710E+01  0.51100000000E-03 0. -1.
        -11    1    3    3    0    0 -0.66864988717E+01  0.97065650124E+01 -0.11135421562E+02  0.16214940182E+02  0.51100000000E-03 0.  1.
         12    1    3    3    0    0  0.39700708595E+01  0.57637657948E+01 -0.28223800635E+02  0.29078606931E+02  0.00000000000E+00 0. -1.
</event>
<event>
 7    1  0.3742599E-009  0.4778727E+02  0.7816164E-02  0.1312668E+00
        -11   -1    0    0    0    0  0.00000000000E+00  0.00000000000E+00  0.45593999997E+02  0.45594000000E+02  0.51100000000E-03 0.  1.
         11   -1    0    0    0    0 -0.00000000000E+00 -0.00000000000E+00 -0.45593999997E+02  0.45594000000E+02  0.51100000000E-03 0. -1.
    9900012    2    1    2    0    0  0.35901107634E+02 -0.22313819655E+02 -0.98401058903E+01  0.47787265434E+02  0.19999974419E+02 0.  0.
        -12    1    1    2    0    0 -0.35901107634E+02  0.22313819655E+02  0.98401058903E+01  0.43400734566E+02  0.00000000000E+00 0.  1.
         11    1    3    3    0    0  0.66015167884E+01 -0.68259672773E+01 -0.73543880549E+01  0.12010864961E+02  0.51100000000E-03 0. -1.
        -11    1    3    3    0    0  0.15291824752E+02 -0.15354945270E+02 -0.19425817563E+01  0.21757478544E+02  0.51100000000E-03 0.  1.
        -12    1    3    3    0    0  0.14007766094E+02 -0.13290710823E+00 -0.54313607903E+00  0.14018921929E+02  0.00000000000E+00 0.  1.
</event>
<event>
 7    1  0.3742599E-009  0.4778727E+02  0.7816164E-02  0.1312668E+00
        -11   -1    0    0    0    0  0.00000000000E+00  0.00000000000E+00  0.45593999997E+02  0.45594000000E+02  0.51100000000E-03 0.  1.
         11   -1    0    0    0    0 -0.00000000000E+00 -0.00000000000E+00 -0.45593999997E+02  0.45594000000E+02  0.51100000000E-03 0. -1.
    9900012    2    1    2    0    0 -0.16177729180E+02 -0.20278357437E+02 -0.34795010957E+02  0.47787268564E+02  0.19999988688E+02 0.  0.
        -12    1    1    2    0    0  0.16177729180E+02  0.20278357437E+02  0.34795010957E+02  0.43400731436E+02  0.00000000000E+00 0.  1.
         11    1    3    3    0    0  0.43840389063E+00 -0.12132194121E+02 -0.13953811818E+02  0.18495707520E+02  0.51100000000E-03 0.  1.
        -11    1    3    3    0    0 -0.68782383494E+01 -0.76285999293E+01 -0.14066569647E+02  0.17417637083E+02  0.51100000000E-03 0. -1.
        -12    1    3    3    0    0 -0.97378947210E+01 -0.51756338634E+00 -0.67746294921E+01  0.11873923960E+02  0.00000000000E+00 0.  1.
</event>
<event>
 7    1  0.3742599E-009  0.4778727E+02  0.7816164E-02  0.1312668E+00
        -11   -1    0    0    0    0  0.00000000000E+00  0.00000000000E+00  0.45593999997E+02  0.45594000000E+02  0.51100000000E-03 0. -1.
         11   -1    0    0    0    0 -0.00000000000E+00 -0.00000000000E+00 -0.45593999997E+02  0.45594000000E+02  0.51100000000E-03 0.  1.
    9900012    2    1    2    0    0  0.29122124607E+01  0.26460778095E+02  0.34277828271E+02  0.47787271092E+02  0.20000000216E+02 0.  0.
        -12    1    1    2    0    0 -0.29122124607E+01 -0.26460778095E+02 -0.34277828271E+02  0.43400728908E+02  0.00000000000E+00 0.  1.
         11    1    3    3    0    0 -0.14373416897E+01 -0.27246182456E+00  0.19044319792E+00  0.14752814821E+01  0.51100000000E-03 0. -1.
        -11    1    3    3    0    0  0.40725073207E+01  0.67415332326E+00  0.10990475728E+01  0.42717331856E+01  0.51100000000E-03 0.  1.
         12    1    3    3    0    0  0.27704682964E+00  0.26059086596E+02  0.32988337500E+02  0.42040256424E+02  0.00000000000E+00 0. -1.
</event>
<event>
 7    1  0.3742599E-009  0.4778727E+02  0.7816164E-02  0.1312668E+00
        -11   -1    0    0    0    0  0.00000000000E+00  0.00000000000E+00  0.45593999997E+02  0.45594000000E+02  0.51100000000E-03 0. -1.
         11   -1    0    0    0    0 -0.00000000000E+00 -0.00000000000E+00 -0.45593999997E+02  0.45594000000E+02  0.51100000000E-03 0.  1.
    9900012    2    1    2    0    0 -0.15288024717E+02  0.95384691990E-01  0.40618843479E+02  0.47787271394E+02  0.20000001595E+02 0.  0.
        -12    1    1    2    0    0  0.15288024717E+02 -0.95384691990E-01 -0.40618843479E+02  0.43400728606E+02  0.00000000000E+00 0.  1.
         11    1    3    3    0    0 -0.28705567011E+01 -0.33969063155E+01  0.10422075116E+02  0.11331315822E+02  0.51100000000E-03 0. -1.
        -11    1    3    3    0    0 -0.15766859718E+02  0.25686648354E+01  0.19493805433E+02  0.25203181445E+02  0.51100000000E-03 0.  1.
        -12    1    3    3    0    0  0.33493917022E+01  0.92362617210E+00  0.10702962930E+02  0.11252774127E+02  0.00000000000E+00 0.  1.
</event>
<event>
 7    1  0.3742599E-009  0.4778727E+02  0.7816164E-02  0.1312668E+00
        -11   -1    0    0    0    0  0.00000000000E+00  0.00000000000E+00  0.45593999997E+02  0.45594000000E+02  0.51100000000E-03 0. -1.
         11   -1    0    0    0    0 -0.00000000000E+00 -0.00000000000E+00 -0.45593999997E+02  0.45594000000E+02  0.51100000000E-03 0.  1.
    9900012    2    1    2    0    0 -0.71117637944E+01 -0.15756287618E+01  0.42785084151E+02  0.47787271710E+02  0.20000003036E+02 0.  0.
        -12    1    1    2    0    0  0.71117637944E+01  0.15756287618E+01 -0.42785084151E+02  0.43400728290E+02  0.00000000000E+00 0.  1.
         11    1    3    3    0    0  0.66023538001E+00 -0.18803778621E+01  0.25098819877E+02  0.25177817442E+02  0.51100000000E-03 0. -1.
        -11    1    3    3    0    0 -0.24515696814E+00 -0.40262271950E+01  0.10793140310E+02  0.11522260428E+02  0.51100000000E-03 0.  1.
         12    1    3    3    0    0 -0.75268422063E+01  0.43309762952E+01  0.68931239645E+01  0.11087193841E+02  0.00000000000E+00 0. -1.
</event>
<event>
 7    1  0.3742599E-009  0.4778724E+02  0.7816164E-02  0.1312668E+00
        -11   -1    0    0    0    0  0.00000000000E+00  0.00000000000E+00  0.45593999997E+02  0.45594000000E+02  0.51100000000E-03 0.  1.
         11   -1    0    0    0    0 -0.00000000000E+00 -0.00000000000E+00 -0.45593999997E+02  0.45594000000E+02  0.51100000000E-03 0. -1.
    9900012    2    1    2    0    0  0.20572811273E+02  0.18138541093E+02 -0.33635972045E+02  0.47787241343E+02  0.19999864578E+02 0.  0.
        -12    1    1    2    0    0 -0.20572811273E+02 -0.18138541093E+02  0.33635972045E+02  0.43400758657E+02  0.00000000000E+00 0.  1.
         11    1    3    3    0    0  0.17760235937E+02  0.18290986844E+02 -0.30481535983E+02  0.39738019785E+02  0.51100000000E-03 0. -1.
        -11    1    3    3    0    0  0.48015218315E+01  0.11236738847E+01 -0.27670774388E+01  0.56545532725E+01  0.51100000000E-03 0.  1.
        -12    1    3    3    0    0 -0.19889464965E+01 -0.12761196363E+01 -0.38735862261E+00  0.23946682849E+01  0.00000000000E+00 0.  1.
</event>
<event>
 7    1  0.3742599E-009  0.4778727E+02  0.7816164E-02  0.1312668E+00
        -11   -1    0    0    0    0  0.00000000000E+00  0.00000000000E+00  0.45593999997E+02  0.45594000000E+02  0.51100000000E-03 0. -1.
         11   -1    0    0    0    0 -0.00000000000E+00 -0.00000000000E+00 -0.45593999997E+02  0.45594000000E+02  0.51100000000E-03 0.  1.
    9900012    2    1    2    0    0  0.24401914108E+02 -0.23759792156E+02  0.26900594155E+02  0.47787273033E+02  0.20000009065E+02 0.  0.
        -12    1    1    2    0    0 -0.24401914108E+02  0.23759792156E+02 -0.26900594155E+02  0.43400726967E+02  0.00000000000E+00 0.  1.
         11    1    3    3    0    0  0.87655851262E+01 -0.96433545879E+01  0.12897679098E+02  0.18335209208E+02  0.51100000000E-03 0. -1.
        -11    1    3    3    0    0 -0.92160597977E+00 -0.20511343962E+01 -0.23395137610E+01  0.32449706921E+01  0.51100000000E-03 0.  1.
         12    1    3    3    0    0  0.16557934961E+02 -0.12065303172E+02  0.16342428818E+02  0.26207093133E+02  0.00000000000E+00 0. -1.
</event>
<event>
 7    1  0.3742599E-009  0.4778727E+02  0.7816164E-02  0.1312668E+00
        -11   -1    0    0    0    0  0.00000000000E+00  0.00000000000E+00  0.45593999997E+02  0.45594000000E+02  0.51100000000E-03 0.  1.
         11   -1    0    0    0    0 -0.00000000000E+00 -0.00000000000E+00 -0.45593999997E+02  0.45594000000E+02  0.51100000000E-03 0. -1.
    9900012    2    1    2    0    0 -0.21092066233E+02  0.14147845415E+02 -0.35193558386E+02  0.47787270286E+02  0.19999996542E+02 0.  0.
        -12    1    1    2    0    0  0.21092066233E+02 -0.14147845415E+02  0.35193558386E+02  0.43400729714E+02  0.00000000000E+00 0.  1.
         11    1    3    3    0    0 -0.21625411936E+01  0.46989385457E+01 -0.88157663089E+01  0.10221269185E+02  0.51100000000E-03 0. -1.
        -11    1    3    3    0    0 -0.10344594178E+02  0.10289868676E+02 -0.66500477718E+01  0.16034810934E+02  0.51100000000E-03 0.  1.
         12    1    3    3    0    0 -0.85849308611E+01 -0.84096180650E+00 -0.19727744305E+02  0.21531190167E+02  0.00000000000E+00 0. -1.
</event>
<event>
 7    1  0.3742599E-009  0.4778727E+02  0.7816164E-02  0.1312668E+00
        -11   -1    0    0    0    0  0.00000000000E+00  0.00000000000E+00  0.45593999997E+02  0.45594000000E+02  0.51100000000E-03 0. -1.
         11   -1    0    0    0    0 -0.00000000000E+00 -0.00000000000E+00 -0.45593999997E+02  0.45594000000E+02  0.51100000000E-03 0.  1.
    9900012    2    1    2    0    0  0.32591498953E+02 -0.28549236913E+02 -0.25216083171E+01  0.47787271425E+02  0.20000001736E+02 0.  0.
        -12    1    1    2    0    0 -0.32591498953E+02  0.28549236913E+02  0.25216083171E+01  0.43400728575E+02  0.00000000000E+00 0.  1.
         11    1    3    3    0    0  0.77672504740E+00 -0.39938608496E+01  0.19909604281E+01  0.45296964548E+01  0.51100000000E-03 0. -1.
        -11    1    3    3    0    0  0.49764214767E+00 -0.58392527645E+01 -0.33609238106E+01  0.67557627013E+01  0.51100000000E-03 0.  1.
         12    1    3    3    0    0  0.31317131758E+02 -0.18716123299E+02 -0.11516449346E+01  0.36501812269E+02  0.00000000000E+00 0. -1.
</event>
<event>
 7    1  0.3742599E-009  0.4778727E+02  0.7816164E-02  0.1312668E+00
        -11   -1    0    0    0    0  0.00000000000E+00  0.00000000000E+00  0.45593999997E+02  0.45594000000E+02  0.51100000000E-03 0.  1.
         11   -1    0    0    0    0 -0.00000000000E+00 -0.00000000000E+00 -0.45593999997E+02  0.45594000000E+02  0.51100000000E-03 0. -1.
    9900012    2    1    2    0    0  0.43396796279E+02  0.18258127469E+00  0.55488826681E+00  0.47787272308E+02  0.20000005761E+02 0.  0.
        -12    1    1    2    0    0 -0.43396796279E+02 -0.18258127469E+00 -0.55488826681E+00  0.43400727692E+02  0.00000000000E+00 0.  1.
         11    1    3    3    0    0  0.15094814935E+02 -0.25828870661E+00 -0.57272125635E+00  0.15107884063E+02  0.51100000000E-03 0. -1.
        -11    1    3    3    0    0  0.87792111881E+01 -0.38461906184E+01  0.69746008138E+01  0.11853809014E+02  0.51100000000E-03 0.  1.
        -12    1    3    3    0    0  0.19522770156E+02  0.42870605997E+01 -0.58469912906E+01  0.20825579231E+02  0.00000000000E+00 0.  1.
</event>
<event>
 7    1  0.3742599E-009  0.4778729E+02  0.7816164E-02  0.1312668E+00
        -11   -1    0    0    0    0  0.00000000000E+00  0.00000000000E+00  0.45593999997E+02  0.45594000000E+02  0.51100000000E-03 0. -1.
         11   -1    0    0    0    0 -0.00000000000E+00 -0.00000000000E+00 -0.45593999997E+02  0.45594000000E+02  0.51100000000E-03 0.  1.
    9900012    2    1    2    0    0  0.20769672386E+02  0.31100304304E+01  0.37981184332E+02  0.47787286370E+02  0.20000069876E+02 0.  0.
        -12    1    1    2    0    0 -0.20769672386E+02 -0.31100304304E+01 -0.37981184332E+02  0.43400713630E+02  0.00000000000E+00 0.  1.
         11    1    3    3    0    0 -0.80547863580E-01 -0.12186336561E+01  0.58407178251E+01  0.59670378681E+01  0.51100000000E-03 0. -1.
        -11    1    3    3    0    0  0.16713115763E+02 -0.28666597243E+01  0.14447590882E+02  0.22277317141E+02  0.51100000000E-03 0.  1.
         12    1    3    3    0    0  0.41371044867E+01  0.71953238107E+01  0.17692875626E+02  0.19542931361E+02  0.00000000000E+00 0. -1.
</event>
<event>
 7    1  0.3742599E-009  0.4778726E+02  0.7816164E-02  0.1312668E+00
        -11   -1    0    0    0    0  0.00000000000E+00  0.00000000000E+00  0.45593999997E+02  0.45594000000E+02  0.51100000000E-03 0.  1.
         11   -1    0    0    0    0 -0.00000000000E+00 -0.00000000000E+00 -0.45593999997E+02  0.45594000000E+02  0.51100000000E-03 0. -1.
    9900012    2    1    2    0    0  0.30533026215E+02  0.16905349432E+02 -0.25798606795E+02  0.47787255285E+02  0.19999928146E+02 0.  0.
        -12    1    1    2    0    0 -0.30533026215E+02 -0.16905349432E+02  0.25798606795E+02  0.43400744715E+02  0.00000000000E+00 0.  1.
         11    1    3    3    0    0  0.24193989554E+02  0.16998401502E+02 -0.22455589467E+02  0.37128806643E+02  0.51100000000E-03 0. -1.
        -11    1    3    3    0    0  0.21471554849E+01  0.33150766211E+01 -0.34655707961E+01  0.52545400259E+01  0.51100000000E-03 0.  1.
        -12    1    3    3    0    0  0.41918811763E+01 -0.34081286913E+01  0.12255346887E+00  0.54039086156E+01  0.00000000000E+00 0.  1.
</event>
<event>
 7    1  0.3742599E-009  0.4778727E+02  0.7816164E-02  0.1312668E+00
        -11   -1    0    0    0    0  0.00000000000E+00  0.00000000000E+00  0.45593999997E+02  0.45594000000E+02  0.51100000000E-03 0.  1.
         11   -1    0    0    0    0 -0.00000000000E+00 -0.00000000000E+00 -0.45593999997E+02  0.45594000000E+02  0.51100000000E-03 0. -1.
    9900012    2    1    2    0    0 -0.11312040599E+02  0.49186816732E+01 -0.41610907643E+02  0.47787270435E+02  0.19999997223E+02 0.  0.
        -12    1    1    2    0    0  0.11312040599E+02 -0.49186816732E+01  0.41610907643E+02  0.43400729565E+02  0.00000000000E+00 0.  1.
         11    1    3    3    0    0 -0.38134620417E+01 -0.61598050776E+00 -0.16103492449E+02  0.16560325904E+02  0.51100000000E-03 0. -1.
        -11    1    3    3    0    0  0.44885431480E+01  0.13879353821E+01 -0.10970727659E+02  0.11934414516E+02  0.51100000000E-03 0.  1.
         12    1    3    3    0    0 -0.11987121705E+02  0.41467267989E+01 -0.14536687535E+02  0.19292530015E+02  0.00000000000E+00 0. -1.
</event>
<event>
 7    1  0.3742599E-009  0.4778727E+02  0.7816164E-02  0.1312668E+00
        -11   -1    0    0    0    0  0.00000000000E+00  0.00000000000E+00  0.45593999997E+02  0.45594000000E+02  0.51100000000E-03 0. -1.
         11   -1    0    0    0    0 -0.00000000000E+00 -0.00000000000E+00 -0.45593999997E+02  0.45594000000E+02  0.51100000000E-03 0.  1.
    9900012    2    1    2    0    0  0.11477816901E+02 -0.42690174064E+01  0.41637227902E+02  0.47787268004E+02  0.19999986137E+02 0.  0.
        -12    1    1    2    0    0 -0.11477816901E+02  0.42690174064E+01 -0.41637227902E+02  0.43400731996E+02  0.00000000000E+00 0.  1.
         11    1    3    3    0    0  0.66827881697E+00 -0.20451422874E+01  0.16035411050E+01  0.26833836642E+01  0.51100000000E-03 0. -1.
        -11    1    3    3    0    0  0.10264322420E+02 -0.20277931256E+01  0.82740730763E+01  0.13338985915E+02  0.51100000000E-03 0.  1.
         12    1    3    3    0    0  0.54521566393E+00 -0.19608199348E+00  0.31759613721E+02  0.31764898425E+02  0.00000000000E+00 0. -1.
</event>
<event>
 7    1  0.3742599E-009  0.4778727E+02  0.7816164E-02  0.1312668E+00
        -11   -1    0    0    0    0  0.00000000000E+00  0.00000000000E+00  0.45593999997E+02  0.45594000000E+02  0.51100000000E-03 0. -1.
         11   -1    0    0    0    0 -0.00000000000E+00 -0.00000000000E+00 -0.45593999997E+02  0.45594000000E+02  0.51100000000E-03 0.  1.
    9900012    2    1    2    0    0 -0.40182068246E+02 -0.15883354874E+02  0.40919348787E+01  0.47787268420E+02  0.19999988035E+02 0.  0.
        -12    1    1    2    0    0  0.40182068246E+02  0.15883354874E+02 -0.40919348787E+01  0.43400731580E+02  0.00000000000E+00 0.  1.
         11    1    3    3    0    0 -0.56147627059E+01 -0.26496242043E+01 -0.21993709229E+01  0.65866001385E+01  0.51100000000E-03 0. -1.
        -11    1    3    3    0    0 -0.13835545306E+02 -0.10729967004E+02 -0.39400129577E+01  0.17946537499E+02  0.51100000000E-03 0.  1.
         12    1    3    3    0    0 -0.20731760234E+02 -0.25037636656E+01  0.10231318759E+02  0.23254130783E+02  0.00000000000E+00 0. -1.
</event>
<event>
 7    1  0.3742599E-009  0.4778727E+02  0.7816164E-02  0.1312668E+00
        -11   -1    0    0    0    0  0.00000000000E+00  0.00000000000E+00  0.45593999997E+02  0.45594000000E+02  0.51100000000E-03 0.  1.
         11   -1    0    0    0    0 -0.00000000000E+00 -0.00000000000E+00 -0.45593999997E+02  0.45594000000E+02  0.51100000000E-03 0. -1.
    9900012    2    1    2    0    0 -0.70817095747E+01  0.30926650890E+01 -0.42707236453E+02  0.47787271511E+02  0.20000002130E+02 0.  0.
        -12    1    1    2    0    0  0.70817095747E+01 -0.30926650890E+01  0.42707236453E+02  0.43400728489E+02  0.00000000000E+00 0.  1.
         11    1    3    3    0    0 -0.80977937122E+01  0.62559187403E+00 -0.18348290712E+02  0.20065527666E+02  0.51100000000E-03 0. -1.
        -11    1    3    3    0    0 -0.38005355124E+01 -0.35617198968E+01 -0.12847433210E+02  0.13863133093E+02  0.51100000000E-03 0.  1.
        -12    1    3    3    0    0  0.48166196498E+01  0.60287931118E+01 -0.11511512531E+02  0.13858610753E+02  0.00000000000E+00 0.  1.
</event>
<event>
 7    1  0.3742599E-009  0.4778727E+02  0.7816164E-02  0.1312668E+00
        -11   -1    0    0    0    0  0.00000000000E+00  0.00000000000E+00  0.45593999997E+02  0.45594000000E+02  0.51100000000E-03 0.  1.
         11   -1    0    0    0    0 -0.00000000000E+00 -0.00000000000E+00 -0.45593999997E+02  0.45594000000E+02  0.51100000000E-03 0. -1.
    9900012    2    1    2    0    0  0.12919544106E+02  0.23882835624E+02 -0.33857329493E+02  0.47787271691E+02  0.20000002948E+02 0.  0.
        -12    1    1    2    0    0 -0.12919544106E+02 -0.23882835624E+02  0.33857329493E+02  0.43400728309E+02  0.00000000000E+00 0.  1.
         11    1    3    3    0    0  0.16294740993E+02  0.15912043560E+02 -0.25316205880E+02  0.34053222971E+02  0.51100000000E-03 0. -1.
        -11    1    3    3    0    0  0.16603087682E+01  0.38551105137E+01 -0.26867490873E+01  0.49836857042E+01  0.51100000000E-03 0.  1.
        -12    1    3    3    0    0 -0.50355056552E+01  0.41156815499E+01 -0.58543745258E+01  0.87503630161E+01  0.00000000000E+00 0.  1.
</event>
<event>
 7    1  0.3742599E-009  0.4778728E+02  0.7816164E-02  0.1312668E+00
        -11   -1    0    0    0    0  0.00000000000E+00  0.00000000000E+00  0.45593999997E+02  0.45594000000E+02  0.51100000000E-03 0.  1.
         11   -1    0    0    0    0 -0.00000000000E+00 -0.00000000000E+00 -0.45593999997E+02  0.45594000000E+02  0.51100000000E-03 0. -1.
    9900012    2    1    2    0    0  0.38164303485E+02  0.14584777893E+02 -0.14642141780E+02  0.47787284308E+02  0.20000060472E+02 0.  0.
        -12    1    1    2    0    0 -0.38164303485E+02 -0.14584777893E+02  0.14642141780E+02  0.43400715692E+02  0.00000000000E+00 0.  1.
         11    1    3    3    0    0  0.12091806329E+02  0.10565157690E+02 -0.58863602312E+01  0.17102151161E+02  0.51100000000E-03 0. -1.
        -11    1    3    3    0    0 -0.14324323518E+01  0.32228948139E+00 -0.12691074055E+01  0.19407129669E+01  0.51100000000E-03 0.  1.
         12    1    3    3    0    0  0.27504929509E+02  0.36973307211E+01 -0.74866741435E+01  0.28744420180E+02  0.00000000000E+00 0. -1.
</event>
<event>
 7    1  0.3742599E-009  0.4778727E+02  0.7816164E-02  0.1312668E+00
        -11   -1    0    0    0    0  0.00000000000E+00  0.00000000000E+00  0.45593999997E+02  0.45594000000E+02  0.51100000000E-03 0.  1.
         11   -1    0    0    0    0 -0.00000000000E+00 -0.00000000000E+00 -0.45593999997E+02  0.45594000000E+02  0.51100000000E-03 0. -1.
    9900012    2    1    2    0    0 -0.86040168411E+01  0.26345402988E+02 -0.33399316614E+02  0.47787265966E+02  0.19999976847E+02 0.  0.
        -12    1    1    2    0    0  0.86040168411E+01 -0.26345402988E+02  0.33399316614E+02  0.43400734034E+02  0.00000000000E+00 0.  1.
         11    1    3    3    0    0 -0.52148247528E+01  0.66469248422E+01 -0.18366608654E+02  0.20216535825E+02  0.51100000000E-03 0. -1.
        -11    1    3    3    0    0 -0.47871506509E+01  0.14673785916E+02 -0.16038429626E+02  0.22259111159E+02  0.51100000000E-03 0.  1.
        -12    1    3    3    0    0  0.13979585626E+01  0.50246922300E+01  0.10057216658E+01  0.53116189828E+01  0.00000000000E+00 0.  1.
</event>
<event>
 7    1  0.3742599E-009  0.4778727E+02  0.7816164E-02  0.1312668E+00
        -11   -1    0    0    0    0  0.00000000000E+00  0.00000000000E+00  0.45593999997E+02  0.45594000000E+02  0.51100000000E-03 0. -1.
         11   -1    0    0    0    0 -0.00000000000E+00 -0.00000000000E+00 -0.45593999997E+02  0.45594000000E+02  0.51100000000E-03 0.  1.
    9900012    2    1    2    0    0  0.26275629116E+02  0.41651426361E+01  0.34290901985E+02  0.47787273537E+02  0.20000011363E+02 0.  0.
        -12    1    1    2    0    0 -0.26275629116E+02 -0.41651426361E+01 -0.34290901985E+02  0.43400726463E+02  0.00000000000E+00 0.  1.
         11    1    3    3    0    0  0.44145750998E+01  0.26641428507E+01  0.73484293749E+01  0.89769451920E+01  0.51100000000E-03 0. -1.
        -11    1    3    3    0    0  0.19926220243E+02 -0.22071208650E+01  0.12160195158E+02  0.23447728722E+02  0.51100000000E-03 0.  1.
        -12    1    3    3    0    0  0.19348337730E+01  0.37081206504E+01  0.14782277453E+02  0.15362599623E+02  0.00000000000E+00 0.  1.
</event>
<event>
 7    1  0.3742599E-009  0.4778725E+02  0.7816164E-02  0.1312668E+00
        -11   -1    0    0    0    0  0.00000000000E+00  0.00000000000E+00  0.45593999997E+02  0.45594000000E+02  0.51100000000E-03 0.  1.
         11   -1    0    0    0    0 -0.00000000000E+00 -0.00000000000E+00 -0.45593999997E+02  0.45594000000E+02  0.51100000000E-03 0. -1.
    9900012    2    1    2    0    0  0.16059322643E+02  0.25732133170E+02 -0.31041590882E+02  0.47787252475E+02  0.19999915334E+02 0.  0.
        -12    1    1    2    0    0 -0.16059322643E+02 -0.25732133170E+02  0.31041590882E+02  0.43400747525E+02  0.00000000000E+00 0.  1.
         11    1    3    3    0    0  0.73388249790E+01  0.50908581811E+01 -0.15167150922E+02  0.17601637891E+02  0.51100000000E-03 0. -1.
        -11    1    3    3    0    0 -0.28565022715E+00  0.60823623904E+01 -0.10682891139E+02  0.12296377176E+02  0.51100000000E-03 0.  1.
         12    1    3    3    0    0  0.90061478916E+01  0.14558912599E+02 -0.51915488214E+01  0.17889237409E+02  0.00000000000E+00 0. -1.
</event>
<event>
 7    1  0.3742599E-009  0.4778727E+02  0.7816164E-02  0.1312668E+00
        -11   -1    0    0    0    0  0.00000000000E+00  0.00000000000E+00  0.45593999997E+02  0.45594000000E+02  0.51100000000E-03 0.  1.
         11   -1    0    0    0    0 -0.00000000000E+00 -0.00000000000E+00 -0.45593999997E+02  0.45594000000E+02  0.51100000000E-03 0. -1.
    9900012    2    1    2    0    0  0.13399599046E+02 -0.49678692984E+01 -0.40980413874E+02  0.47787270729E+02  0.19999998560E+02 0.  0.
        -12    1    1    2    0    0 -0.13399599046E+02  0.49678692984E+01  0.40980413874E+02  0.43400729271E+02  0.00000000000E+00 0.  1.
         11    1    3    3    0    0  0.45510263243E+01  0.33174802258E+00 -0.67011614696E+01  0.81072475389E+01  0.51100000000E-03 0. -1.
        -11    1    3    3    0    0  0.14596282655E+01  0.32578266890E+01  0.15276004163E-01  0.35698995821E+01  0.51100000000E-03 0.  1.
         12    1    3    3    0    0  0.73889444563E+01 -0.85574440100E+01 -0.34294528409E+02  0.36110123608E+02  0.00000000000E+00 0. -1.
</event>
<event>
 7    1  0.3742599E-009  0.4778727E+02  0.7816164E-02  0.1312668E+00
        -11   -1    0    0    0    0  0.00000000000E+00  0.00000000000E+00  0.45593999997E+02  0.45594000000E+02  0.51100000000E-03 0.  1.
         11   -1    0    0    0    0 -0.00000000000E+00 -0.00000000000E+00 -0.45593999997E+02  0.45594000000E+02  0.51100000000E-03 0. -1.
    9900012    2    1    2    0    0 -0.14119415991E+02 -0.21559619499E+02 -0.34920598950E+02  0.47787270376E+02  0.19999996953E+02 0.  0.
        -12    1    1    2    0    0  0.14119415991E+02  0.21559619499E+02  0.34920598950E+02  0.43400729624E+02  0.00000000000E+00 0.  1.
         11    1    3    3    0    0  0.22716948604E+01 -0.57641159961E+01 -0.44953859608E+01  0.76546800033E+01  0.51100000000E-03 0.  1.
        -11    1    3    3    0    0  0.13397417660E+01 -0.30292114301E+01 -0.87518481395E+01  0.93576640251E+01  0.51100000000E-03 0. -1.
        -12    1    3    3    0    0 -0.17730852617E+02 -0.12766292073E+02 -0.21673364849E+02  0.30774926348E+02  0.00000000000E+00 0.  1.
</event>
<event>
 7    1  0.3742599E-009  0.4778727E+02  0.7816164E-02  0.1312668E+00
        -11   -1    0    0    0    0  0.00000000000E+00  0.00000000000E+00  0.45593999997E+02  0.45594000000E+02  0.51100000000E-03 0.  1.
         11   -1    0    0    0    0 -0.00000000000E+00 -0.00000000000E+00 -0.45593999997E+02  0.45594000000E+02  0.51100000000E-03 0. -1.
    9900012    2    1    2    0    0  0.21637057158E+02 -0.13906604390E+02 -0.34958082224E+02  0.47787269581E+02  0.19999993329E+02 0.  0.
        -12    1    1    2    0    0 -0.21637057158E+02  0.13906604390E+02  0.34958082224E+02  0.43400730419E+02  0.00000000000E+00 0.  1.
         11    1    3    3    0    0 -0.67805318159E-01 -0.24524524002E+01 -0.66621876329E+01  0.70995679202E+01  0.51100000000E-03 0. -1.
        -11    1    3    3    0    0 -0.14882637413E+01 -0.36281897885E+01 -0.10470564715E+01  0.40589429191E+01  0.51100000000E-03 0.  1.
         12    1    3    3    0    0  0.23193126217E+02 -0.78259622009E+01 -0.27248838120E+02  0.36628758742E+02  0.00000000000E+00 0. -1.
</event>
<event>
 7    1  0.3742599E-009  0.4778727E+02  0.7816164E-02  0.1312668E+00
        -11   -1    0    0    0    0  0.00000000000E+00  0.00000000000E+00  0.45593999997E+02  0.45594000000E+02  0.51100000000E-03 0. -1.
         11   -1    0    0    0    0 -0.00000000000E+00 -0.00000000000E+00 -0.45593999997E+02  0.45594000000E+02  0.51100000000E-03 0.  1.
    9900012    2    1    2    0    0 -0.16990258805E+02 -0.23427759921E+02  0.32343383424E+02  0.47787270968E+02  0.19999999653E+02 0.  0.
        -12    1    1    2    0    0  0.16990258805E+02  0.23427759921E+02 -0.32343383424E+02  0.43400729032E+02  0.00000000000E+00 0.  1.
         11    1    3    3    0    0 -0.48163111063E+01 -0.82096147557E+01  0.12915283343E+02  0.16043664519E+02  0.51100000000E-03 0. -1.
        -11    1    3    3    0    0 -0.14209759654E+02 -0.13642696047E+02  0.10239192803E+02  0.22200934539E+02  0.51100000000E-03 0.  1.
        -12    1    3    3    0    0  0.20358119555E+01 -0.15754491182E+01  0.91889072770E+01  0.95426719103E+01  0.00000000000E+00 0.  1.
</event>
<event>
 7    1  0.3742599E-009  0.4778727E+02  0.7816164E-02  0.1312668E+00
        -11   -1    0    0    0    0  0.00000000000E+00  0.00000000000E+00  0.45593999997E+02  0.45594000000E+02  0.51100000000E-03 0. -1.
         11   -1    0    0    0    0 -0.00000000000E+00 -0.00000000000E+00 -0.45593999997E+02  0.45594000000E+02  0.51100000000E-03 0.  1.
    9900012    2    1    2    0    0 -0.19949054032E+02 -0.89113657304E+01  0.37499947701E+02  0.47787271049E+02  0.20000000020E+02 0.  0.
        -12    1    1    2    0    0  0.19949054032E+02  0.89113657304E+01 -0.37499947701E+02  0.43400728951E+02  0.00000000000E+00 0.  1.
         11    1    3    3    0    0 -0.21841346766E+00  0.12355720817E+01  0.34633029121E+01  0.36835865857E+01  0.51100000000E-03 0. -1.
        -11    1    3    3    0    0 -0.11941861727E+02  0.29022102975E+01  0.19653461149E+02  0.23179504342E+02  0.51100000000E-03 0.  1.
         12    1    3    3    0    0 -0.77887788363E+01 -0.13049148110E+02  0.14383183639E+02  0.20924180121E+02  0.00000000000E+00 0. -1.
</event>
<event>
 7    1  0.3742599E-009  0.4778727E+02  0.7816164E-02  0.1312668E+00
        -11   -1    0    0    0    0  0.00000000000E+00  0.00000000000E+00  0.45593999997E+02  0.45594000000E+02  0.51100000000E-03 0.  1.
         11   -1    0    0    0    0 -0.00000000000E+00 -0.00000000000E+00 -0.45593999997E+02  0.45594000000E+02  0.51100000000E-03 0. -1.
    9900012    2    1    2    0    0  0.42294486711E+02 -0.95279300771E+01  0.20045471166E+01  0.47787271125E+02  0.20000000368E+02 0.  0.
        -12    1    1    2    0    0 -0.42294486711E+02  0.95279300771E+01 -0.20045471166E+01  0.43400728875E+02  0.00000000000E+00 0.  1.
         11    1    3    3    0    0  0.23077830853E+02 -0.13154462249E+02  0.50541944909E+01  0.27040174485E+02  0.51100000000E-03 0. -1.
        -11    1    3    3    0    0  0.12549818614E+02  0.37341964563E+00  0.40947868766E+00  0.12562048500E+02  0.51100000000E-03 0.  1.
        -12    1    3    3    0    0  0.66668372443E+01  0.32531125258E+01 -0.34591260619E+01  0.81850481403E+01  0.00000000000E+00 0.  1.
</event>
<event>
 7    1  0.3742599E-009  0.4778727E+02  0.7816164E-02  0.1312668E+00
        -11   -1    0    0    0    0  0.00000000000E+00  0.00000000000E+00  0.45593999997E+02  0.45594000000E+02  0.51100000000E-03 0.  1.
         11   -1    0    0    0    0 -0.00000000000E+00 -0.00000000000E+00 -0.45593999997E+02  0.45594000000E+02  0.51100000000E-03 0. -1.
    9900012    2    1    2    0    0 -0.30326397796E+02 -0.27412178965E+01 -0.30926014703E+02  0.47787273460E+02  0.20000011011E+02 0.  0.
        -12    1    1    2    0    0  0.30326397796E+02  0.27412178965E+01  0.30926014703E+02  0.43400726540E+02  0.00000000000E+00 0.  1.
         11    1    3    3    0    0 -0.97148910211E+01  0.29730456839E+01 -0.10686372509E+02  0.14745055641E+02  0.51100000000E-03 0. -1.
        -11    1    3    3    0    0 -0.18245636321E+02  0.15089705180E+01 -0.12331988402E+02  0.22073925229E+02  0.51100000000E-03 0.  1.
         12    1    3    3    0    0 -0.23658704533E+01 -0.72232340984E+01 -0.79076537919E+01  0.10968292590E+02  0.00000000000E+00 0. -1.
</event>
<event>
 7    1 -0.3742599E-009  0.4778724E+02  0.7816164E-02  0.1312668E+00
        -11   -1    0    0    0    0  0.00000000000E+00  0.00000000000E+00  0.45593999997E+02  0.45594000000E+02  0.51100000000E-03 0. -1.
         11   -1    0    0    0    0 -0.00000000000E+00 -0.00000000000E+00 -0.45593999997E+02  0.45594000000E+02  0.51100000000E-03 0.  1.
    9900012    2    1    2    0    0 -0.23207999203E+02 -0.36576988241E+02  0.26717989362E+01  0.47787241881E+02  0.19999867031E+02 0.  0.
        -12    1    1    2    0    0  0.23207999203E+02  0.36576988241E+02 -0.26717989362E+01  0.43400758119E+02  0.00000000000E+00 0.  1.
         11    1    3    3    0    0 -0.14903819725E+02 -0.31575072299E+02  0.31135258503E+01  0.35054287563E+02  0.51100000000E-03 0. -1.
        -11    1    3    3    0    0 -0.76611197824E+01 -0.54884645029E+01  0.24445816716E+01  0.97361172307E+01  0.51100000000E-03 0.  1.
         12    1    3    3    0    0 -0.64305969581E+00  0.48654856120E+00 -0.28863085857E+01  0.29968370871E+01  0.00000000000E+00 0. -1.
</event>
<event>
 7    1  0.3742599E-009  0.4778722E+02  0.7816164E-02  0.1312668E+00
        -11   -1    0    0    0    0  0.00000000000E+00  0.00000000000E+00  0.45593999997E+02  0.45594000000E+02  0.51100000000E-03 0.  1.
         11   -1    0    0    0    0 -0.00000000000E+00 -0.00000000000E+00 -0.45593999997E+02  0.45594000000E+02  0.51100000000E-03 0. -1.
    9900012    2    1    2    0    0  0.20715262065E+02  0.34313975699E+02 -0.16645027618E+02  0.47787217115E+02  0.19999754111E+02 0.  0.
        -12    1    1    2    0    0 -0.20715262065E+02 -0.34313975699E+02  0.16645027618E+02  0.43400782885E+02  0.00000000000E+00 0.  1.
         11    1    3    3    0    0  0.41130328413E-01  0.36036413542E+01  0.25310851904E+01  0.44038977299E+01  0.51100000000E-03 0. -1.
        -11    1    3    3    0    0  0.14386711969E+02  0.20278374080E+02 -0.62795980011E+01  0.25644166743E+02  0.51100000000E-03 0.  1.
         12    1    3    3    0    0  0.62874197676E+01  0.10431960264E+02 -0.12896514807E+02  0.17739152642E+02  0.00000000000E+00 0. -1.
</event>
<event>
 7    1  0.3742599E-009  0.4778727E+02  0.7816164E-02  0.1312668E+00
        -11   -1    0    0    0    0  0.00000000000E+00  0.00000000000E+00  0.45593999997E+02  0.45594000000E+02  0.51100000000E-03 0.  1.
         11   -1    0    0    0    0 -0.00000000000E+00 -0.00000000000E+00 -0.45593999997E+02  0.45594000000E+02  0.51100000000E-03 0. -1.
    9900012    2    1    2    0    0  0.32558608531E+02 -0.10383373740E+02 -0.26753435129E+02  0.47787265779E+02  0.19999975994E+02 0.  0.
        -12    1    1    2    0    0 -0.32558608531E+02  0.10383373740E+02  0.26753435129E+02  0.43400734221E+02  0.00000000000E+00 0.  1.
         11    1    3    3    0    0  0.46325136615E+01  0.79229731907E-01 -0.30470345498E+00  0.46431998267E+01  0.51100000000E-03 0.  1.
        -11    1    3    3    0    0  0.22918462627E+02 -0.84295243405E+00 -0.15169828821E+02  0.27497094478E+02  0.51100000000E-03 0. -1.
         12    1    3    3    0    0  0.50076322424E+01 -0.96196510381E+01 -0.11278902853E+02  0.15646971475E+02  0.00000000000E+00 0. -1.
</event>
<event>
 7    1  0.3742599E-009  0.4778728E+02  0.7816164E-02  0.1312668E+00
        -11   -1    0    0    0    0  0.00000000000E+00  0.00000000000E+00  0.45593999997E+02  0.45594000000E+02  0.51100000000E-03 0.  1.
         11   -1    0    0    0    0 -0.00000000000E+00 -0.00000000000E+00 -0.45593999997E+02  0.45594000000E+02  0.51100000000E-03 0. -1.
    9900012    2    1    2    0    0  0.28300157546E+02 -0.34757363403E+01 -0.32720685252E+02  0.47787275310E+02  0.20000019449E+02 0.  0.
        -12    1    1    2    0    0 -0.28300157546E+02  0.34757363403E+01  0.32720685252E+02  0.43400724690E+02  0.00000000000E+00 0.  1.
         11    1    3    3    0    0  0.11495332876E+02  0.28253030291E+01 -0.12567144638E+02  0.17264360392E+02  0.51100000000E-03 0. -1.
        -11    1    3    3    0    0  0.18246977354E+02 -0.32771739335E+01 -0.19847081198E+02  0.27158768085E+02  0.51100000000E-03 0.  1.
        -12    1    3    3    0    0 -0.14421526849E+01 -0.30238654358E+01 -0.30645941678E+00  0.33641468331E+01  0.00000000000E+00 0.  1.
</event>
<event>
 7    1  0.3742599E-009  0.4778728E+02  0.7816164E-02  0.1312668E+00
        -11   -1    0    0    0    0  0.00000000000E+00  0.00000000000E+00  0.45593999997E+02  0.45594000000E+02  0.51100000000E-03 0.  1.
         11   -1    0    0    0    0 -0.00000000000E+00 -0.00000000000E+00 -0.45593999997E+02  0.45594000000E+02  0.51100000000E-03 0. -1.
    9900012    2    1    2    0    0  0.50584233199E+01 -0.44324867187E+01 -0.42876427414E+02  0.47787278661E+02  0.20000034725E+02 0.  0.
        -12    1    1    2    0    0 -0.50584233199E+01  0.44324867187E+01  0.42876427414E+02  0.43400721339E+02  0.00000000000E+00 0.  1.
         11    1    3    3    0    0  0.34516690509E+01 -0.17079366807E+01 -0.35386291711E+02  0.35595234348E+02  0.51100000000E-03 0. -1.
        -11    1    3    3    0    0 -0.15775491769E+01 -0.52127210093E+01 -0.32865636194E+01  0.63610236921E+01  0.51100000000E-03 0.  1.
        -12    1    3    3    0    0  0.31843034459E+01  0.24881709714E+01 -0.42035720834E+01  0.58310206207E+01  0.00000000000E+00 0.  1.
</event>
<event>
 7    1  0.3742599E-009  0.4778727E+02  0.7816164E-02  0.1312668E+00
        -11   -1    0    0    0    0  0.00000000000E+00  0.00000000000E+00  0.45593999997E+02  0.45594000000E+02  0.51100000000E-03 0.  1.
         11   -1    0    0    0    0 -0.00000000000E+00 -0.00000000000E+00 -0.45593999997E+02  0.45594000000E+02  0.51100000000E-03 0. -1.
    9900012    2    1    2    0    0 -0.21344424705E+02 -0.37556779105E+02 -0.41865113361E+01  0.47787274201E+02  0.20000014393E+02 0.  0.
        -12    1    1    2    0    0  0.21344424705E+02  0.37556779105E+02  0.41865113361E+01  0.43400725799E+02  0.00000000000E+00 0.  1.
         11    1    3    3    0    0  0.14476205666E+01 -0.27835831587E+01 -0.24258423385E+01  0.39659364365E+01  0.51100000000E-03 0. -1.
        -11    1    3    3    0    0 -0.15332987035E+01 -0.11210677146E+02  0.30612590927E+01  0.11721842623E+02  0.51100000000E-03 0.  1.
         12    1    3    3    0    0 -0.21258746568E+02 -0.23562518799E+02 -0.48219280903E+01  0.32099495141E+02  0.00000000000E+00 0. -1.
</event>
<event>
 7    1  0.3742599E-009  0.4778728E+02  0.7816164E-02  0.1312668E+00
        -11   -1    0    0    0    0  0.00000000000E+00  0.00000000000E+00  0.45593999997E+02  0.45594000000E+02  0.51100000000E-03 0.  1.
         11   -1    0    0    0    0 -0.00000000000E+00 -0.00000000000E+00 -0.45593999997E+02  0.45594000000E+02  0.51100000000E-03 0. -1.
    9900012    2    1    2    0    0  0.30354057506E+02 -0.13135999034E+02 -0.28101586480E+02  0.47787280647E+02  0.20000043781E+02 0.  0.
        -12    1    1    2    0    0 -0.30354057506E+02  0.13135999034E+02  0.28101586480E+02  0.43400719353E+02  0.00000000000E+00 0.  1.
         11    1    3    3    0    0  0.42299728318E+01 -0.57905425119E+01 -0.90672608100E+01  0.11560202057E+02  0.51100000000E-03 0. -1.
        -11    1    3    3    0    0  0.15361595397E+01 -0.41559932817E+01  0.76670994150E+00  0.44966554999E+01  0.51100000000E-03 0.  1.
         12    1    3    3    0    0  0.24587925134E+02 -0.31894632401E+01 -0.19801035611E+02  0.31730423090E+02  0.00000000000E+00 0. -1.
</event>
<event>
 7    1  0.3742599E-009  0.4778726E+02  0.7816164E-02  0.1312668E+00
        -11   -1    0    0    0    0  0.00000000000E+00  0.00000000000E+00  0.45593999997E+02  0.45594000000E+02  0.51100000000E-03 0.  1.
         11   -1    0    0    0    0 -0.00000000000E+00 -0.00000000000E+00 -0.45593999997E+02  0.45594000000E+02  0.51100000000E-03 0. -1.
    9900012    2    1    2    0    0 -0.24165059299E+01 -0.10110960614E+02 -0.42137310854E+02  0.47787262777E+02  0.19999962308E+02 0.  0.
        -12    1    1    2    0    0  0.24165059299E+01  0.10110960614E+02  0.42137310854E+02  0.43400737223E+02  0.00000000000E+00 0.  1.
         11    1    3    3    0    0 -0.36987510823E+01 -0.12983974974E+02 -0.29543945323E+02  0.32482442506E+02  0.51100000000E-03 0. -1.
        -11    1    3    3    0    0  0.16887603121E+00 -0.28544728191E+01 -0.39474668852E+01  0.48743234669E+01  0.51100000000E-03 0.  1.
        -12    1    3    3    0    0  0.11133691211E+01  0.57274871788E+01 -0.86458986461E+01  0.10430496804E+02  0.00000000000E+00 0.  1.
</event>
<event>
 7    1  0.3742599E-009  0.4778727E+02  0.7816164E-02  0.1312668E+00
        -11   -1    0    0    0    0  0.00000000000E+00  0.00000000000E+00  0.45593999997E+02  0.45594000000E+02  0.51100000000E-03 0.  1.
         11   -1    0    0    0    0 -0.00000000000E+00 -0.00000000000E+00 -0.45593999997E+02  0.45594000000E+02  0.51100000000E-03 0. -1.
    9900012    2    1    2    0    0 -0.30698373539E+02 -0.35680825701E+01 -0.30471328378E+02  0.47787271846E+02  0.20000003656E+02 0.  0.
        -12    1    1    2    0    0  0.30698373539E+02  0.35680825701E+01  0.30471328378E+02  0.43400728154E+02  0.00000000000E+00 0.  1.
         11    1    3    3    0    0 -0.10076924984E+02  0.36739061651E+01 -0.16891885880E+02  0.20009443083E+02  0.51100000000E-03 0. -1.
        -11    1    3    3    0    0 -0.75344777422E+01  0.19768907130E+01 -0.20642319614E+01  0.80583810775E+01  0.51100000000E-03 0.  1.
         12    1    3    3    0    0 -0.13086970813E+02 -0.92188794481E+01 -0.11515210536E+02  0.19719447686E+02  0.00000000000E+00 0. -1.
</event>
<event>
 7    1  0.3742599E-009  0.4778727E+02  0.7816164E-02  0.1312668E+00
        -11   -1    0    0    0    0  0.00000000000E+00  0.00000000000E+00  0.45593999997E+02  0.45594000000E+02  0.51100000000E-03 0.  1.
         11   -1    0    0    0    0 -0.00000000000E+00 -0.00000000000E+00 -0.45593999997E+02  0.45594000000E+02  0.51100000000E-03 0. -1.
    9900012    2    1    2    0    0 -0.31828696045E+02  0.95674565020E+01 -0.27910950876E+02  0.47787270805E+02  0.19999998911E+02 0.  0.
        -12    1    1    2    0    0  0.31828696045E+02 -0.95674565020E+01  0.27910950876E+02  0.43400729195E+02  0.00000000000E+00 0.  1.
         11    1    3    3    0    0 -0.15426087263E+02  0.43696148051E+01 -0.15971041025E+02  0.22630330388E+02  0.51100000000E-03 0. -1.
        -11    1    3    3    0    0 -0.12570925411E+02  0.98825971428E+01 -0.75683435463E+01  0.17691063175E+02  0.51100000000E-03 0.  1.
         12    1    3    3    0    0 -0.38316833715E+01 -0.46847554460E+01 -0.43715663043E+01  0.74658772425E+01  0.00000000000E+00 0. -1.
</event>
<event>
 7    1  0.3742599E-009  0.4778728E+02  0.7816164E-02  0.1312668E+00
        -11   -1    0    0    0    0  0.00000000000E+00  0.00000000000E+00  0.45593999997E+02  0.45594000000E+02  0.51100000000E-03 0.  1.
         11   -1    0    0    0    0 -0.00000000000E+00 -0.00000000000E+00 -0.45593999997E+02  0.45594000000E+02  0.51100000000E-03 0. -1.
    9900012    2    1    2    0    0  0.13151756934E+02  0.79703551589E+01 -0.40584819519E+02  0.47787275960E+02  0.20000022411E+02 0.  0.
        -12    1    1    2    0    0 -0.13151756934E+02 -0.79703551589E+01  0.40584819519E+02  0.43400724040E+02  0.00000000000E+00 0.  1.
         11    1    3    3    0    0  0.10251314473E+02  0.17316734354E+01 -0.10196235651E+02  0.14561983485E+02  0.51100000000E-03 0. -1.
        -11    1    3    3    0    0  0.14489249151E+01  0.38005900779E+01 -0.17191826324E+01  0.44158190106E+01  0.51100000000E-03 0.  1.
        -12    1    3    3    0    0  0.14515175463E+01  0.24380916455E+01 -0.28669401236E+02  0.28809473464E+02  0.00000000000E+00 0.  1.
</event>
<event>
 7    1  0.3742599E-009  0.4778727E+02  0.7816164E-02  0.1312668E+00
        -11   -1    0    0    0    0  0.00000000000E+00  0.00000000000E+00  0.45593999997E+02  0.45594000000E+02  0.51100000000E-03 0.  1.
         11   -1    0    0    0    0 -0.00000000000E+00 -0.00000000000E+00 -0.45593999997E+02  0.45594000000E+02  0.51100000000E-03 0. -1.
    9900012    2    1    2    0    0  0.20883323306E+01  0.15842804955E+02 -0.40351801827E+02  0.47787268307E+02  0.19999987519E+02 0.  0.
        -12    1    1    2    0    0 -0.20883323306E+01 -0.15842804955E+02  0.40351801827E+02  0.43400731693E+02  0.00000000000E+00 0.  1.
         11    1    3    3    0    0 -0.21149072848E+01  0.31031410072E+01 -0.56519754584E+01  0.67858045785E+01  0.51100000000E-03 0. -1.
        -11    1    3    3    0    0 -0.28995073543E+00 -0.39637382364E+01 -0.10729214217E+02  0.11441648929E+02  0.51100000000E-03 0.  1.
         12    1    3    3    0    0  0.44931903509E+01  0.16703402184E+02 -0.23970612152E+02  0.29559814800E+02  0.00000000000E+00 0. -1.
</event>
<event>
 7    1  0.3742599E-009  0.4778728E+02  0.7816164E-02  0.1312668E+00
        -11   -1    0    0    0    0  0.00000000000E+00  0.00000000000E+00  0.45593999997E+02  0.45594000000E+02  0.51100000000E-03 0.  1.
         11   -1    0    0    0    0 -0.00000000000E+00 -0.00000000000E+00 -0.45593999997E+02  0.45594000000E+02  0.51100000000E-03 0. -1.
    9900012    2    1    2    0    0 -0.47028113537E+01 -0.42660078445E+02 -0.64516632319E+01  0.47787277817E+02  0.20000030877E+02 0.  0.
        -12    1    1    2    0    0  0.47028113537E+01  0.42660078445E+02  0.64516632319E+01  0.43400722183E+02  0.00000000000E+00 0.  1.
         11    1    3    3    0    0  0.55620607211E+01 -0.18353101796E+02  0.20514095959E+01  0.19286812764E+02  0.51100000000E-03 0. -1.
        -11    1    3    3    0    0  0.26838020182E+00 -0.68113557766E+00 -0.15508432970E+01  0.17149602913E+01  0.51100000000E-03 0.  1.
         12    1    3    3    0    0 -0.10533252277E+02 -0.23625841071E+02 -0.69522295308E+01  0.26785504761E+02  0.00000000000E+00 0. -1.
</event>
<event>
 7    1  0.3742599E-009  0.4778727E+02  0.7816164E-02  0.1312668E+00
        -11   -1    0    0    0    0  0.00000000000E+00  0.00000000000E+00  0.45593999997E+02  0.45594000000E+02  0.51100000000E-03 0.  1.
         11   -1    0    0    0    0 -0.00000000000E+00 -0.00000000000E+00 -0.45593999997E+02  0.45594000000E+02  0.51100000000E-03 0. -1.
    9900012    2    1    2    0    0  0.17180609790E+01 -0.45597270347E+01 -0.43126331152E+02  0.47787270941E+02  0.19999999531E+02 0.  0.
        -12    1    1    2    0    0 -0.17180609790E+01  0.45597270347E+01  0.43126331152E+02  0.43400729059E+02  0.00000000000E+00 0.  1.
         11    1    3    3    0    0  0.12566446111E+00 -0.70947056461E+01 -0.17560032972E+02  0.18939519476E+02  0.51100000000E-03 0. -1.
        -11    1    3    3    0    0  0.63031731316E+01 -0.52353851546E+00 -0.69249231659E+01  0.93786270433E+01  0.51100000000E-03 0.  1.
        -12    1    3    3    0    0 -0.47107766137E+01  0.30585171269E+01 -0.18641375015E+02  0.19469124422E+02  0.00000000000E+00 0.  1.
</event>
<event>
 7    1  0.3742599E-009  0.4778726E+02  0.7816164E-02  0.1312668E+00
        -11   -1    0    0    0    0  0.00000000000E+00  0.00000000000E+00  0.45593999997E+02  0.45594000000E+02  0.51100000000E-03 0.  1.
         11   -1    0    0    0    0 -0.00000000000E+00 -0.00000000000E+00 -0.45593999997E+02  0.45594000000E+02  0.51100000000E-03 0. -1.
    9900012    2    1    2    0    0 -0.24386560625E+02  0.15535024535E+02 -0.32366379270E+02  0.47787264597E+02  0.19999970605E+02 0.  0.
        -12    1    1    2    0    0  0.24386560625E+02 -0.15535024535E+02  0.32366379270E+02  0.43400735403E+02  0.00000000000E+00 0.  1.
         11    1    3    3    0    0 -0.11784562681E+02  0.89828678058E+01 -0.28339422856E+02  0.31979535951E+02  0.51100000000E-03 0. -1.
        -11    1    3    3    0    0 -0.32343340318E+01  0.92099768781E+00 -0.35168105369E+01  0.48659130679E+01  0.51100000000E-03 0.  1.
        -12    1    3    3    0    0 -0.93676639125E+01  0.56311590413E+01 -0.51014587735E+00  0.10941815578E+02  0.00000000000E+00 0.  1.
</event>
<event>
 7    1  0.3742599E-009  0.4778727E+02  0.7816164E-02  0.1312668E+00
        -11   -1    0    0    0    0  0.00000000000E+00  0.00000000000E+00  0.45593999997E+02  0.45594000000E+02  0.51100000000E-03 0.  1.
         11   -1    0    0    0    0 -0.00000000000E+00 -0.00000000000E+00 -0.45593999997E+02  0.45594000000E+02  0.51100000000E-03 0. -1.
    9900012    2    1    2    0    0 -0.25372954318E+02 -0.33525295344E+02 -0.10765266795E+02  0.47787271805E+02  0.20000003465E+02 0.  0.
        -12    1    1    2    0    0  0.25372954318E+02  0.33525295344E+02  0.10765266795E+02  0.43400728195E+02  0.00000000000E+00 0.  1.
         11    1    3    3    0    0 -0.46022867777E+01 -0.14164874202E+02 -0.43538889707E+00  0.14900143237E+02  0.51100000000E-03 0. -1.
        -11    1    3    3    0    0  0.93344834231E+00 -0.15150399663E+01 -0.35669526445E+01  0.39862041263E+01  0.51100000000E-03 0.  1.
         12    1    3    3    0    0 -0.21704115883E+02 -0.17845381176E+02 -0.67629252534E+01  0.28900924441E+02  0.00000000000E+00 0. -1.
</event>
<event>
 7    1  0.3742599E-009  0.4778727E+02  0.7816164E-02  0.1312668E+00
        -11   -1    0    0    0    0  0.00000000000E+00  0.00000000000E+00  0.45593999997E+02  0.45594000000E+02  0.51100000000E-03 0.  1.
         11   -1    0    0    0    0 -0.00000000000E+00 -0.00000000000E+00 -0.45593999997E+02  0.45594000000E+02  0.51100000000E-03 0. -1.
    9900012    2    1    2    0    0 -0.26504843849E+02 -0.32394911593E+02  0.11475456355E+02  0.47787272551E+02  0.20000006869E+02 0.  0.
        -12    1    1    2    0    0  0.26504843849E+02  0.32394911593E+02 -0.11475456355E+02  0.43400727449E+02  0.00000000000E+00 0.  1.
         11    1    3    3    0    0 -0.16901025552E+01 -0.13269554632E+02  0.14020551212E+01  0.13450029204E+02  0.51100000000E-03 0. -1.
        -11    1    3    3    0    0 -0.11252804599E+02 -0.13962831439E+02  0.81538660774E+01  0.19699538203E+02  0.51100000000E-03 0.  1.
         12    1    3    3    0    0 -0.13561936694E+02 -0.51625255221E+01  0.19195351562E+01  0.14637705144E+02  0.00000000000E+00 0. -1.
</event>
<event>
 7    1  0.3742599E-009  0.4778727E+02  0.7816164E-02  0.1312668E+00
        -11   -1    0    0    0    0  0.00000000000E+00  0.00000000000E+00  0.45593999997E+02  0.45594000000E+02  0.51100000000E-03 0. -1.
         11   -1    0    0    0    0 -0.00000000000E+00 -0.00000000000E+00 -0.45593999997E+02  0.45594000000E+02  0.51100000000E-03 0.  1.
    9900012    2    1    2    0    0  0.49260745617E+01 -0.25210091942E+02  0.34982971349E+02  0.47787271542E+02  0.20000002267E+02 0.  0.
        -12    1    1    2    0    0 -0.49260745617E+01  0.25210091942E+02 -0.34982971349E+02  0.43400728458E+02  0.00000000000E+00 0.  1.
         11    1    3    3    0    0 -0.32807121102E+01 -0.52284449032E+01  0.43273086330E+01  0.75382563184E+01  0.51100000000E-03 0. -1.
        -11    1    3    3    0    0 -0.64293629841E+00 -0.16549285024E+02  0.18595567527E+02  0.24901552839E+02  0.51100000000E-03 0.  1.
        -12    1    3    3    0    0  0.88497229704E+01 -0.34323620143E+01  0.12060095190E+02  0.15347462384E+02  0.00000000000E+00 0.  1.
</event>
<event>
 7    1  0.3742599E-009  0.4778727E+02  0.7816164E-02  0.1312668E+00
        -11   -1    0    0    0    0  0.00000000000E+00  0.00000000000E+00  0.45593999997E+02  0.45594000000E+02  0.51100000000E-03 0. -1.
         11   -1    0    0    0    0 -0.00000000000E+00 -0.00000000000E+00 -0.45593999997E+02  0.45594000000E+02  0.51100000000E-03 0.  1.
    9900012    2    1    2    0    0 -0.10202730034E+02 -0.42104086005E+02  0.26025850685E+01  0.47787271809E+02  0.20000003485E+02 0.  0.
        -12    1    1    2    0    0  0.10202730034E+02  0.42104086005E+02 -0.26025850685E+01  0.43400728191E+02  0.00000000000E+00 0.  1.
         11    1    3    3    0    0 -0.98748203327E+01 -0.18332222773E+02  0.16720042172E+01  0.20889664113E+02  0.51100000000E-03 0. -1.
        -11    1    3    3    0    0 -0.38872283029E+01 -0.62139521754E+01 -0.39546251556E+01  0.83284335802E+01  0.51100000000E-03 0.  1.
         12    1    3    3    0    0  0.35593186015E+01 -0.17557911057E+02  0.48852060070E+01  0.18569174115E+02  0.00000000000E+00 0. -1.
</event>
<event>
 7    1  0.3742599E-009  0.4778728E+02  0.7816164E-02  0.1312668E+00
        -11   -1    0    0    0    0  0.00000000000E+00  0.00000000000E+00  0.45593999997E+02  0.45594000000E+02  0.51100000000E-03 0.  1.
         11   -1    0    0    0    0 -0.00000000000E+00 -0.00000000000E+00 -0.45593999997E+02  0.45594000000E+02  0.51100000000E-03 0. -1.
    9900012    2    1    2    0    0 -0.32473774782E+02  0.13372423608E+02 -0.25500097461E+02  0.47787277284E+02  0.20000028450E+02 0.  0.
        -12    1    1    2    0    0  0.32473774782E+02 -0.13372423608E+02  0.25500097461E+02  0.43400722716E+02  0.00000000000E+00 0.  1.
         11    1    3    3    0    0 -0.16413084001E+02  0.98051164695E+01 -0.13299033155E+02  0.23289352042E+02  0.51100000000E-03 0. -1.
        -11    1    3    3    0    0 -0.17251216141E+02  0.60418035282E+01 -0.93189302546E+01  0.20517073612E+02  0.51100000000E-03 0.  1.
        -12    1    3    3    0    0  0.11905253607E+01 -0.24744963897E+01 -0.28821340511E+01  0.39808516307E+01  0.00000000000E+00 0.  1.
</event>
<event>
 7    1  0.3742599E-009  0.4778728E+02  0.7816164E-02  0.1312668E+00
        -11   -1    0    0    0    0  0.00000000000E+00  0.00000000000E+00  0.45593999997E+02  0.45594000000E+02  0.51100000000E-03 0. -1.
         11   -1    0    0    0    0 -0.00000000000E+00 -0.00000000000E+00 -0.45593999997E+02  0.45594000000E+02  0.51100000000E-03 0.  1.
    9900012    2    1    2    0    0  0.40348708284E+02  0.26676143661E+01 -0.15763507974E+02  0.47787278689E+02  0.20000034856E+02 0.  0.
        -12    1    1    2    0    0 -0.40348708284E+02 -0.26676143661E+01  0.15763507974E+02  0.43400721311E+02  0.00000000000E+00 0.  1.
         11    1    3    3    0    0  0.20829337031E+02 -0.19763452186E+01 -0.98008483153E+01  0.23104628314E+02  0.51100000000E-03 0. -1.
        -11    1    3    3    0    0  0.14626214679E+02 -0.26846454951E+01 -0.55116122570E+01  0.15859109281E+02  0.51100000000E-03 0.  1.
        -12    1    3    3    0    0  0.48931565753E+01  0.73286050798E+01 -0.45104740186E+00  0.88235410944E+01  0.00000000000E+00 0.  1.
</event>
<event>
 7    1  0.3742599E-009  0.4778727E+02  0.7816164E-02  0.1312668E+00
        -11   -1    0    0    0    0  0.00000000000E+00  0.00000000000E+00  0.45593999997E+02  0.45594000000E+02  0.51100000000E-03 0.  1.
         11   -1    0    0    0    0 -0.00000000000E+00 -0.00000000000E+00 -0.45593999997E+02  0.45594000000E+02  0.51100000000E-03 0. -1.
    9900012    2    1    2    0    0  0.37918997529E+02 -0.21016329018E+02  0.20216259599E+01  0.47787269240E+02  0.19999991775E+02 0.  0.
        -12    1    1    2    0    0 -0.37918997529E+02  0.21016329018E+02 -0.20216259599E+01  0.43400730760E+02  0.00000000000E+00 0.  1.
         11    1    3    3    0    0  0.56847678597E+01 -0.73455456535E+01  0.38821006001E+01  0.10066992197E+02  0.51100000000E-03 0. -1.
        -11    1    3    3    0    0  0.35612910986E+01 -0.75020191106E+01 -0.11411754812E+01  0.83824439613E+01  0.51100000000E-03 0.  1.
        -12    1    3    3    0    0  0.28672938570E+02 -0.61687642535E+01 -0.71929915895E+00  0.29337833082E+02  0.00000000000E+00 0.  1.
</event>
<event>
 7    1  0.3742599E-009  0.4778727E+02  0.7816164E-02  0.1312668E+00
        -11   -1    0    0    0    0  0.00000000000E+00  0.00000000000E+00  0.45593999997E+02  0.45594000000E+02  0.51100000000E-03 0. -1.
         11   -1    0    0    0    0 -0.00000000000E+00 -0.00000000000E+00 -0.45593999997E+02  0.45594000000E+02  0.51100000000E-03 0.  1.
    9900012    2    1    2    0    0  0.22227097990E+02  0.32225717492E+02  0.18737196851E+02  0.47787270757E+02  0.19999998692E+02 0.  0.
        -12    1    1    2    0    0 -0.22227097990E+02 -0.32225717492E+02 -0.18737196851E+02  0.43400729243E+02  0.00000000000E+00 0.  1.
         11    1    3    3    0    0  0.98854211670E+01  0.63146339441E+01  0.13381168034E+02  0.17794713027E+02  0.51100000000E-03 0. -1.
        -11    1    3    3    0    0  0.16211490086E+01  0.22915061150E+00 -0.70350915272E-01  0.16387750375E+01  0.51100000000E-03 0.  1.
        -12    1    3    3    0    0  0.10720527815E+02  0.25681932937E+02  0.54263797314E+01  0.28353782693E+02  0.00000000000E+00 0.  1.
</event>
<event>
 7    1  0.3742599E-009  0.4778727E+02  0.7816164E-02  0.1312668E+00
        -11   -1    0    0    0    0  0.00000000000E+00  0.00000000000E+00  0.45593999997E+02  0.45594000000E+02  0.51100000000E-03 0.  1.
         11   -1    0    0    0    0 -0.00000000000E+00 -0.00000000000E+00 -0.45593999997E+02  0.45594000000E+02  0.51100000000E-03 0. -1.
    9900012    2    1    2    0    0  0.65819248278E+01 -0.38544620632E+02 -0.18831198924E+02  0.47787267667E+02  0.19999984601E+02 0.  0.
        -12    1    1    2    0    0 -0.65819248278E+01  0.38544620632E+02  0.18831198924E+02  0.43400732333E+02  0.00000000000E+00 0.  1.
         11    1    3    3    0    0  0.14345143996E+01 -0.56200805039E+01 -0.10250814116E+02  0.11778044266E+02  0.51100000000E-03 0. -1.
        -11    1    3    3    0    0 -0.94600326903E+00 -0.19245578506E+01  0.17522203176E+01  0.27693178596E+01  0.51100000000E-03 0.  1.
         12    1    3    3    0    0  0.60934136973E+01 -0.30999982278E+02 -0.10332605126E+02  0.33239905541E+02  0.00000000000E+00 0. -1.
</event>
<event>
 7    1  0.3742599E-009  0.4778727E+02  0.7816164E-02  0.1312668E+00
        -11   -1    0    0    0    0  0.00000000000E+00  0.00000000000E+00  0.45593999997E+02  0.45594000000E+02  0.51100000000E-03 0.  1.
         11   -1    0    0    0    0 -0.00000000000E+00 -0.00000000000E+00 -0.45593999997E+02  0.45594000000E+02  0.51100000000E-03 0. -1.
    9900012    2    1    2    0    0  0.14576235773E+02  0.36318326716E+02  0.18765278094E+02  0.47787272279E+02  0.20000005630E+02 0.  0.
        -12    1    1    2    0    0 -0.14576235773E+02 -0.36318326716E+02 -0.18765278094E+02  0.43400727721E+02  0.00000000000E+00 0.  1.
         11    1    3    3    0    0  0.46047895562E+01  0.26362013777E+02  0.82601754778E+01  0.28006969783E+02  0.51100000000E-03 0. -1.
        -11    1    3    3    0    0  0.26771401809E+01  0.54015346110E+01 -0.22084891160E+00  0.60326138783E+01  0.51100000000E-03 0.  1.
        -12    1    3    3    0    0  0.72943060357E+01  0.45547783278E+01  0.10725951527E+02  0.13747688618E+02  0.00000000000E+00 0.  1.
</event>
<event>
 7    1  0.3742599E-009  0.4778727E+02  0.7816164E-02  0.1312668E+00
        -11   -1    0    0    0    0  0.00000000000E+00  0.00000000000E+00  0.45593999997E+02  0.45594000000E+02  0.51100000000E-03 0.  1.
         11   -1    0    0    0    0 -0.00000000000E+00 -0.00000000000E+00 -0.45593999997E+02  0.45594000000E+02  0.51100000000E-03 0. -1.
    9900012    2    1    2    0    0  0.11838336068E+02  0.28461280334E+02 -0.30552129907E+02  0.47787270502E+02  0.19999997526E+02 0.  0.
        -12    1    1    2    0    0 -0.11838336068E+02 -0.28461280334E+02  0.30552129907E+02  0.43400729498E+02  0.00000000000E+00 0.  1.
         11    1    3    3    0    0 -0.88542940790E+00  0.51605159460E+01 -0.68591988970E+01  0.86292247528E+01  0.51100000000E-03 0. -1.
        -11    1    3    3    0    0  0.35519253468E+01  0.12340955699E+02 -0.20999903229E+02  0.24615265531E+02  0.51100000000E-03 0.  1.
        -12    1    3    3    0    0  0.91718401293E+01  0.10959808689E+02 -0.26930277805E+01  0.14542780218E+02  0.00000000000E+00 0.  1.
</event>
<event>
 7    1  0.3742599E-009  0.4778727E+02  0.7816164E-02  0.1312668E+00
        -11   -1    0    0    0    0  0.00000000000E+00  0.00000000000E+00  0.45593999997E+02  0.45594000000E+02  0.51100000000E-03 0.  1.
         11   -1    0    0    0    0 -0.00000000000E+00 -0.00000000000E+00 -0.45593999997E+02  0.45594000000E+02  0.51100000000E-03 0. -1.
    9900012    2    1    2    0    0 -0.84459560448E+01 -0.11292794193E+02 -0.41045850537E+02  0.47787271659E+02  0.20000002803E+02 0.  0.
        -12    1    1    2    0    0  0.84459560448E+01  0.11292794193E+02  0.41045850537E+02  0.43400728341E+02  0.00000000000E+00 0.  1.
         11    1    3    3    0    0 -0.57483528696E+01 -0.85777020892E+01 -0.24532577830E+02  0.26617060489E+02  0.51100000000E-03 0.  1.
        -11    1    3    3    0    0  0.29843279461E+01  0.56944174640E+00 -0.13694598978E+02  0.14027562818E+02  0.51100000000E-03 0. -1.
        -12    1    3    3    0    0 -0.56819311213E+01 -0.32845338505E+01 -0.28186737287E+01  0.71426483513E+01  0.00000000000E+00 0.  1.
</event>
<event>
 7    1  0.3742599E-009  0.4778727E+02  0.7816164E-02  0.1312668E+00
        -11   -1    0    0    0    0  0.00000000000E+00  0.00000000000E+00  0.45593999997E+02  0.45594000000E+02  0.51100000000E-03 0.  1.
         11   -1    0    0    0    0 -0.00000000000E+00 -0.00000000000E+00 -0.45593999997E+02  0.45594000000E+02  0.51100000000E-03 0. -1.
    9900012    2    1    2    0    0 -0.23126671791E+02 -0.44072132816E+01 -0.36460343736E+02  0.47787272560E+02  0.20000006908E+02 0.  0.
        -12    1    1    2    0    0  0.23126671791E+02  0.44072132816E+01  0.36460343736E+02  0.43400727440E+02  0.00000000000E+00 0.  1.
         11    1    3    3    0    0 -0.29628971287E+01  0.50475287120E-01 -0.98275316608E+01  0.10264584062E+02  0.51100000000E-03 0. -1.
        -11    1    3    3    0    0 -0.21508011677E+02 -0.75795190973E+01 -0.21337081581E+02  0.31230029246E+02  0.51100000000E-03 0.  1.
        -12    1    3    3    0    0  0.13442370146E+01  0.31218305287E+01 -0.52957304941E+01  0.62926592524E+01  0.00000000000E+00 0.  1.
</event>
<event>
 7    1  0.3742599E-009  0.4778726E+02  0.7816164E-02  0.1312668E+00
        -11   -1    0    0    0    0  0.00000000000E+00  0.00000000000E+00  0.45593999997E+02  0.45594000000E+02  0.51100000000E-03 0. -1.
         11   -1    0    0    0    0 -0.00000000000E+00 -0.00000000000E+00 -0.45593999997E+02  0.45594000000E+02  0.51100000000E-03 0.  1.
    9900012    2    1    2    0    0 -0.22166585155E+02 -0.34472887034E+02  0.14278888957E+02  0.47787261438E+02  0.19999956202E+02 0.  0.
        -12    1    1    2    0    0  0.22166585155E+02  0.34472887034E+02 -0.14278888957E+02  0.43400738562E+02  0.00000000000E+00 0.  1.
         11    1    3    3    0    0 -0.93364243455E+01 -0.14532204448E+02  0.10335898524E+02  0.20129197307E+02  0.51100000000E-03 0. -1.
        -11    1    3    3    0    0 -0.15076629079E+02 -0.17734460964E+02  0.58185172406E+01  0.23993144713E+02  0.51100000000E-03 0.  1.
        -12    1    3    3    0    0  0.22464682701E+01 -0.22062216218E+01 -0.18755268080E+01  0.36649194180E+01  0.00000000000E+00 0.  1.
</event>
<event>
 7    1  0.3742599E-009  0.4778727E+02  0.7816164E-02  0.1312668E+00
        -11   -1    0    0    0    0  0.00000000000E+00  0.00000000000E+00  0.45593999997E+02  0.45594000000E+02  0.51100000000E-03 0. -1.
         11   -1    0    0    0    0 -0.00000000000E+00 -0.00000000000E+00 -0.45593999997E+02  0.45594000000E+02  0.51100000000E-03 0.  1.
    9900012    2    1    2    0    0 -0.30095364725E+02 -0.20051349639E+02  0.23996578208E+02  0.47787269983E+02  0.19999995162E+02 0.  0.
        -12    1    1    2    0    0  0.30095364725E+02  0.20051349639E+02 -0.23996578208E+02  0.43400730017E+02  0.00000000000E+00 0.  1.
         11    1    3    3    0    0 -0.55800856995E+01 -0.43232860978E+00  0.66302386263E+01  0.86766542483E+01  0.51100000000E-03 0. -1.
        -11    1    3    3    0    0 -0.58941003293E+01 -0.10171153024E+02  0.13454255217E+02  0.17866442182E+02  0.51100000000E-03 0.  1.
         12    1    3    3    0    0 -0.18621178696E+02 -0.94478680058E+01  0.39120843649E+01  0.21244173553E+02  0.00000000000E+00 0. -1.
</event>
<event>
 7    1  0.3742599E-009  0.4778727E+02  0.7816164E-02  0.1312668E+00
        -11   -1    0    0    0    0  0.00000000000E+00  0.00000000000E+00  0.45593999997E+02  0.45594000000E+02  0.51100000000E-03 0.  1.
         11   -1    0    0    0    0 -0.00000000000E+00 -0.00000000000E+00 -0.45593999997E+02  0.45594000000E+02  0.51100000000E-03 0. -1.
    9900012    2    1    2    0    0  0.34508262813E+02 -0.14213151329E+02 -0.22153762536E+02  0.47787273421E+02  0.20000010835E+02 0.  0.
        -12    1    1    2    0    0 -0.34508262813E+02  0.14213151329E+02  0.22153762536E+02  0.43400726579E+02  0.00000000000E+00 0.  1.
         11    1    3    3    0    0  0.22432419727E+02 -0.61557833620E+01 -0.82701271404E+01  0.24688096865E+02  0.51100000000E-03 0. -1.
        -11    1    3    3    0    0  0.96716048325E+01  0.37393472437E+00 -0.77490701603E+01  0.12398703796E+02  0.51100000000E-03 0.  1.
        -12    1    3    3    0    0  0.24042382534E+01 -0.84313026917E+01 -0.61345652354E+01  0.10700472760E+02  0.00000000000E+00 0.  1.
</event>
<event>
 7    1  0.3742599E-009  0.4778727E+02  0.7816164E-02  0.1312668E+00
        -11   -1    0    0    0    0  0.00000000000E+00  0.00000000000E+00  0.45593999997E+02  0.45594000000E+02  0.51100000000E-03 0.  1.
         11   -1    0    0    0    0 -0.00000000000E+00 -0.00000000000E+00 -0.45593999997E+02  0.45594000000E+02  0.51100000000E-03 0. -1.
    9900012    2    1    2    0    0 -0.31932042935E+02  0.23919106949E+02 -0.17083456250E+02  0.47787268201E+02  0.19999987034E+02 0.  0.
        -12    1    1    2    0    0  0.31932042935E+02 -0.23919106949E+02  0.17083456250E+02  0.43400731799E+02  0.00000000000E+00 0.  1.
         11    1    3    3    0    0 -0.15519796429E+02  0.20901156006E+02 -0.95654718897E+01  0.27734827498E+02  0.51100000000E-03 0. -1.
        -11    1    3    3    0    0 -0.95322399195E+01  0.57471888510E+01 -0.37390254003E+01  0.11741979764E+02  0.51100000000E-03 0.  1.
        -12    1    3    3    0    0 -0.68800065863E+01 -0.27292379085E+01 -0.37789589604E+01  0.83104609387E+01  0.00000000000E+00 0.  1.
</event>
<event>
 7    1  0.3742599E-009  0.4778727E+02  0.7816164E-02  0.1312668E+00
        -11   -1    0    0    0    0  0.00000000000E+00  0.00000000000E+00  0.45593999997E+02  0.45594000000E+02  0.51100000000E-03 0. -1.
         11   -1    0    0    0    0 -0.00000000000E+00 -0.00000000000E+00 -0.45593999997E+02  0.45594000000E+02  0.51100000000E-03 0.  1.
    9900012    2    1    2    0    0  0.32030832125E+00  0.21238722299E+02  0.37847554084E+02  0.47787271061E+02  0.20000000075E+02 0.  0.
        -12    1    1    2    0    0 -0.32030832125E+00 -0.21238722299E+02 -0.37847554084E+02  0.43400728939E+02  0.00000000000E+00 0.  1.
         11    1    3    3    0    0 -0.33614388576E+01  0.98800014846E+01  0.20934506553E+02  0.23391606730E+02  0.51100000000E-03 0. -1.
        -11    1    3    3    0    0  0.19682820048E+00  0.20153510474E+01  0.13801670924E+02  0.13949426574E+02  0.51100000000E-03 0.  1.
         12    1    3    3    0    0  0.34849189784E+01  0.93433697671E+01  0.31113766069E+01  0.10446237757E+02  0.00000000000E+00 0. -1.
</event>
<event>
 7    1  0.3742599E-009  0.4778725E+02  0.7816164E-02  0.1312668E+00
        -11   -1    0    0    0    0  0.00000000000E+00  0.00000000000E+00  0.45593999997E+02  0.45594000000E+02  0.51100000000E-03 0.  1.
         11   -1    0    0    0    0 -0.00000000000E+00 -0.00000000000E+00 -0.45593999997E+02  0.45594000000E+02  0.51100000000E-03 0. -1.
    9900012    2    1    2    0    0 -0.54209050191E+01  0.36657048252E+02 -0.22594238501E+02  0.47787251030E+02  0.19999908744E+02 0.  0.
        -12    1    1    2    0    0  0.54209050191E+01 -0.36657048252E+02  0.22594238501E+02  0.43400748970E+02  0.00000000000E+00 0.  1.
         11    1    3    3    0    0  0.23149127096E+01 -0.11621648482E+01 -0.11269948112E+01  0.28248124811E+01  0.51100000000E-03 0. -1.
        -11    1    3    3    0    0 -0.16032894120E+01  0.35447808215E+01 -0.52965484517E+01  0.65718668408E+01  0.51100000000E-03 0.  1.
        -12    1    3    3    0    0 -0.61325283168E+01  0.34274432278E+02 -0.16170695238E+02  0.38390571708E+02  0.00000000000E+00 0.  1.
</event>
<event>
 7    1  0.3742599E-009  0.4778727E+02  0.7816164E-02  0.1312668E+00
        -11   -1    0    0    0    0  0.00000000000E+00  0.00000000000E+00  0.45593999997E+02  0.45594000000E+02  0.51100000000E-03 0. -1.
         11   -1    0    0    0    0 -0.00000000000E+00 -0.00000000000E+00 -0.45593999997E+02  0.45594000000E+02  0.51100000000E-03 0.  1.
    9900012    2    1    2    0    0  0.33637459538E+02 -0.59063767200E+01  0.26781698819E+02  0.47787270032E+02  0.19999995386E+02 0.  0.
        -12    1    1    2    0    0 -0.33637459538E+02  0.59063767200E+01 -0.26781698819E+02  0.43400729968E+02  0.00000000000E+00 0.  1.
         11    1    3    3    0    0  0.18083814581E+02  0.23177309359E+01  0.12845429652E+02  0.22302495145E+02  0.51100000000E-03 0. -1.
        -11    1    3    3    0    0  0.13142196212E+02 -0.61861630654E+00  0.10337280376E+02  0.16731986530E+02  0.51100000000E-03 0.  1.
        -12    1    3    3    0    0  0.24114487450E+01 -0.76054913494E+01  0.35989887910E+01  0.87527883576E+01  0.00000000000E+00 0.  1.
</event>
<event>
 7    1  0.3742599E-009  0.4778727E+02  0.7816164E-02  0.1312668E+00
        -11   -1    0    0    0    0  0.00000000000E+00  0.00000000000E+00  0.45593999997E+02  0.45594000000E+02  0.51100000000E-03 0.  1.
         11   -1    0    0    0    0 -0.00000000000E+00 -0.00000000000E+00 -0.45593999997E+02  0.45594000000E+02  0.51100000000E-03 0. -1.
    9900012    2    1    2    0    0 -0.19320423127E+02  0.13828594684E+01 -0.38838539226E+02  0.47787272134E+02  0.20000004966E+02 0.  0.
        -12    1    1    2    0    0  0.19320423127E+02 -0.13828594684E+01  0.38838539226E+02  0.43400727866E+02  0.00000000000E+00 0.  1.
         11    1    3    3    0    0 -0.33349554189E+01  0.12284566540E+00 -0.89855988456E+01  0.95853015382E+01  0.51100000000E-03 0. -1.
        -11    1    3    3    0    0 -0.15891011752E+02 -0.55830018788E+01 -0.23090228868E+02  0.28580637395E+02  0.51100000000E-03 0.  1.
         12    1    3    3    0    0 -0.94455956145E-01  0.68430156818E+01 -0.67627115121E+01  0.96213332000E+01  0.00000000000E+00 0. -1.
</event>
<event>
 7    1  0.3742599E-009  0.4778727E+02  0.7816164E-02  0.1312668E+00
        -11   -1    0    0    0    0  0.00000000000E+00  0.00000000000E+00  0.45593999997E+02  0.45594000000E+02  0.51100000000E-03 0.  1.
         11   -1    0    0    0    0 -0.00000000000E+00 -0.00000000000E+00 -0.45593999997E+02  0.45594000000E+02  0.51100000000E-03 0. -1.
    9900012    2    1    2    0    0  0.11158199060E+02  0.21152007184E+02 -0.36217542444E+02  0.47787271955E+02  0.20000004150E+02 0.  0.
        -12    1    1    2    0    0 -0.11158199060E+02 -0.21152007184E+02  0.36217542444E+02  0.43400728045E+02  0.00000000000E+00 0.  1.
         11    1    3    3    0    0  0.14454852598E+01  0.55406832241E+01  0.99369011880E+00  0.58117139073E+01  0.51100000000E-03 0. -1.
        -11    1    3    3    0    0  0.59552597140E+01  0.11693475047E+02 -0.19934037888E+02  0.23865631014E+02  0.51100000000E-03 0.  1.
         12    1    3    3    0    0  0.37574540860E+01  0.39178489134E+01 -0.17277194675E+02  0.18109927033E+02  0.00000000000E+00 0. -1.
</event>
<event>
 7    1  0.3742599E-009  0.4778728E+02  0.7816164E-02  0.1312668E+00
        -11   -1    0    0    0    0  0.00000000000E+00  0.00000000000E+00  0.45593999997E+02  0.45594000000E+02  0.51100000000E-03 0. -1.
         11   -1    0    0    0    0 -0.00000000000E+00 -0.00000000000E+00 -0.45593999997E+02  0.45594000000E+02  0.51100000000E-03 0.  1.
    9900012    2    1    2    0    0 -0.37709413755E+02 -0.72706154620E+00  0.21473099266E+02  0.47787280002E+02  0.20000040842E+02 0.  0.
        -12    1    1    2    0    0  0.37709413755E+02  0.72706154620E+00 -0.21473099266E+02  0.43400719998E+02  0.00000000000E+00 0.  1.
         11    1    3    3    0    0 -0.18050966757E+02  0.60772688187E+01  0.14232240939E+02  0.23776612029E+02  0.51100000000E-03 0. -1.
        -11    1    3    3    0    0 -0.65984495065E+01  0.10695508556E+01 -0.86495093296E+00  0.67402978643E+01  0.51100000000E-03 0.  1.
        -12    1    3    3    0    0 -0.13059997492E+02 -0.78738812205E+01  0.81058092592E+01  0.17270370109E+02  0.00000000000E+00 0.  1.
</event>
<event>
 7    1  0.3742599E-009  0.4778727E+02  0.7816164E-02  0.1312668E+00
        -11   -1    0    0    0    0  0.00000000000E+00  0.00000000000E+00  0.45593999997E+02  0.45594000000E+02  0.51100000000E-03 0. -1.
         11   -1    0    0    0    0 -0.00000000000E+00 -0.00000000000E+00 -0.45593999997E+02  0.45594000000E+02  0.51100000000E-03 0.  1.
    9900012    2    1    2    0    0  0.34557241998E+01  0.16373731660E+02  0.40044750409E+02  0.47787272431E+02  0.20000006322E+02 0.  0.
        -12    1    1    2    0    0 -0.34557241998E+01 -0.16373731660E+02 -0.40044750409E+02  0.43400727569E+02  0.00000000000E+00 0.  1.
         11    1    3    3    0    0 -0.50553920268E+00  0.46272282347E+00  0.63546792036E+01  0.63915280128E+01  0.51100000000E-03 0. -1.
        -11    1    3    3    0    0 -0.39431364928E+01 -0.19946717435E+01  0.74146891660E+01  0.86316079877E+01  0.51100000000E-03 0.  1.
         12    1    3    3    0    0  0.79043998952E+01  0.17905680580E+02  0.26275382039E+02  0.32764136431E+02  0.00000000000E+00 0. -1.
</event>
<event>
 7    1  0.3742599E-009  0.4778727E+02  0.7816164E-02  0.1312668E+00
        -11   -1    0    0    0    0  0.00000000000E+00  0.00000000000E+00  0.45593999997E+02  0.45594000000E+02  0.51100000000E-03 0. -1.
         11   -1    0    0    0    0 -0.00000000000E+00 -0.00000000000E+00 -0.45593999997E+02  0.45594000000E+02  0.51100000000E-03 0.  1.
    9900012    2    1    2    0    0  0.41284149416E+02  0.63324945141E+01  0.11795839872E+02  0.47787270536E+02  0.19999997680E+02 0.  0.
        -12    1    1    2    0    0 -0.41284149416E+02 -0.63324945141E+01 -0.11795839872E+02  0.43400729464E+02  0.00000000000E+00 0.  1.
         11    1    3    3    0    0  0.35093941158E+02  0.39747229028E+01  0.91693418032E+01  0.36489175895E+02  0.51100000000E-03 0. -1.
        -11    1    3    3    0    0  0.29662111476E+01  0.32054973410E+01 -0.26120201325E+01  0.50888379036E+01  0.51100000000E-03 0.  1.
        -12    1    3    3    0    0  0.32239971105E+01 -0.84772572969E+00  0.52385182009E+01  0.62092567367E+01  0.00000000000E+00 0.  1.
</event>
<event>
 7    1  0.3742599E-009  0.4778728E+02  0.7816164E-02  0.1312668E+00
        -11   -1    0    0    0    0  0.00000000000E+00  0.00000000000E+00  0.45593999997E+02  0.45594000000E+02  0.51100000000E-03 0.  1.
         11   -1    0    0    0    0 -0.00000000000E+00 -0.00000000000E+00 -0.45593999997E+02  0.45594000000E+02  0.51100000000E-03 0. -1.
    9900012    2    1    2    0    0  0.23426205791E+02  0.27632590183E+02 -0.23901368833E+02  0.47787278922E+02  0.20000035919E+02 0.  0.
        -12    1    1    2    0    0 -0.23426205791E+02 -0.27632590183E+02  0.23901368833E+02  0.43400721078E+02  0.00000000000E+00 0.  1.
         11    1    3    3    0    0  0.17887638856E+02  0.83122448026E+01 -0.15119722080E+02  0.24852907950E+02  0.51100000000E-03 0. -1.
        -11    1    3    3    0    0  0.29384163938E+01  0.30268488928E+01  0.51894842946E-01  0.42188622233E+01  0.51100000000E-03 0.  1.
         12    1    3    3    0    0  0.26001505406E+01  0.16293496488E+02 -0.88335415954E+01  0.18715508749E+02  0.00000000000E+00 0. -1.
</event>
<event>
 7    1  0.3742599E-009  0.4778727E+02  0.7816164E-02  0.1312668E+00
        -11   -1    0    0    0    0  0.00000000000E+00  0.00000000000E+00  0.45593999997E+02  0.45594000000E+02  0.51100000000E-03 0.  1.
         11   -1    0    0    0    0 -0.00000000000E+00 -0.00000000000E+00 -0.45593999997E+02  0.45594000000E+02  0.51100000000E-03 0. -1.
    9900012    2    1    2    0    0 -0.37488001671E+02 -0.20318506375E+02  0.80889685422E+01  0.47787269791E+02  0.19999994286E+02 0.  0.
        -12    1    1    2    0    0  0.37488001671E+02  0.20318506375E+02 -0.80889685422E+01  0.43400730209E+02  0.00000000000E+00 0.  1.
         11    1    3    3    0    0 -0.29454283844E+02 -0.20910376720E+02  0.17381886504E+01  0.36163793930E+02  0.51100000000E-03 0. -1.
        -11    1    3    3    0    0 -0.47554881264E+01  0.99589874068E+00  0.47354565188E+00  0.48816725994E+01  0.51100000000E-03 0.  1.
        -12    1    3    3    0    0 -0.32782297006E+01 -0.40402839522E+00  0.58772342400E+01  0.67418032621E+01  0.00000000000E+00 0.  1.
</event>
<event>
 7    1  0.3742599E-009  0.4778727E+02  0.7816164E-02  0.1312668E+00
        -11   -1    0    0    0    0  0.00000000000E+00  0.00000000000E+00  0.45593999997E+02  0.45594000000E+02  0.51100000000E-03 0. -1.
         11   -1    0    0    0    0 -0.00000000000E+00 -0.00000000000E+00 -0.45593999997E+02  0.45594000000E+02  0.51100000000E-03 0.  1.
    9900012    2    1    2    0    0  0.69028946533E+01 -0.37441476045E+02 -0.20835287090E+02  0.47787271076E+02  0.20000000143E+02 0.  0.
        -12    1    1    2    0    0 -0.69028946533E+01  0.37441476045E+02  0.20835287090E+02  0.43400728924E+02  0.00000000000E+00 0.  1.
         11    1    3    3    0    0  0.66655261912E+01 -0.71134353628E+01 -0.63361336667E+01  0.11626555473E+02  0.51100000000E-03 0. -1.
        -11    1    3    3    0    0  0.17334336304E+01 -0.11473896935E+02 -0.12635842360E+02  0.17155745843E+02  0.51100000000E-03 0.  1.
        -12    1    3    3    0    0 -0.14960651683E+01 -0.18854143747E+02 -0.18633110629E+01  0.19004969759E+02  0.00000000000E+00 0.  1.
</event>
<event>
 7    1  0.3742599E-009  0.4778727E+02  0.7816164E-02  0.1312668E+00
        -11   -1    0    0    0    0  0.00000000000E+00  0.00000000000E+00  0.45593999997E+02  0.45594000000E+02  0.51100000000E-03 0. -1.
         11   -1    0    0    0    0 -0.00000000000E+00 -0.00000000000E+00 -0.45593999997E+02  0.45594000000E+02  0.51100000000E-03 0.  1.
    9900012    2    1    2    0    0  0.58670738098E+01  0.11934867274E+02  0.41312945524E+02  0.47787273281E+02  0.20000010195E+02 0.  0.
        -12    1    1    2    0    0 -0.58670738098E+01 -0.11934867274E+02 -0.41312945524E+02  0.43400726719E+02  0.00000000000E+00 0.  1.
         11    1    3    3    0    0  0.54698637846E+00 -0.30923883415E+01  0.53261695485E+01  0.61830528118E+01  0.51100000000E-03 0. -1.
        -11    1    3    3    0    0  0.35356100068E+01 -0.58218116361E+00  0.18658206052E+01  0.40398960159E+01  0.51100000000E-03 0.  1.
         12    1    3    3    0    0  0.17844774245E+01  0.15609436779E+02  0.34120955370E+02  0.37564324453E+02  0.00000000000E+00 0. -1.
</event>
<event>
 7    1  0.3742599E-009  0.4778727E+02  0.7816164E-02  0.1312668E+00
        -11   -1    0    0    0    0  0.00000000000E+00  0.00000000000E+00  0.45593999997E+02  0.45594000000E+02  0.51100000000E-03 0.  1.
         11   -1    0    0    0    0 -0.00000000000E+00 -0.00000000000E+00 -0.45593999997E+02  0.45594000000E+02  0.51100000000E-03 0. -1.
    9900012    2    1    2    0    0  0.41092071300E+02  0.49084866360E+01 -0.13075623317E+02  0.47787268556E+02  0.19999988653E+02 0.  0.
        -12    1    1    2    0    0 -0.41092071300E+02 -0.49084866360E+01  0.13075623317E+02  0.43400731444E+02  0.00000000000E+00 0.  1.
         11    1    3    3    0    0  0.13616868257E+02 -0.18645298168E+01 -0.81981307330E+00  0.13768357429E+02  0.51100000000E-03 0. -1.
        -11    1    3    3    0    0  0.12846610825E+02  0.58299175655E+00  0.15764055790E+01  0.12956092925E+02  0.51100000000E-03 0.  1.
         12    1    3    3    0    0  0.14628592218E+02  0.61900246962E+01 -0.13832215823E+02  0.21062818201E+02  0.00000000000E+00 0. -1.
</event>
<event>
 7    1  0.3742599E-009  0.4778727E+02  0.7816164E-02  0.1312668E+00
        -11   -1    0    0    0    0  0.00000000000E+00  0.00000000000E+00  0.45593999997E+02  0.45594000000E+02  0.51100000000E-03 0. -1.
         11   -1    0    0    0    0 -0.00000000000E+00 -0.00000000000E+00 -0.45593999997E+02  0.45594000000E+02  0.51100000000E-03 0.  1.
    9900012    2    1    2    0    0  0.36868402663E+02 -0.22898535469E+02  0.34337397050E-01  0.47787271658E+02  0.20000002799E+02 0.  0.
        -12    1    1    2    0    0 -0.36868402663E+02  0.22898535469E+02 -0.34337397050E-01  0.43400728342E+02  0.00000000000E+00 0.  1.
         11    1    3    3    0    0  0.21797916390E+02 -0.63931202362E+01 -0.32447936970E+01  0.22946673652E+02  0.51100000000E-03 0. -1.
        -11    1    3    3    0    0  0.15088256030E+02 -0.99707880931E+01  0.25915643977E+01  0.18269873878E+02  0.51100000000E-03 0.  1.
        -12    1    3    3    0    0 -0.17769756578E-01 -0.65346271394E+01  0.68756669633E+00  0.65707241288E+01  0.00000000000E+00 0.  1.
</event>
<event>
 7    1  0.3742599E-009  0.4778727E+02  0.7816164E-02  0.1312668E+00
        -11   -1    0    0    0    0  0.00000000000E+00  0.00000000000E+00  0.45593999997E+02  0.45594000000E+02  0.51100000000E-03 0. -1.
         11   -1    0    0    0    0 -0.00000000000E+00 -0.00000000000E+00 -0.45593999997E+02  0.45594000000E+02  0.51100000000E-03 0.  1.
    9900012    2    1    2    0    0 -0.22076114044E+02  0.12189380754E+02  0.35322619874E+02  0.47787270868E+02  0.19999999195E+02 0.  0.
        -12    1    1    2    0    0  0.22076114044E+02 -0.12189380754E+02 -0.35322619874E+02  0.43400729132E+02  0.00000000000E+00 0.  1.
         11    1    3    3    0    0 -0.14701623879E+01  0.74627327074E+01  0.14901688793E+02  0.16730633163E+02  0.51100000000E-03 0. -1.
        -11    1    3    3    0    0 -0.65465500445E+01  0.62918401153E+01  0.98537562156E+01  0.13399294061E+02  0.51100000000E-03 0.  1.
        -12    1    3    3    0    0 -0.14059401612E+02 -0.15651920685E+01  0.10567174865E+02  0.17657343643E+02  0.00000000000E+00 0.  1.
</event>
<event>
 7    1  0.3742599E-009  0.4778727E+02  0.7816164E-02  0.1312668E+00
        -11   -1    0    0    0    0  0.00000000000E+00  0.00000000000E+00  0.45593999997E+02  0.45594000000E+02  0.51100000000E-03 0. -1.
         11   -1    0    0    0    0 -0.00000000000E+00 -0.00000000000E+00 -0.45593999997E+02  0.45594000000E+02  0.51100000000E-03 0.  1.
    9900012    2    1    2    0    0 -0.14372546883E+02  0.51987126195E+01  0.40620516596E+02  0.47787273216E+02  0.20000009903E+02 0.  0.
        -12    1    1    2    0    0  0.14372546883E+02 -0.51987126195E+01 -0.40620516596E+02  0.43400726784E+02  0.00000000000E+00 0.  1.
         11    1    3    3    0    0 -0.40233128581E+01 -0.15970970892E+01  0.14272598216E+02  0.14914584324E+02  0.51100000000E-03 0. -1.
        -11    1    3    3    0    0 -0.33805686026E+01  0.80687991133E+01  0.23779131415E+02  0.25337341106E+02  0.51100000000E-03 0.  1.
         12    1    3    3    0    0 -0.69686654220E+01 -0.12729894047E+01  0.25687869655E+01  0.75353477864E+01  0.00000000000E+00 0. -1.
</event>
<event>
 7    1  0.3742599E-009  0.4778727E+02  0.7816164E-02  0.1312668E+00
        -11   -1    0    0    0    0  0.00000000000E+00  0.00000000000E+00  0.45593999997E+02  0.45594000000E+02  0.51100000000E-03 0. -1.
         11   -1    0    0    0    0 -0.00000000000E+00 -0.00000000000E+00 -0.45593999997E+02  0.45594000000E+02  0.51100000000E-03 0.  1.
    9900012    2    1    2    0    0 -0.25022042428E+01  0.10298057883E+02  0.42086962704E+02  0.47787268994E+02  0.19999990650E+02 0.  0.
        -12    1    1    2    0    0  0.25022042428E+01 -0.10298057883E+02 -0.42086962704E+02  0.43400731006E+02  0.00000000000E+00 0.  1.
         11    1    3    3    0    0 -0.98233541035E+01  0.66164470735E+01  0.29150373935E+02  0.31464582605E+02  0.51100000000E-03 0. -1.
        -11    1    3    3    0    0 -0.28591183373E+00  0.24845038179E+00  0.42849904114E+01  0.43016992289E+01  0.51100000000E-03 0.  1.
        -12    1    3    3    0    0  0.76070616944E+01  0.34331604281E+01  0.86515983578E+01  0.12020987160E+02  0.00000000000E+00 0.  1.
</event>
<event>
 7    1  0.3742599E-009  0.4778727E+02  0.7816164E-02  0.1312668E+00
        -11   -1    0    0    0    0  0.00000000000E+00  0.00000000000E+00  0.45593999997E+02  0.45594000000E+02  0.51100000000E-03 0.  1.
         11   -1    0    0    0    0 -0.00000000000E+00 -0.00000000000E+00 -0.45593999997E+02  0.45594000000E+02  0.51100000000E-03 0. -1.
    9900012    2    1    2    0    0 -0.25264321854E+02 -0.15737022564E+02 -0.31586128406E+02  0.47787270218E+02  0.19999996232E+02 0.  0.
        -12    1    1    2    0    0  0.25264321854E+02  0.15737022564E+02  0.31586128406E+02  0.43400729782E+02  0.00000000000E+00 0.  1.
         11    1    3    3    0    0 -0.75344311420E+01 -0.12178532359E+01 -0.22433668196E+01  0.79550935938E+01  0.51100000000E-03 0. -1.
        -11    1    3    3    0    0  0.10529433772E+01 -0.24745724060E+01  0.32644648467E+00  0.27090156730E+01  0.51100000000E-03 0.  1.
         12    1    3    3    0    0 -0.18782834089E+02 -0.12044596923E+02 -0.29669208071E+02  0.37123160951E+02  0.00000000000E+00 0. -1.
</event>
<event>
 7    1  0.3742599E-009  0.4778727E+02  0.7816164E-02  0.1312668E+00
        -11   -1    0    0    0    0  0.00000000000E+00  0.00000000000E+00  0.45593999997E+02  0.45594000000E+02  0.51100000000E-03 0.  1.
         11   -1    0    0    0    0 -0.00000000000E+00 -0.00000000000E+00 -0.45593999997E+02  0.45594000000E+02  0.51100000000E-03 0. -1.
    9900012    2    1    2    0    0  0.42919706148E+02  0.60725372546E+01  0.21555500281E+01  0.47787270969E+02  0.19999999655E+02 0.  0.
        -12    1    1    2    0    0 -0.42919706148E+02 -0.60725372546E+01 -0.21555500281E+01  0.43400729031E+02  0.00000000000E+00 0.  1.
         11    1    3    3    0    0  0.28935478051E+01  0.43583437090E+01 -0.42367016344E+00  0.52485498430E+01  0.51100000000E-03 0. -1.
        -11    1    3    3    0    0  0.28740875869E+02 -0.49562676069E+01 -0.66400304660E-01  0.29165166613E+02  0.51100000000E-03 0.  1.
         12    1    3    3    0    0  0.11285282474E+02  0.66704611525E+01  0.26456204962E+01  0.13373554513E+02  0.00000000000E+00 0. -1.
</event>
<event>
 7    1  0.3742599E-009  0.4778727E+02  0.7816164E-02  0.1312668E+00
        -11   -1    0    0    0    0  0.00000000000E+00  0.00000000000E+00  0.45593999997E+02  0.45594000000E+02  0.51100000000E-03 0.  1.
         11   -1    0    0    0    0 -0.00000000000E+00 -0.00000000000E+00 -0.45593999997E+02  0.45594000000E+02  0.51100000000E-03 0. -1.
    9900012    2    1    2    0    0  0.17353650742E+02  0.39306984503E+02  0.61183915626E+01  0.47787274890E+02  0.20000017533E+02 0.  0.
        -12    1    1    2    0    0 -0.17353650742E+02 -0.39306984503E+02 -0.61183915626E+01  0.43400725110E+02  0.00000000000E+00 0.  1.
         11    1    3    3    0    0  0.11955961872E+02  0.11079845502E+02  0.17833825416E+01  0.16397818580E+02  0.51100000000E-03 0. -1.
        -11    1    3    3    0    0 -0.12691731554E+01  0.15219565351E+02 -0.21055083329E+01  0.15416845838E+02  0.51100000000E-03 0.  1.
         12    1    3    3    0    0  0.66668620251E+01  0.13007573650E+02  0.64405173539E+01  0.15972610472E+02  0.00000000000E+00 0. -1.
</event>
<event>
 7    1  0.3742599E-009  0.4778727E+02  0.7816164E-02  0.1312668E+00
        -11   -1    0    0    0    0  0.00000000000E+00  0.00000000000E+00  0.45593999997E+02  0.45594000000E+02  0.51100000000E-03 0. -1.
         11   -1    0    0    0    0 -0.00000000000E+00 -0.00000000000E+00 -0.45593999997E+02  0.45594000000E+02  0.51100000000E-03 0.  1.
    9900012    2    1    2    0    0  0.24324989871E+01 -0.27662819674E+02  0.33353782214E+02  0.47787269227E+02  0.19999991712E+02 0.  0.
        -12    1    1    2    0    0 -0.24324989871E+01  0.27662819674E+02 -0.33353782214E+02  0.43400730773E+02  0.00000000000E+00 0.  1.
         11    1    3    3    0    0 -0.83050259563E+00 -0.88564495136E+01  0.94460213911E+01  0.12975120536E+02  0.51100000000E-03 0. -1.
        -11    1    3    3    0    0  0.60846720110E+01 -0.61114881104E+01  0.19083171490E+02  0.20941369458E+02  0.51100000000E-03 0.  1.
        -12    1    3    3    0    0 -0.28216704283E+01 -0.12694882050E+02  0.48245893335E+01  0.13870779232E+02  0.00000000000E+00 0.  1.
</event>
<event>
 7    1  0.3742599E-009  0.4778727E+02  0.7816164E-02  0.1312668E+00
        -11   -1    0    0    0    0  0.00000000000E+00  0.00000000000E+00  0.45593999997E+02  0.45594000000E+02  0.51100000000E-03 0. -1.
         11   -1    0    0    0    0 -0.00000000000E+00 -0.00000000000E+00 -0.45593999997E+02  0.45594000000E+02  0.51100000000E-03 0.  1.
    9900012    2    1    2    0    0 -0.51087970387E+01  0.42684327468E+02  0.59641895375E+01  0.47787272178E+02  0.20000005170E+02 0.  0.
        -12    1    1    2    0    0  0.51087970387E+01 -0.42684327468E+02 -0.59641895375E+01  0.43400727822E+02  0.00000000000E+00 0.  1.
         11    1    3    3    0    0  0.15833209743E+01  0.22170991543E+02  0.27905871648E+01  0.22401945190E+02  0.51100000000E-03 0.  1.
        -11    1    3    3    0    0 -0.19594724304E+01  0.19984825558E+02  0.41969184886E+01  0.20514553611E+02  0.51100000000E-03 0. -1.
        -12    1    3    3    0    0 -0.47326455826E+01  0.52851036688E+00 -0.10233161159E+01  0.48707733771E+01  0.00000000000E+00 0.  1.
</event>
<event>
 7    1  0.3742599E-009  0.4778727E+02  0.7816164E-02  0.1312668E+00
        -11   -1    0    0    0    0  0.00000000000E+00  0.00000000000E+00  0.45593999997E+02  0.45594000000E+02  0.51100000000E-03 0.  1.
         11   -1    0    0    0    0 -0.00000000000E+00 -0.00000000000E+00 -0.45593999997E+02  0.45594000000E+02  0.51100000000E-03 0. -1.
    9900012    2    1    2    0    0 -0.35664859721E+02 -0.24698156204E+02 -0.12815587220E+01  0.47787268075E+02  0.19999986462E+02 0.  0.
        -12    1    1    2    0    0  0.35664859721E+02  0.24698156204E+02  0.12815587220E+01  0.43400731925E+02  0.00000000000E+00 0.  1.
         11    1    3    3    0    0 -0.66830765782E+01 -0.24670740335E+01 -0.34398582388E+01  0.79109159900E+01  0.51100000000E-03 0.  1.
        -11    1    3    3    0    0 -0.21489898292E+01 -0.90786461992E+01  0.34973498751E+01  0.99635049308E+01  0.51100000000E-03 0. -1.
         12    1    3    3    0    0 -0.26832793314E+02 -0.13152435972E+02 -0.13390503584E+01  0.29912847154E+02  0.00000000000E+00 0. -1.
</event>
<event>
 7    1  0.3742599E-009  0.4778727E+02  0.7816164E-02  0.1312668E+00
        -11   -1    0    0    0    0  0.00000000000E+00  0.00000000000E+00  0.45593999997E+02  0.45594000000E+02  0.51100000000E-03 0.  1.
         11   -1    0    0    0    0 -0.00000000000E+00 -0.00000000000E+00 -0.45593999997E+02  0.45594000000E+02  0.51100000000E-03 0. -1.
    9900012    2    1    2    0    0 -0.88921686752E+01 -0.86128937371E+01 -0.41597725167E+02  0.47787270267E+02  0.19999996456E+02 0.  0.
        -12    1    1    2    0    0  0.88921686752E+01  0.86128937371E+01  0.41597725167E+02  0.43400729733E+02  0.00000000000E+00 0.  1.
         11    1    3    3    0    0 -0.93579643535E+01 -0.74773699996E+01 -0.21117073194E+02  0.24277836384E+02  0.51100000000E-03 0. -1.
        -11    1    3    3    0    0 -0.51015446870E+01 -0.16164494727E+00 -0.14048284110E+02  0.14946778047E+02  0.51100000000E-03 0.  1.
        -12    1    3    3    0    0  0.55673403654E+01 -0.97387879019E+00 -0.64323678630E+01  0.85626558360E+01  0.00000000000E+00 0.  1.
</event>
<event>
 7    1  0.3742599E-009  0.4778727E+02  0.7816164E-02  0.1312668E+00
        -11   -1    0    0    0    0  0.00000000000E+00  0.00000000000E+00  0.45593999997E+02  0.45594000000E+02  0.51100000000E-03 0.  1.
         11   -1    0    0    0    0 -0.00000000000E+00 -0.00000000000E+00 -0.45593999997E+02  0.45594000000E+02  0.51100000000E-03 0. -1.
    9900012    2    1    2    0    0  0.89361657735E+01 -0.42395952367E+02 -0.25201793656E+01  0.47787272588E+02  0.20000007039E+02 0.  0.
        -12    1    1    2    0    0 -0.89361657735E+01  0.42395952367E+02  0.25201793656E+01  0.43400727412E+02  0.00000000000E+00 0.  1.
         11    1    3    3    0    0  0.73182397893E+00  0.34854120993E+00  0.27022561192E+00  0.85444101822E+00  0.51100000000E-03 0. -1.
        -11    1    3    3    0    0  0.89631225001E+01 -0.11669395601E+02  0.37126582055E+01  0.15175512837E+02  0.51100000000E-03 0.  1.
         12    1    3    3    0    0 -0.75878070553E+00 -0.31075097976E+02 -0.65030631830E+01  0.31757318733E+02  0.00000000000E+00 0. -1.
</event>
<event>
 7    1  0.3742599E-009  0.4778724E+02  0.7816164E-02  0.1312668E+00
        -11   -1    0    0    0    0  0.00000000000E+00  0.00000000000E+00  0.45593999997E+02  0.45594000000E+02  0.51100000000E-03 0.  1.
         11   -1    0    0    0    0 -0.00000000000E+00 -0.00000000000E+00 -0.45593999997E+02  0.45594000000E+02  0.51100000000E-03 0. -1.
    9900012    2    1    2    0    0  0.41063300230E+02  0.14009026714E+02  0.10855001510E+01  0.47787242336E+02  0.19999869104E+02 0.  0.
        -12    1    1    2    0    0 -0.41063300230E+02 -0.14009026714E+02 -0.10855001510E+01  0.43400757664E+02  0.00000000000E+00 0.  1.
         11    1    3    3    0    0  0.21193581369E+02  0.35844959144E+01 -0.37488473018E+00  0.21497838055E+02  0.51100000000E-03 0. -1.
        -11    1    3    3    0    0  0.12809759647E+02 -0.79887143753E+00  0.21442374614E+01  0.13012528284E+02  0.51100000000E-03 0.  1.
         12    1    3    3    0    0  0.70599592146E+01  0.11223402238E+02 -0.68385258026E+00  0.13276875997E+02  0.00000000000E+00 0. -1.
</event>
<event>
 7    1  0.3742599E-009  0.4778727E+02  0.7816164E-02  0.1312668E+00
        -11   -1    0    0    0    0  0.00000000000E+00  0.00000000000E+00  0.45593999997E+02  0.45594000000E+02  0.51100000000E-03 0.  1.
         11   -1    0    0    0    0 -0.00000000000E+00 -0.00000000000E+00 -0.45593999997E+02  0.45594000000E+02  0.51100000000E-03 0. -1.
    9900012    2    1    2    0    0 -0.37934535225E+02 -0.79041840245E+01 -0.19547839628E+02  0.47787272795E+02  0.20000007980E+02 0.  0.
        -12    1    1    2    0    0  0.37934535225E+02  0.79041840245E+01  0.19547839628E+02  0.43400727205E+02  0.00000000000E+00 0.  1.
         11    1    3    3    0    0 -0.36120395155E+02 -0.61601050643E+01 -0.20736958756E+02  0.42102865689E+02  0.51100000000E-03 0. -1.
        -11    1    3    3    0    0 -0.34940491024E+01 -0.70634239007E+00  0.99094207206E+00  0.36999006951E+01  0.51100000000E-03 0.  1.
         12    1    3    3    0    0  0.16799090326E+01 -0.10377365702E+01  0.19817705530E+00  0.19845064102E+01  0.00000000000E+00 0. -1.
</event>
<event>
 7    1  0.3742599E-009  0.4778727E+02  0.7816164E-02  0.1312668E+00
        -11   -1    0    0    0    0  0.00000000000E+00  0.00000000000E+00  0.45593999997E+02  0.45594000000E+02  0.51100000000E-03 0. -1.
         11   -1    0    0    0    0 -0.00000000000E+00 -0.00000000000E+00 -0.45593999997E+02  0.45594000000E+02  0.51100000000E-03 0.  1.
    9900012    2    1    2    0    0  0.35170083329E+02  0.13144468219E+02  0.21769502583E+02  0.47787273637E+02  0.20000011821E+02 0.  0.
        -12    1    1    2    0    0 -0.35170083329E+02 -0.13144468219E+02 -0.21769502583E+02  0.43400726363E+02  0.00000000000E+00 0.  1.
         11    1    3    3    0    0  0.62494313100E+01  0.31928017047E+00  0.13945066799E+00  0.62591355853E+01  0.51100000000E-03 0. -1.
        -11    1    3    3    0    0  0.75463601689E+01  0.11699018037E+02  0.10241140640E+02  0.17282810440E+02  0.51100000000E-03 0.  1.
         12    1    3    3    0    0  0.21374291850E+02  0.11261700118E+01  0.11388911275E+02  0.24245327612E+02  0.00000000000E+00 0. -1.
</event>
<event>
 7    1  0.3742599E-009  0.4778727E+02  0.7816164E-02  0.1312668E+00
        -11   -1    0    0    0    0  0.00000000000E+00  0.00000000000E+00  0.45593999997E+02  0.45594000000E+02  0.51100000000E-03 0. -1.
         11   -1    0    0    0    0 -0.00000000000E+00 -0.00000000000E+00 -0.45593999997E+02  0.45594000000E+02  0.51100000000E-03 0.  1.
    9900012    2    1    2    0    0 -0.23798167620E+02 -0.35229090095E+02 -0.87282043198E+01  0.47787272798E+02  0.20000007996E+02 0.  0.
        -12    1    1    2    0    0  0.23798167620E+02  0.35229090095E+02  0.87282043198E+01  0.43400727202E+02  0.00000000000E+00 0.  1.
         11    1    3    3    0    0 -0.19370095331E+02 -0.16405498250E+02 -0.48228076548E+01  0.25837965088E+02  0.51100000000E-03 0. -1.
        -11    1    3    3    0    0 -0.33443489854E+01 -0.25967109177E+01 -0.37949864903E+01  0.56859036616E+01  0.51100000000E-03 0.  1.
        -12    1    3    3    0    0 -0.10837233037E+01 -0.16226880928E+02 -0.11041017470E+00  0.16263404049E+02  0.00000000000E+00 0.  1.
</event>
<event>
 7    1  0.3742599E-009  0.4778727E+02  0.7816164E-02  0.1312668E+00
        -11   -1    0    0    0    0  0.00000000000E+00  0.00000000000E+00  0.45593999997E+02  0.45594000000E+02  0.51100000000E-03 0.  1.
         11   -1    0    0    0    0 -0.00000000000E+00 -0.00000000000E+00 -0.45593999997E+02  0.45594000000E+02  0.51100000000E-03 0. -1.
    9900012    2    1    2    0    0 -0.18044599986E+02 -0.19332251903E+01 -0.39424336061E+02  0.47787271641E+02  0.20000002718E+02 0.  0.
        -12    1    1    2    0    0  0.18044599986E+02  0.19332251903E+01  0.39424336061E+02  0.43400728359E+02  0.00000000000E+00 0.  1.
         11    1    3    3    0    0 -0.57695915782E+01 -0.40753477363E+01 -0.54585763759E+01  0.89270769271E+01  0.51100000000E-03 0. -1.
        -11    1    3    3    0    0 -0.54968901824E+00 -0.42543148342E+01 -0.33007087637E+01  0.54125808381E+01  0.51100000000E-03 0.  1.
        -12    1    3    3    0    0 -0.11725319389E+02  0.63964373802E+01 -0.30665050921E+02  0.33447613875E+02  0.00000000000E+00 0.  1.
</event>
<event>
 7    1  0.3742599E-009  0.4778728E+02  0.7816164E-02  0.1312668E+00
        -11   -1    0    0    0    0  0.00000000000E+00  0.00000000000E+00  0.45593999997E+02  0.45594000000E+02  0.51100000000E-03 0.  1.
         11   -1    0    0    0    0 -0.00000000000E+00 -0.00000000000E+00 -0.45593999997E+02  0.45594000000E+02  0.51100000000E-03 0. -1.
    9900012    2    1    2    0    0 -0.15225201612E+02  0.35871779439E+02 -0.19105782971E+02  0.47787282642E+02  0.20000052879E+02 0.  0.
        -12    1    1    2    0    0  0.15225201612E+02 -0.35871779439E+02  0.19105782971E+02  0.43400717358E+02  0.00000000000E+00 0.  1.
         11    1    3    3    0    0 -0.18636700218E+02  0.33213353749E+02 -0.18200676870E+02  0.42210402759E+02  0.51100000000E-03 0. -1.
        -11    1    3    3    0    0  0.11912699470E+00 -0.25063628780E+00 -0.11437742196E+01  0.11769577376E+01  0.51100000000E-03 0.  1.
        -12    1    3    3    0    0  0.32923716114E+01  0.29090619774E+01  0.23866811869E+00  0.43999221455E+01  0.00000000000E+00 0.  1.
</event>
<event>
 7    1  0.3742599E-009  0.4778727E+02  0.7816164E-02  0.1312668E+00
        -11   -1    0    0    0    0  0.00000000000E+00  0.00000000000E+00  0.45593999997E+02  0.45594000000E+02  0.51100000000E-03 0.  1.
         11   -1    0    0    0    0 -0.00000000000E+00 -0.00000000000E+00 -0.45593999997E+02  0.45594000000E+02  0.51100000000E-03 0. -1.
    9900012    2    1    2    0    0 -0.34714359341E+02  0.22063652469E+02  0.13846723731E+02  0.47787271172E+02  0.20000000581E+02 0.  0.
        -12    1    1    2    0    0  0.34714359341E+02 -0.22063652469E+02 -0.13846723731E+02  0.43400728828E+02  0.00000000000E+00 0.  1.
         11    1    3    3    0    0 -0.16835352859E+02  0.11658047752E+02  0.60974473418E+01  0.21366282962E+02  0.51100000000E-03 0. -1.
        -11    1    3    3    0    0 -0.13761207001E+02  0.54490033325E+01  0.11696226968E+02  0.18864362724E+02  0.51100000000E-03 0.  1.
        -12    1    3    3    0    0 -0.41177994813E+01  0.49566013840E+01 -0.39469505790E+01  0.75566254850E+01  0.00000000000E+00 0.  1.
</event>
<event>
 7    1  0.3742599E-009  0.4778726E+02  0.7816164E-02  0.1312668E+00
        -11   -1    0    0    0    0  0.00000000000E+00  0.00000000000E+00  0.45593999997E+02  0.45594000000E+02  0.51100000000E-03 0. -1.
         11   -1    0    0    0    0 -0.00000000000E+00 -0.00000000000E+00 -0.45593999997E+02  0.45594000000E+02  0.51100000000E-03 0.  1.
    9900012    2    1    2    0    0  0.35881535754E+02 -0.24411748072E+02 -0.45397931968E+00  0.47787260960E+02  0.19999954021E+02 0.  0.
        -12    1    1    2    0    0 -0.35881535754E+02  0.24411748072E+02  0.45397931968E+00  0.43400739040E+02  0.00000000000E+00 0.  1.
         11    1    3    3    0    0  0.10018252089E+02 -0.12519970458E+02 -0.10311891596E+00  0.16035138569E+02  0.51100000000E-03 0. -1.
        -11    1    3    3    0    0  0.26128461352E+02 -0.76072722972E+01  0.10586158289E+01  0.27233944852E+02  0.51100000000E-03 0.  1.
         12    1    3    3    0    0 -0.26517768720E+00 -0.42845053176E+01 -0.14094762326E+01  0.45181775389E+01  0.00000000000E+00 0. -1.
</event>
<event>
 7    1  0.3742599E-009  0.4778727E+02  0.7816164E-02  0.1312668E+00
        -11   -1    0    0    0    0  0.00000000000E+00  0.00000000000E+00  0.45593999997E+02  0.45594000000E+02  0.51100000000E-03 0. -1.
         11   -1    0    0    0    0 -0.00000000000E+00 -0.00000000000E+00 -0.45593999997E+02  0.45594000000E+02  0.51100000000E-03 0.  1.
    9900012    2    1    2    0    0  0.35973217025E+02 -0.11511181985E+02  0.21378578791E+02  0.47787270917E+02  0.19999999419E+02 0.  0.
        -12    1    1    2    0    0 -0.35973217025E+02  0.11511181985E+02 -0.21378578791E+02  0.43400729083E+02  0.00000000000E+00 0.  1.
         11    1    3    3    0    0  0.24964205812E+02 -0.47954724783E+01  0.13405908351E+02  0.28738937126E+02  0.51100000000E-03 0. -1.
        -11    1    3    3    0    0  0.11710253301E+02 -0.88170299115E+01  0.53238858554E+01  0.15595313709E+02  0.51100000000E-03 0.  1.
        -12    1    3    3    0    0 -0.70124208837E+00  0.21013204049E+01  0.26487845843E+01  0.34530200817E+01  0.00000000000E+00 0.  1.
</event>
<event>
 7    1  0.3742599E-009  0.4778728E+02  0.7816164E-02  0.1312668E+00
        -11   -1    0    0    0    0  0.00000000000E+00  0.00000000000E+00  0.45593999997E+02  0.45594000000E+02  0.51100000000E-03 0. -1.
         11   -1    0    0    0    0 -0.00000000000E+00 -0.00000000000E+00 -0.45593999997E+02  0.45594000000E+02  0.51100000000E-03 0.  1.
    9900012    2    1    2    0    0  0.15365342552E+02  0.14013806444E+02  0.38093862314E+02  0.47787275711E+02  0.20000021279E+02 0.  0.
        -12    1    1    2    0    0 -0.15365342552E+02 -0.14013806444E+02 -0.38093862314E+02  0.43400724289E+02  0.00000000000E+00 0.  1.
         11    1    3    3    0    0  0.84745962470E+01  0.31224904467E+01  0.88320427911E+01  0.12632248741E+02  0.51100000000E-03 0. -1.
        -11    1    3    3    0    0  0.45494555641E+01 -0.20250870651E+01  0.30491201437E+01  0.58391486933E+01  0.51100000000E-03 0.  1.
         12    1    3    3    0    0  0.23412907410E+01  0.12916403062E+02  0.26212699379E+02  0.29315878277E+02  0.00000000000E+00 0. -1.
</event>
<event>
 7    1  0.3742599E-009  0.4778728E+02  0.7816164E-02  0.1312668E+00
        -11   -1    0    0    0    0  0.00000000000E+00  0.00000000000E+00  0.45593999997E+02  0.45594000000E+02  0.51100000000E-03 0.  1.
         11   -1    0    0    0    0 -0.00000000000E+00 -0.00000000000E+00 -0.45593999997E+02  0.45594000000E+02  0.51100000000E-03 0. -1.
    9900012    2    1    2    0    0  0.68745079917E+01  0.35040725206E+02 -0.24668024643E+02  0.47787277392E+02  0.20000028940E+02 0.  0.
        -12    1    1    2    0    0 -0.68745079917E+01 -0.35040725206E+02  0.24668024643E+02  0.43400722608E+02  0.00000000000E+00 0.  1.
         11    1    3    3    0    0  0.12270651214E+01  0.44597159543E+01 -0.42324861013E+00  0.46447706996E+01  0.51100000000E-03 0. -1.
        -11    1    3    3    0    0 -0.45412653409E+00  0.34139443017E+01  0.27149872408E+01  0.43854763234E+01  0.51100000000E-03 0.  1.
         12    1    3    3    0    0  0.61015694044E+01  0.27167064950E+02 -0.26959763274E+02  0.38757030369E+02  0.00000000000E+00 0. -1.
</event>
<event>
 7    1  0.3742599E-009  0.4778727E+02  0.7816164E-02  0.1312668E+00
        -11   -1    0    0    0    0  0.00000000000E+00  0.00000000000E+00  0.45593999997E+02  0.45594000000E+02  0.51100000000E-03 0.  1.
         11   -1    0    0    0    0 -0.00000000000E+00 -0.00000000000E+00 -0.45593999997E+02  0.45594000000E+02  0.51100000000E-03 0. -1.
    9900012    2    1    2    0    0  0.21380394264E+02 -0.30827590403E+02  0.21821126879E+02  0.47787272273E+02  0.20000005604E+02 0.  0.
        -12    1    1    2    0    0 -0.21380394264E+02  0.30827590403E+02 -0.21821126879E+02  0.43400727727E+02  0.00000000000E+00 0.  1.
         11    1    3    3    0    0  0.10022979146E+02 -0.99863169807E+01  0.78580661097E+01  0.16184432058E+02  0.51100000000E-03 0. -1.
        -11    1    3    3    0    0  0.67830982792E+01 -0.12021609685E+02  0.16337285996E+02  0.21387763690E+02  0.51100000000E-03 0.  1.
         12    1    3    3    0    0  0.45743168383E+01 -0.88196637379E+01 -0.23742252273E+01  0.10215076525E+02  0.00000000000E+00 0. -1.
</event>
<event>
 7    1  0.3742599E-009  0.4778727E+02  0.7816164E-02  0.1312668E+00
        -11   -1    0    0    0    0  0.00000000000E+00  0.00000000000E+00  0.45593999997E+02  0.45594000000E+02  0.51100000000E-03 0.  1.
         11   -1    0    0    0    0 -0.00000000000E+00 -0.00000000000E+00 -0.45593999997E+02  0.45594000000E+02  0.51100000000E-03 0. -1.
    9900012    2    1    2    0    0 -0.12226178071E+02 -0.40379394241E+02 -0.10180781897E+02  0.47787271555E+02  0.20000002329E+02 0.  0.
        -12    1    1    2    0    0  0.12226178071E+02  0.40379394241E+02  0.10180781897E+02  0.43400728445E+02  0.00000000000E+00 0.  1.
         11    1    3    3    0    0 -0.58971314234E+01 -0.52618393777E+01 -0.18202987309E+01  0.81102774547E+01  0.51100000000E-03 0. -1.
        -11    1    3    3    0    0 -0.22374476765E+00 -0.65138195603E+01 -0.81403752817E+01  0.10428116655E+02  0.51100000000E-03 0.  1.
         12    1    3    3    0    0 -0.61053018797E+01 -0.28603735303E+02 -0.22010788402E+00  0.29248877445E+02  0.00000000000E+00 0. -1.
</event>
<event>
 7    1  0.3742599E-009  0.4778727E+02  0.7816164E-02  0.1312668E+00
        -11   -1    0    0    0    0  0.00000000000E+00  0.00000000000E+00  0.45593999997E+02  0.45594000000E+02  0.51100000000E-03 0.  1.
         11   -1    0    0    0    0 -0.00000000000E+00 -0.00000000000E+00 -0.45593999997E+02  0.45594000000E+02  0.51100000000E-03 0. -1.
    9900012    2    1    2    0    0  0.19234219693E+02 -0.29461883482E+02 -0.25409958803E+02  0.47787265077E+02  0.19999972791E+02 0.  0.
        -12    1    1    2    0    0 -0.19234219693E+02  0.29461883482E+02  0.25409958803E+02  0.43400734923E+02  0.00000000000E+00 0.  1.
         11    1    3    3    0    0  0.24952133430E+01 -0.26073624292E+01 -0.81555873940E+01  0.89184098620E+01  0.51100000000E-03 0. -1.
        -11    1    3    3    0    0  0.27699819557E+01  0.14318129125E+01 -0.27047833661E+01  0.41278010575E+01  0.51100000000E-03 0.  1.
         12    1    3    3    0    0  0.13969024394E+02 -0.28286333966E+02 -0.14549588043E+02  0.34741054157E+02  0.00000000000E+00 0. -1.
</event>
<event>
 7    1  0.3742599E-009  0.4778727E+02  0.7816164E-02  0.1312668E+00
        -11   -1    0    0    0    0  0.00000000000E+00  0.00000000000E+00  0.45593999997E+02  0.45594000000E+02  0.51100000000E-03 0. -1.
         11   -1    0    0    0    0 -0.00000000000E+00 -0.00000000000E+00 -0.45593999997E+02  0.45594000000E+02  0.51100000000E-03 0.  1.
    9900012    2    1    2    0    0  0.13093122310E+02 -0.21857296573E+02  0.35134771007E+02  0.47787269602E+02  0.19999993425E+02 0.  0.
        -12    1    1    2    0    0 -0.13093122310E+02  0.21857296573E+02 -0.35134771007E+02  0.43400730398E+02  0.00000000000E+00 0.  1.
         11    1    3    3    0    0  0.69993309662E+01 -0.99709680143E+01  0.26974176450E+02  0.29597584911E+02  0.51100000000E-03 0. -1.
        -11    1    3    3    0    0 -0.21366931740E+01 -0.12688444800E+01  0.27516033052E+01  0.37076603194E+01  0.51100000000E-03 0.  1.
        -12    1    3    3    0    0  0.82304845176E+01 -0.10617484079E+02  0.54089912519E+01  0.14482024372E+02  0.00000000000E+00 0.  1.
</event>
<event>
 7    1  0.3742599E-009  0.4778727E+02  0.7816164E-02  0.1312668E+00
        -11   -1    0    0    0    0  0.00000000000E+00  0.00000000000E+00  0.45593999997E+02  0.45594000000E+02  0.51100000000E-03 0.  1.
         11   -1    0    0    0    0 -0.00000000000E+00 -0.00000000000E+00 -0.45593999997E+02  0.45594000000E+02  0.51100000000E-03 0. -1.
    9900012    2    1    2    0    0 -0.36841374097E+02  0.22613844816E+02 -0.38665965514E+01  0.47787269688E+02  0.19999993816E+02 0.  0.
        -12    1    1    2    0    0  0.36841374097E+02 -0.22613844816E+02  0.38665965514E+01  0.43400730312E+02  0.00000000000E+00 0.  1.
         11    1    3    3    0    0 -0.26901159277E+02  0.16519954771E+02  0.40196085016E+00  0.31571234516E+02  0.51100000000E-03 0. -1.
        -11    1    3    3    0    0 -0.54003594589E+01  0.15173508121E+01  0.31134366571E+01  0.64155844513E+01  0.51100000000E-03 0.  1.
         12    1    3    3    0    0 -0.45398553611E+01  0.45765392330E+01 -0.73819940587E+01  0.98004507209E+01  0.00000000000E+00 0. -1.
</event>
<event>
 7    1  0.3742599E-009  0.4778728E+02  0.7816164E-02  0.1312668E+00
        -11   -1    0    0    0    0  0.00000000000E+00  0.00000000000E+00  0.45593999997E+02  0.45594000000E+02  0.51100000000E-03 0.  1.
         11   -1    0    0    0    0 -0.00000000000E+00 -0.00000000000E+00 -0.45593999997E+02  0.45594000000E+02  0.51100000000E-03 0. -1.
    9900012    2    1    2    0    0 -0.33781157295E+02  0.17643192037E+02 -0.20764726934E+02  0.47787277678E+02  0.20000030243E+02 0.  0.
        -12    1    1    2    0    0  0.33781157295E+02 -0.17643192037E+02  0.20764726934E+02  0.43400722322E+02  0.00000000000E+00 0.  1.
         11    1    3    3    0    0 -0.87765816491E+01  0.15219697772E+02 -0.71212354353E+01  0.18957309411E+02  0.51100000000E-03 0. -1.
        -11    1    3    3    0    0 -0.25603687225E+01 -0.39313262425E+00 -0.40869108755E+00  0.26224168093E+01  0.51100000000E-03 0.  1.
         12    1    3    3    0    0 -0.22444206924E+02  0.28166268892E+01 -0.13234800411E+02  0.26207551457E+02  0.00000000000E+00 0. -1.
</event>
<event>
 7    1  0.3742599E-009  0.4778727E+02  0.7816164E-02  0.1312668E+00
        -11   -1    0    0    0    0  0.00000000000E+00  0.00000000000E+00  0.45593999997E+02  0.45594000000E+02  0.51100000000E-03 0. -1.
         11   -1    0    0    0    0 -0.00000000000E+00 -0.00000000000E+00 -0.45593999997E+02  0.45594000000E+02  0.51100000000E-03 0.  1.
    9900012    2    1    2    0    0 -0.28035888880E+02  0.11243657838E+02  0.31163963305E+02  0.47787268258E+02  0.19999987296E+02 0.  0.
        -12    1    1    2    0    0  0.28035888880E+02 -0.11243657838E+02 -0.31163963305E+02  0.43400731742E+02  0.00000000000E+00 0.  1.
         11    1    3    3    0    0 -0.11593035594E+02  0.82507946385E+01  0.22422503079E+02  0.26556406591E+02  0.51100000000E-03 0.  1.
        -11    1    3    3    0    0 -0.52516693708E+01 -0.26771458206E+01  0.59559490337E+01  0.83797655145E+01  0.51100000000E-03 0. -1.
        -12    1    3    3    0    0 -0.11191183915E+02  0.56700090198E+01  0.27855111919E+01  0.12851096152E+02  0.00000000000E+00 0.  1.
</event>
<event>
 7    1  0.3742599E-009  0.4778727E+02  0.7816164E-02  0.1312668E+00
        -11   -1    0    0    0    0  0.00000000000E+00  0.00000000000E+00  0.45593999997E+02  0.45594000000E+02  0.51100000000E-03 0.  1.
         11   -1    0    0    0    0 -0.00000000000E+00 -0.00000000000E+00 -0.45593999997E+02  0.45594000000E+02  0.51100000000E-03 0. -1.
    9900012    2    1    2    0    0  0.19747646119E+02  0.55326419462E+01 -0.38249752744E+02  0.47787271445E+02  0.20000001826E+02 0.  0.
        -12    1    1    2    0    0 -0.19747646119E+02 -0.55326419462E+01  0.38249752744E+02  0.43400728555E+02  0.00000000000E+00 0.  1.
         11    1    3    3    0    0  0.15079464189E+01 -0.20269055071E+01 -0.25905331815E+01  0.36184403771E+01  0.51100000000E-03 0.  1.
        -11    1    3    3    0    0  0.56077358076E+01  0.22361656160E+01 -0.27631490591E+02  0.28283323887E+02  0.51100000000E-03 0. -1.
         12    1    3    3    0    0  0.12631963892E+02  0.53233818373E+01 -0.80277289713E+01  0.15885507181E+02  0.00000000000E+00 0. -1.
</event>
<event>
 7    1  0.3742599E-009  0.4778728E+02  0.7816164E-02  0.1312668E+00
        -11   -1    0    0    0    0  0.00000000000E+00  0.00000000000E+00  0.45593999997E+02  0.45594000000E+02  0.51100000000E-03 0.  1.
         11   -1    0    0    0    0 -0.00000000000E+00 -0.00000000000E+00 -0.45593999997E+02  0.45594000000E+02  0.51100000000E-03 0. -1.
    9900012    2    1    2    0    0  0.26178559486E+02 -0.30118315916E+02 -0.17064355423E+02  0.47787283918E+02  0.20000058698E+02 0.  0.
        -12    1    1    2    0    0 -0.26178559486E+02  0.30118315916E+02  0.17064355423E+02  0.43400716082E+02  0.00000000000E+00 0.  1.
         11    1    3    3    0    0  0.11081429260E+02 -0.12397622314E+02  0.10069803070E+01  0.16658725134E+02  0.51100000000E-03 0. -1.
        -11    1    3    3    0    0  0.38608386783E+01 -0.10008140195E+02 -0.37618737609E+01  0.11367525672E+02  0.51100000000E-03 0.  1.
        -12    1    3    3    0    0  0.11236291548E+02 -0.77125534067E+01 -0.14309461969E+02  0.19761033112E+02  0.00000000000E+00 0.  1.
</event>
<event>
 7    1  0.3742599E-009  0.4778727E+02  0.7816164E-02  0.1312668E+00
        -11   -1    0    0    0    0  0.00000000000E+00  0.00000000000E+00  0.45593999997E+02  0.45594000000E+02  0.51100000000E-03 0.  1.
         11   -1    0    0    0    0 -0.00000000000E+00 -0.00000000000E+00 -0.45593999997E+02  0.45594000000E+02  0.51100000000E-03 0. -1.
    9900012    2    1    2    0    0 -0.26195079760E+02  0.77823172305E+01 -0.33717599982E+02  0.47787271738E+02  0.20000003163E+02 0.  0.
        -12    1    1    2    0    0  0.26195079760E+02 -0.77823172305E+01  0.33717599982E+02  0.43400728262E+02  0.00000000000E+00 0.  1.
         11    1    3    3    0    0 -0.14626105245E+02  0.86199042598E+01 -0.15026231764E+02  0.22671862415E+02  0.51100000000E-03 0. -1.
        -11    1    3    3    0    0 -0.13188404401E+02  0.20518861175E+01 -0.13715677834E+02  0.19138026701E+02  0.51100000000E-03 0.  1.
        -12    1    3    3    0    0  0.16194298856E+01 -0.28894731467E+01 -0.49756903837E+01  0.59773826224E+01  0.00000000000E+00 0.  1.
</event>
<event>
 7    1  0.3742599E-009  0.4778727E+02  0.7816164E-02  0.1312668E+00
        -11   -1    0    0    0    0  0.00000000000E+00  0.00000000000E+00  0.45593999997E+02  0.45594000000E+02  0.51100000000E-03 0. -1.
         11   -1    0    0    0    0 -0.00000000000E+00 -0.00000000000E+00 -0.45593999997E+02  0.45594000000E+02  0.51100000000E-03 0.  1.
    9900012    2    1    2    0    0 -0.41564707776E+02  0.11279468470E+02 -0.53639180528E+01  0.47787274680E+02  0.20000016576E+02 0.  0.
        -12    1    1    2    0    0  0.41564707776E+02 -0.11279468470E+02  0.53639180528E+01  0.43400725320E+02  0.00000000000E+00 0.  1.
         11    1    3    3    0    0 -0.66888897293E+01  0.45239352984E+01  0.55653513674E+01  0.98071592471E+01  0.51100000000E-03 0. -1.
        -11    1    3    3    0    0 -0.11300404799E+02  0.21077844600E+01  0.20392470490E+00  0.11497107876E+02  0.51100000000E-03 0.  1.
        -12    1    3    3    0    0 -0.23575413247E+02  0.46477487114E+01 -0.11133194125E+02  0.26483007557E+02  0.00000000000E+00 0.  1.
</event>
<event>
 7    1  0.3742599E-009  0.4778727E+02  0.7816164E-02  0.1312668E+00
        -11   -1    0    0    0    0  0.00000000000E+00  0.00000000000E+00  0.45593999997E+02  0.45594000000E+02  0.51100000000E-03 0.  1.
         11   -1    0    0    0    0 -0.00000000000E+00 -0.00000000000E+00 -0.45593999997E+02  0.45594000000E+02  0.51100000000E-03 0. -1.
    9900012    2    1    2    0    0  0.28811608669E+02  0.29404140037E+02 -0.13744485823E+02  0.47787272633E+02  0.20000007243E+02 0.  0.
        -12    1    1    2    0    0 -0.28811608669E+02 -0.29404140037E+02  0.13744485823E+02  0.43400727367E+02  0.00000000000E+00 0.  1.
         11    1    3    3    0    0  0.15975482563E+02  0.98681161278E+01 -0.12738822009E+02  0.22690820732E+02  0.51100000000E-03 0. -1.
        -11    1    3    3    0    0  0.16195374168E+01  0.31440214458E+01 -0.36223926058E+01  0.50625587155E+01  0.51100000000E-03 0.  1.
        -12    1    3    3    0    0  0.11216588689E+02  0.16392002464E+02  0.26167287924E+01  0.20033893186E+02  0.00000000000E+00 0.  1.
</event>
<event>
 7    1  0.3742599E-009  0.4778726E+02  0.7816164E-02  0.1312668E+00
        -11   -1    0    0    0    0  0.00000000000E+00  0.00000000000E+00  0.45593999997E+02  0.45594000000E+02  0.51100000000E-03 0.  1.
         11   -1    0    0    0    0 -0.00000000000E+00 -0.00000000000E+00 -0.45593999997E+02  0.45594000000E+02  0.51100000000E-03 0. -1.
    9900012    2    1    2    0    0  0.76623601174E+01  0.28011603221E+02 -0.32253097189E+02  0.47787263188E+02  0.19999964179E+02 0.  0.
        -12    1    1    2    0    0 -0.76623601174E+01 -0.28011603221E+02  0.32253097189E+02  0.43400736812E+02  0.00000000000E+00 0.  1.
         11    1    3    3    0    0  0.13751249917E+01  0.11508041906E+02 -0.13713349441E+02  0.17954997923E+02  0.51100000000E-03 0. -1.
        -11    1    3    3    0    0 -0.10937932939E+01  0.10785051717E+02 -0.22727875522E+01  0.11076068248E+02  0.51100000000E-03 0.  1.
         12    1    3    3    0    0  0.73810284196E+01  0.57185095973E+01 -0.16266960195E+02  0.18756197017E+02  0.00000000000E+00 0. -1.
</event>
<event>
 7    1  0.3742599E-009  0.4778727E+02  0.7816164E-02  0.1312668E+00
        -11   -1    0    0    0    0  0.00000000000E+00  0.00000000000E+00  0.45593999997E+02  0.45594000000E+02  0.51100000000E-03 0.  1.
         11   -1    0    0    0    0 -0.00000000000E+00 -0.00000000000E+00 -0.45593999997E+02  0.45594000000E+02  0.51100000000E-03 0. -1.
    9900012    2    1    2    0    0 -0.35035717339E+02 -0.22506859747E+02 -0.12229603300E+02  0.47787269338E+02  0.19999992219E+02 0.  0.
        -12    1    1    2    0    0  0.35035717339E+02  0.22506859747E+02  0.12229603300E+02  0.43400730662E+02  0.00000000000E+00 0.  1.
         11    1    3    3    0    0 -0.15550551084E+02 -0.11259576916E+02 -0.90778870190E-01  0.19199113324E+02  0.51100000000E-03 0. -1.
        -11    1    3    3    0    0 -0.77295068260E+01 -0.34240466132E+01  0.19122528764E+01  0.86675303465E+01  0.51100000000E-03 0.  1.
         12    1    3    3    0    0 -0.11755659429E+02 -0.78232362178E+01 -0.14051077306E+02  0.19920625668E+02  0.00000000000E+00 0. -1.
</event>
<event>
 7    1  0.3742599E-009  0.4778727E+02  0.7816164E-02  0.1312668E+00
        -11   -1    0    0    0    0  0.00000000000E+00  0.00000000000E+00  0.45593999997E+02  0.45594000000E+02  0.51100000000E-03 0.  1.
         11   -1    0    0    0    0 -0.00000000000E+00 -0.00000000000E+00 -0.45593999997E+02  0.45594000000E+02  0.51100000000E-03 0. -1.
    9900012    2    1    2    0    0  0.13326900348E+02 -0.40954639085E+02  0.53605001042E+01  0.47787266171E+02  0.19999977782E+02 0.  0.
        -12    1    1    2    0    0 -0.13326900348E+02  0.40954639085E+02 -0.53605001042E+01  0.43400733829E+02  0.00000000000E+00 0.  1.
         11    1    3    3    0    0 -0.55319303133E+00 -0.17856801558E+02  0.31473999809E+01  0.18140493690E+02  0.51100000000E-03 0. -1.
        -11    1    3    3    0    0 -0.43202289613E+00  0.69012158020E+00 -0.14316619225E+01  0.16469874619E+01  0.51100000000E-03 0.  1.
        -12    1    3    3    0    0  0.14312116276E+02 -0.23787959107E+02  0.36447620457E+01  0.27999785020E+02  0.00000000000E+00 0.  1.
</event>
<event>
 7    1  0.3742599E-009  0.4778727E+02  0.7816164E-02  0.1312668E+00
        -11   -1    0    0    0    0  0.00000000000E+00  0.00000000000E+00  0.45593999997E+02  0.45594000000E+02  0.51100000000E-03 0.  1.
         11   -1    0    0    0    0 -0.00000000000E+00 -0.00000000000E+00 -0.45593999997E+02  0.45594000000E+02  0.51100000000E-03 0. -1.
    9900012    2    1    2    0    0 -0.17146138678E+02  0.83648600738E+01 -0.38982848210E+02  0.47787269474E+02  0.19999992842E+02 0.  0.
        -12    1    1    2    0    0  0.17146138678E+02 -0.83648600738E+01  0.38982848210E+02  0.43400730526E+02  0.00000000000E+00 0.  1.
         11    1    3    3    0    0 -0.16814921856E+02  0.35565830996E+01 -0.29775703372E+02  0.34379985339E+02  0.51100000000E-03 0. -1.
        -11    1    3    3    0    0  0.69468762833E+00 -0.16521073682E+01 -0.57206372300E+01  0.59948094411E+01  0.51100000000E-03 0.  1.
         12    1    3    3    0    0 -0.10259044504E+01  0.64603843424E+01 -0.34865076079E+01  0.74124746942E+01  0.00000000000E+00 0. -1.
</event>
<event>
 7    1  0.3742599E-009  0.4778727E+02  0.7816164E-02  0.1312668E+00
        -11   -1    0    0    0    0  0.00000000000E+00  0.00000000000E+00  0.45593999997E+02  0.45594000000E+02  0.51100000000E-03 0. -1.
         11   -1    0    0    0    0 -0.00000000000E+00 -0.00000000000E+00 -0.45593999997E+02  0.45594000000E+02  0.51100000000E-03 0.  1.
    9900012    2    1    2    0    0  0.26344283365E+02 -0.33305970891E+02  0.89618368208E+01  0.47787268644E+02  0.19999989057E+02 0.  0.
        -12    1    1    2    0    0 -0.26344283365E+02  0.33305970891E+02 -0.89618368208E+01  0.43400731356E+02  0.00000000000E+00 0.  1.
         11    1    3    3    0    0 -0.15671943966E+01 -0.48066621253E+01  0.29151494028E+01  0.58359399727E+01  0.51100000000E-03 0.  1.
        -11    1    3    3    0    0  0.13354094989E+02 -0.18384561898E+02  0.80623457734E+01  0.24110690343E+02  0.51100000000E-03 0. -1.
         12    1    3    3    0    0  0.14557382772E+02 -0.10114746868E+02 -0.20156583554E+01  0.17840638329E+02  0.00000000000E+00 0. -1.
</event>
<event>
 7    1  0.3742599E-009  0.4778727E+02  0.7816164E-02  0.1312668E+00
        -11   -1    0    0    0    0  0.00000000000E+00  0.00000000000E+00  0.45593999997E+02  0.45594000000E+02  0.51100000000E-03 0.  1.
         11   -1    0    0    0    0 -0.00000000000E+00 -0.00000000000E+00 -0.45593999997E+02  0.45594000000E+02  0.51100000000E-03 0. -1.
    9900012    2    1    2    0    0 -0.27511229186E+01 -0.26149065073E+02 -0.34529427120E+02  0.47787267071E+02  0.19999981884E+02 0.  0.
        -12    1    1    2    0    0  0.27511229186E+01  0.26149065073E+02  0.34529427120E+02  0.43400732929E+02  0.00000000000E+00 0.  1.
         11    1    3    3    0    0 -0.31777028783E+01 -0.22206451795E+02 -0.18807194051E+02  0.29273449493E+02  0.51100000000E-03 0. -1.
        -11    1    3    3    0    0  0.13273803094E+01 -0.13960359809E+01  0.56232008911E+00  0.20067533704E+01  0.51100000000E-03 0.  1.
        -12    1    3    3    0    0 -0.90080034963E+00 -0.25465772979E+01 -0.16284553158E+02  0.16507064208E+02  0.00000000000E+00 0.  1.
</event>
<event>
 7    1  0.3742599E-009  0.4778727E+02  0.7816164E-02  0.1312668E+00
        -11   -1    0    0    0    0  0.00000000000E+00  0.00000000000E+00  0.45593999997E+02  0.45594000000E+02  0.51100000000E-03 0.  1.
         11   -1    0    0    0    0 -0.00000000000E+00 -0.00000000000E+00 -0.45593999997E+02  0.45594000000E+02  0.51100000000E-03 0. -1.
    9900012    2    1    2    0    0 -0.52960700009E+01 -0.16434003236E+02 -0.39818320181E+02  0.47787269109E+02  0.19999991176E+02 0.  0.
        -12    1    1    2    0    0  0.52960700009E+01  0.16434003236E+02  0.39818320181E+02  0.43400730891E+02  0.00000000000E+00 0.  1.
         11    1    3    3    0    0 -0.24641132331E+01 -0.62740406377E+01 -0.29277175323E+02  0.30043109611E+02  0.51100000000E-03 0. -1.
        -11    1    3    3    0    0 -0.12026422987E+01 -0.43483632822E+01 -0.10798413320E+02  0.11703005692E+02  0.51100000000E-03 0.  1.
        -12    1    3    3    0    0 -0.16293144691E+01 -0.58115993161E+01  0.25726846189E+00  0.60411538063E+01  0.00000000000E+00 0.  1.
</event>
<event>
 7    1  0.3742599E-009  0.4778727E+02  0.7816164E-02  0.1312668E+00
        -11   -1    0    0    0    0  0.00000000000E+00  0.00000000000E+00  0.45593999997E+02  0.45594000000E+02  0.51100000000E-03 0. -1.
         11   -1    0    0    0    0 -0.00000000000E+00 -0.00000000000E+00 -0.45593999997E+02  0.45594000000E+02  0.51100000000E-03 0.  1.
    9900012    2    1    2    0    0  0.35383171409E+02  0.81695504110E+01 -0.23767889758E+02  0.47787274702E+02  0.20000016676E+02 0.  0.
        -12    1    1    2    0    0 -0.35383171409E+02 -0.81695504110E+01  0.23767889758E+02  0.43400725298E+02  0.00000000000E+00 0.  1.
         11    1    3    3    0    0  0.16655255632E+02 -0.91821081469E+00 -0.15099451568E+02  0.22499646424E+02  0.51100000000E-03 0. -1.
        -11    1    3    3    0    0  0.25175705875E+01  0.10590171569E+01 -0.65223322859E+01  0.70711030053E+01  0.51100000000E-03 0.  1.
        -12    1    3    3    0    0  0.16210345189E+02  0.80287440688E+01 -0.21461059042E+01  0.18216525273E+02  0.00000000000E+00 0.  1.
</event>
<event>
 7    1  0.3742599E-009  0.4778727E+02  0.7816164E-02  0.1312668E+00
        -11   -1    0    0    0    0  0.00000000000E+00  0.00000000000E+00  0.45593999997E+02  0.45594000000E+02  0.51100000000E-03 0.  1.
         11   -1    0    0    0    0 -0.00000000000E+00 -0.00000000000E+00 -0.45593999997E+02  0.45594000000E+02  0.51100000000E-03 0. -1.
    9900012    2    1    2    0    0 -0.11775713664E+02 -0.29945959018E+02 -0.29123796326E+02  0.47787269519E+02  0.19999993046E+02 0.  0.
        -12    1    1    2    0    0  0.11775713664E+02  0.29945959018E+02  0.29123796326E+02  0.43400730481E+02  0.00000000000E+00 0.  1.
         11    1    3    3    0    0 -0.15559348639E+02 -0.23572505872E+02 -0.23476593817E+02  0.36727466842E+02  0.51100000000E-03 0. -1.
        -11    1    3    3    0    0  0.17204773128E+00 -0.51935399704E+01 -0.14427572502E+01  0.53929589828E+01  0.51100000000E-03 0.  1.
         12    1    3    3    0    0  0.36115872435E+01 -0.11799131763E+01 -0.42044452583E+01  0.56668436940E+01  0.00000000000E+00 0. -1.
</event>
<event>
 7    1  0.3742599E-009  0.4778726E+02  0.7816164E-02  0.1312668E+00
        -11   -1    0    0    0    0  0.00000000000E+00  0.00000000000E+00  0.45593999997E+02  0.45594000000E+02  0.51100000000E-03 0.  1.
         11   -1    0    0    0    0 -0.00000000000E+00 -0.00000000000E+00 -0.45593999997E+02  0.45594000000E+02  0.51100000000E-03 0. -1.
    9900012    2    1    2    0    0 -0.25320306590E+02 -0.22676658147E+02 -0.26986582005E+02  0.47787258545E+02  0.19999943011E+02 0.  0.
        -12    1    1    2    0    0  0.25320306590E+02  0.22676658147E+02  0.26986582005E+02  0.43400741455E+02  0.00000000000E+00 0.  1.
         11    1    3    3    0    0 -0.10754585828E+02 -0.50325843940E+01 -0.95525966293E+01  0.15239426650E+02  0.51100000000E-03 0.  1.
        -11    1    3    3    0    0 -0.14149597417E+02 -0.14994875018E+02 -0.20080661004E+02  0.28780033538E+02  0.51100000000E-03 0. -1.
        -12    1    3    3    0    0 -0.41612334504E+00 -0.26491987348E+01  0.26466756278E+01  0.37677983563E+01  0.00000000000E+00 0.  1.
</event>
<event>
 7    1  0.3742599E-009  0.4778727E+02  0.7816164E-02  0.1312668E+00
        -11   -1    0    0    0    0  0.00000000000E+00  0.00000000000E+00  0.45593999997E+02  0.45594000000E+02  0.51100000000E-03 0.  1.
         11   -1    0    0    0    0 -0.00000000000E+00 -0.00000000000E+00 -0.45593999997E+02  0.45594000000E+02  0.51100000000E-03 0. -1.
    9900012    2    1    2    0    0 -0.12991527333E+02  0.63220996561E+01 -0.40925231220E+02  0.47787271009E+02  0.19999999839E+02 0.  0.
        -12    1    1    2    0    0  0.12991527333E+02 -0.63220996561E+01  0.40925231220E+02  0.43400728991E+02  0.00000000000E+00 0.  1.
         11    1    3    3    0    0 -0.19348510691E+01 -0.33543142826E+01 -0.89538550294E+01  0.97553366479E+01  0.51100000000E-03 0. -1.
        -11    1    3    3    0    0 -0.99581875160E+01  0.52647841469E+01 -0.31509263507E+02  0.33462174731E+02  0.51100000000E-03 0.  1.
        -12    1    3    3    0    0 -0.10984887475E+01  0.44116297917E+01 -0.46211268436E+00  0.45697596305E+01  0.00000000000E+00 0.  1.
</event>
<event>
 7    1  0.3742599E-009  0.4778727E+02  0.7816164E-02  0.1312668E+00
        -11   -1    0    0    0    0  0.00000000000E+00  0.00000000000E+00  0.45593999997E+02  0.45594000000E+02  0.51100000000E-03 0.  1.
         11   -1    0    0    0    0 -0.00000000000E+00 -0.00000000000E+00 -0.45593999997E+02  0.45594000000E+02  0.51100000000E-03 0. -1.
    9900012    2    1    2    0    0  0.39478024875E+02  0.66542424384E+01 -0.16757981490E+02  0.47787270351E+02  0.19999996839E+02 0.  0.
        -12    1    1    2    0    0 -0.39478024875E+02 -0.66542424384E+01  0.16757981490E+02  0.43400729649E+02  0.00000000000E+00 0.  1.
         11    1    3    3    0    0  0.22413504663E+02  0.34909256276E+01 -0.52350106896E+01  0.23279971868E+02  0.51100000000E-03 0. -1.
        -11    1    3    3    0    0  0.18681823653E+02  0.39472611075E+01 -0.83066305349E+01  0.20822860427E+02  0.51100000000E-03 0.  1.
        -12    1    3    3    0    0 -0.16173034413E+01 -0.78394429672E+00 -0.32163402656E+01  0.36844380557E+01  0.00000000000E+00 0.  1.
</event>
<event>
 7    1  0.3742599E-009  0.4778728E+02  0.7816164E-02  0.1312668E+00
        -11   -1    0    0    0    0  0.00000000000E+00  0.00000000000E+00  0.45593999997E+02  0.45594000000E+02  0.51100000000E-03 0.  1.
         11   -1    0    0    0    0 -0.00000000000E+00 -0.00000000000E+00 -0.45593999997E+02  0.45594000000E+02  0.51100000000E-03 0. -1.
    9900012    2    1    2    0    0  0.33289362642E+02 -0.19015337979E+02 -0.20343497898E+02  0.47787278229E+02  0.20000032756E+02 0.  0.
        -12    1    1    2    0    0 -0.33289362642E+02  0.19015337979E+02  0.20343497898E+02  0.43400721771E+02  0.00000000000E+00 0.  1.
         11    1    3    3    0    0  0.17385679936E+02 -0.48861584697E+01 -0.14056965674E+02  0.22885250614E+02  0.51100000000E-03 0. -1.
        -11    1    3    3    0    0  0.13301623254E+02 -0.12602185930E+02 -0.93767154020E+01  0.20583271445E+02  0.51100000000E-03 0.  1.
         12    1    3    3    0    0  0.26020594519E+01 -0.15269935790E+01  0.30901831780E+01  0.43187561699E+01  0.00000000000E+00 0. -1.
</event>
<event>
 7    1  0.3742599E-009  0.4778727E+02  0.7816164E-02  0.1312668E+00
        -11   -1    0    0    0    0  0.00000000000E+00  0.00000000000E+00  0.45593999997E+02  0.45594000000E+02  0.51100000000E-03 0.  1.
         11   -1    0    0    0    0 -0.00000000000E+00 -0.00000000000E+00 -0.45593999997E+02  0.45594000000E+02  0.51100000000E-03 0. -1.
    9900012    2    1    2    0    0  0.16966643786E+02  0.31800175419E+02 -0.24176539111E+02  0.47787271879E+02  0.20000003806E+02 0.  0.
        -12    1    1    2    0    0 -0.16966643786E+02 -0.31800175419E+02  0.24176539111E+02  0.43400728121E+02  0.00000000000E+00 0.  1.
         11    1    3    3    0    0  0.10854980856E+02  0.27851034650E+02 -0.24313133919E+02  0.38531016359E+02  0.51100000000E-03 0. -1.
        -11    1    3    3    0    0  0.11468413136E+01  0.41307066281E+01  0.89740228629E-01  0.42878941004E+01  0.51100000000E-03 0.  1.
        -12    1    3    3    0    0  0.49648216167E+01 -0.18156585903E+00  0.46854579429E-01  0.49683614199E+01  0.00000000000E+00 0.  1.
</event>
<event>
 7    1  0.3742599E-009  0.4778727E+02  0.7816164E-02  0.1312668E+00
        -11   -1    0    0    0    0  0.00000000000E+00  0.00000000000E+00  0.45593999997E+02  0.45594000000E+02  0.51100000000E-03 0.  1.
         11   -1    0    0    0    0 -0.00000000000E+00 -0.00000000000E+00 -0.45593999997E+02  0.45594000000E+02  0.51100000000E-03 0. -1.
    9900012    2    1    2    0    0  0.33485895940E+02 -0.14066908778E+01 -0.27574249127E+02  0.47787271653E+02  0.20000002776E+02 0.  0.
        -12    1    1    2    0    0 -0.33485895940E+02  0.14066908778E+01  0.27574249127E+02  0.43400728347E+02  0.00000000000E+00 0.  1.
         11    1    3    3    0    0  0.57690975744E+00  0.65581732982E+00 -0.98386668025E+01  0.98773622972E+01  0.51100000000E-03 0. -1.
        -11    1    3    3    0    0  0.34098692451E+01  0.70309660444E+00 -0.21388217405E+00  0.34881655564E+01  0.51100000000E-03 0.  1.
         12    1    3    3    0    0  0.29499116937E+02 -0.27656048121E+01 -0.17521700150E+02  0.34421743800E+02  0.00000000000E+00 0. -1.
</event>
<event>
 7    1  0.3742599E-009  0.4778727E+02  0.7816164E-02  0.1312668E+00
        -11   -1    0    0    0    0  0.00000000000E+00  0.00000000000E+00  0.45593999997E+02  0.45594000000E+02  0.51100000000E-03 0. -1.
         11   -1    0    0    0    0 -0.00000000000E+00 -0.00000000000E+00 -0.45593999997E+02  0.45594000000E+02  0.51100000000E-03 0.  1.
    9900012    2    1    2    0    0  0.43994421926E+01 -0.14008078585E+01  0.43154446409E+02  0.47787267297E+02  0.19999982914E+02 0.  0.
        -12    1    1    2    0    0 -0.43994421926E+01  0.14008078585E+01 -0.43154446409E+02  0.43400732703E+02  0.00000000000E+00 0.  1.
         11    1    3    3    0    0  0.83649035721E+00  0.51402440637E+01  0.11347560953E+02  0.12485550248E+02  0.51100000000E-03 0. -1.
        -11    1    3    3    0    0  0.13008110757E+01 -0.10994210193E+01  0.28486907373E+02  0.28537777208E+02  0.51100000000E-03 0.  1.
        -12    1    3    3    0    0  0.22621407597E+01 -0.54416309028E+01  0.33199780835E+01  0.67639398411E+01  0.00000000000E+00 0.  1.
</event>
<event>
 7    1  0.3742599E-009  0.4778727E+02  0.7816164E-02  0.1312668E+00
        -11   -1    0    0    0    0  0.00000000000E+00  0.00000000000E+00  0.45593999997E+02  0.45594000000E+02  0.51100000000E-03 0.  1.
         11   -1    0    0    0    0 -0.00000000000E+00 -0.00000000000E+00 -0.45593999997E+02  0.45594000000E+02  0.51100000000E-03 0. -1.
    9900012    2    1    2    0    0  0.22694639987E+02  0.27945424106E+02 -0.24241074001E+02  0.47787273263E+02  0.20000010114E+02 0.  0.
        -12    1    1    2    0    0 -0.22694639987E+02 -0.27945424106E+02  0.24241074001E+02  0.43400726737E+02  0.00000000000E+00 0.  1.
         11    1    3    3    0    0  0.76260294593E+01  0.19876182823E+01 -0.86976252126E+01  0.11736934708E+02  0.51100000000E-03 0. -1.
        -11    1    3    3    0    0  0.11589133676E+02  0.98677448645E+01 -0.34056662933E+01  0.15597402708E+02  0.51100000000E-03 0.  1.
        -12    1    3    3    0    0  0.34794768512E+01  0.16090060959E+02 -0.12137782495E+02  0.20452935846E+02  0.00000000000E+00 0.  1.
</event>
<event>
 7    1  0.3742599E-009  0.4778727E+02  0.7816164E-02  0.1312668E+00
        -11   -1    0    0    0    0  0.00000000000E+00  0.00000000000E+00  0.45593999997E+02  0.45594000000E+02  0.51100000000E-03 0.  1.
         11   -1    0    0    0    0 -0.00000000000E+00 -0.00000000000E+00 -0.45593999997E+02  0.45594000000E+02  0.51100000000E-03 0. -1.
    9900012    2    1    2    0    0  0.27788193406E+01  0.20939008460E+02 -0.37913839267E+02  0.47787272815E+02  0.20000008072E+02 0.  0.
        -12    1    1    2    0    0 -0.27788193406E+01 -0.20939008460E+02  0.37913839267E+02  0.43400727185E+02  0.00000000000E+00 0.  1.
         11    1    3    3    0    0  0.20182832677E+00  0.10968772131E+02 -0.23038057001E+02  0.25516793830E+02  0.51100000000E-03 0. -1.
        -11    1    3    3    0    0  0.42685875443E+01  0.20913395870E+01 -0.13213363754E+02  0.14042347483E+02  0.51100000000E-03 0.  1.
         12    1    3    3    0    0 -0.16915965304E+01  0.78788967424E+01 -0.16624185132E+01  0.82281315019E+01  0.00000000000E+00 0. -1.
</event>
<event>
 7    1  0.3742599E-009  0.4778728E+02  0.7816164E-02  0.1312668E+00
        -11   -1    0    0    0    0  0.00000000000E+00  0.00000000000E+00  0.45593999997E+02  0.45594000000E+02  0.51100000000E-03 0.  1.
         11   -1    0    0    0    0 -0.00000000000E+00 -0.00000000000E+00 -0.45593999997E+02  0.45594000000E+02  0.51100000000E-03 0. -1.
    9900012    2    1    2    0    0 -0.18312093340E+02 -0.11751536154E+02 -0.37552516725E+02  0.47787275619E+02  0.20000020855E+02 0.  0.
        -12    1    1    2    0    0  0.18312093340E+02  0.11751536154E+02  0.37552516725E+02  0.43400724381E+02  0.00000000000E+00 0.  1.
         11    1    3    3    0    0 -0.10603593779E+02 -0.34536389245E+00 -0.15799856648E+02  0.19031314921E+02  0.51100000000E-03 0. -1.
        -11    1    3    3    0    0 -0.23716810185E+01  0.89665953637E+00  0.67580451874E+00  0.26240390977E+01  0.51100000000E-03 0.  1.
         12    1    3    3    0    0 -0.53368185420E+01 -0.12302831798E+02 -0.22428464596E+02  0.26131921600E+02  0.00000000000E+00 0. -1.
</event>
<event>
 7    1  0.3742599E-009  0.4778727E+02  0.7816164E-02  0.1312668E+00
        -11   -1    0    0    0    0  0.00000000000E+00  0.00000000000E+00  0.45593999997E+02  0.45594000000E+02  0.51100000000E-03 0.  1.
         11   -1    0    0    0    0 -0.00000000000E+00 -0.00000000000E+00 -0.45593999997E+02  0.45594000000E+02  0.51100000000E-03 0. -1.
    9900012    2    1    2    0    0 -0.28977103699E+02  0.76097983867E+00 -0.32301262196E+02  0.47787272257E+02  0.20000005530E+02 0.  0.
        -12    1    1    2    0    0  0.28977103699E+02 -0.76097983867E+00  0.32301262196E+02  0.43400727743E+02  0.00000000000E+00 0.  1.
         11    1    3    3    0    0 -0.12310523661E+02 -0.44701044393E+00 -0.13951077611E+02  0.18611323916E+02  0.51100000000E-03 0. -1.
        -11    1    3    3    0    0 -0.26923962353E+01 -0.11633357868E+01 -0.14066212948E+02  0.14368740188E+02  0.51100000000E-03 0.  1.
        -12    1    3    3    0    0 -0.13974183803E+02  0.23713260694E+01 -0.42839716379E+01  0.14807208153E+02  0.00000000000E+00 0.  1.
</event>
<event>
 7    1  0.3742599E-009  0.4778727E+02  0.7816164E-02  0.1312668E+00
        -11   -1    0    0    0    0  0.00000000000E+00  0.00000000000E+00  0.45593999997E+02  0.45594000000E+02  0.51100000000E-03 0.  1.
         11   -1    0    0    0    0 -0.00000000000E+00 -0.00000000000E+00 -0.45593999997E+02  0.45594000000E+02  0.51100000000E-03 0. -1.
    9900012    2    1    2    0    0 -0.17244036283E+02 -0.28220757509E+01 -0.39727853112E+02  0.47787271760E+02  0.20000003264E+02 0.  0.
        -12    1    1    2    0    0  0.17244036283E+02  0.28220757509E+01  0.39727853112E+02  0.43400728240E+02  0.00000000000E+00 0.  1.
         11    1    3    3    0    0 -0.69102499603E+01 -0.53050698864E+01 -0.28245552450E+02  0.29558527610E+02  0.51100000000E-03 0. -1.
        -11    1    3    3    0    0 -0.68714695379E+01 -0.15253780632E+01 -0.10795883918E+02  0.12887784204E+02  0.51100000000E-03 0.  1.
        -12    1    3    3    0    0 -0.34623167848E+01  0.40083721988E+01 -0.68641674343E+00  0.53409599463E+01  0.00000000000E+00 0.  1.
</event>
<event>
 7    1  0.3742599E-009  0.4778727E+02  0.7816164E-02  0.1312668E+00
        -11   -1    0    0    0    0  0.00000000000E+00  0.00000000000E+00  0.45593999997E+02  0.45594000000E+02  0.51100000000E-03 0.  1.
         11   -1    0    0    0    0 -0.00000000000E+00 -0.00000000000E+00 -0.45593999997E+02  0.45594000000E+02  0.51100000000E-03 0. -1.
    9900012    2    1    2    0    0 -0.19722342771E+02  0.20167329926E+02 -0.32983804137E+02  0.47787270328E+02  0.19999996734E+02 0.  0.
        -12    1    1    2    0    0  0.19722342771E+02 -0.20167329926E+02  0.32983804137E+02  0.43400729672E+02  0.00000000000E+00 0.  1.
         11    1    3    3    0    0 -0.10003522779E+02  0.65399674098E+01 -0.16008570528E+01  0.12058374072E+02  0.51100000000E-03 0. -1.
        -11    1    3    3    0    0 -0.27793919329E+00  0.87136698528E+00 -0.59366586367E+00  0.10903990265E+01  0.51100000000E-03 0.  1.
        -12    1    3    3    0    0 -0.94408807991E+01  0.12755995531E+02 -0.30789281220E+02  0.34638497229E+02  0.00000000000E+00 0.  1.
</event>
<event>
 7    1  0.3742599E-009  0.4778727E+02  0.7816164E-02  0.1312668E+00
        -11   -1    0    0    0    0  0.00000000000E+00  0.00000000000E+00  0.45593999997E+02  0.45594000000E+02  0.51100000000E-03 0.  1.
         11   -1    0    0    0    0 -0.00000000000E+00 -0.00000000000E+00 -0.45593999997E+02  0.45594000000E+02  0.51100000000E-03 0. -1.
    9900012    2    1    2    0    0  0.13384521080E+02  0.40360239768E+02  0.86907501001E+01  0.47787268486E+02  0.19999988335E+02 0.  0.
        -12    1    1    2    0    0 -0.13384521080E+02 -0.40360239768E+02 -0.86907501001E+01  0.43400731514E+02  0.00000000000E+00 0.  1.
         11    1    3    3    0    0  0.74508627067E+01  0.12166087440E+02  0.52292235448E+01  0.15194532497E+02  0.51100000000E-03 0. -1.
        -11    1    3    3    0    0  0.43396397565E+00 -0.57174533701E+00  0.32259820139E+01  0.33048718096E+01  0.51100000000E-03 0.  1.
         12    1    3    3    0    0  0.54996943978E+01  0.28765897665E+02  0.23554454136E+00  0.29287864179E+02  0.00000000000E+00 0. -1.
</event>
<event>
 7    1  0.3742599E-009  0.4778727E+02  0.7816164E-02  0.1312668E+00
        -11   -1    0    0    0    0  0.00000000000E+00  0.00000000000E+00  0.45593999997E+02  0.45594000000E+02  0.51100000000E-03 0.  1.
         11   -1    0    0    0    0 -0.00000000000E+00 -0.00000000000E+00 -0.45593999997E+02  0.45594000000E+02  0.51100000000E-03 0. -1.
    9900012    2    1    2    0    0 -0.62078497181E+01  0.42710642191E+02 -0.45702105577E+01  0.47787272138E+02  0.20000004984E+02 0.  0.
        -12    1    1    2    0    0  0.62078497181E+01 -0.42710642191E+02  0.45702105577E+01  0.43400727862E+02  0.00000000000E+00 0.  1.
         11    1    3    3    0    0 -0.48780092919E+01  0.21347588555E+02 -0.78358402141E+01  0.23257577343E+02  0.51100000000E-03 0. -1.
        -11    1    3    3    0    0  0.36388178380E+01  0.15798227786E+02  0.48118801087E+01  0.16910919161E+02  0.51100000000E-03 0.  1.
        -12    1    3    3    0    0 -0.49686582642E+01  0.55648258501E+01 -0.15462504524E+01  0.76187756332E+01  0.00000000000E+00 0.  1.
</event>
<event>
 7    1  0.3742599E-009  0.4778727E+02  0.7816164E-02  0.1312668E+00
        -11   -1    0    0    0    0  0.00000000000E+00  0.00000000000E+00  0.45593999997E+02  0.45594000000E+02  0.51100000000E-03 0.  1.
         11   -1    0    0    0    0 -0.00000000000E+00 -0.00000000000E+00 -0.45593999997E+02  0.45594000000E+02  0.51100000000E-03 0. -1.
    9900012    2    1    2    0    0  0.52557139871E+01 -0.10446840260E+02 -0.41795503250E+02  0.47787273130E+02  0.20000009510E+02 0.  0.
        -12    1    1    2    0    0 -0.52557139871E+01  0.10446840260E+02  0.41795503250E+02  0.43400726870E+02  0.00000000000E+00 0.  1.
         11    1    3    3    0    0 -0.23664514269E+01 -0.82007386324E+01 -0.10833694370E+02  0.13792068026E+02  0.51100000000E-03 0. -1.
        -11    1    3    3    0    0  0.58334997895E+00  0.13665210496E+01  0.48923032856E+00  0.15642965040E+01  0.51100000000E-03 0.  1.
         12    1    3    3    0    0  0.70388154350E+01 -0.36126226767E+01 -0.31451039208E+02  0.32430908600E+02  0.00000000000E+00 0. -1.
</event>
<event>
 7    1  0.3742599E-009  0.4778723E+02  0.7816164E-02  0.1312668E+00
        -11   -1    0    0    0    0  0.00000000000E+00  0.00000000000E+00  0.45593999997E+02  0.45594000000E+02  0.51100000000E-03 0. -1.
         11   -1    0    0    0    0 -0.00000000000E+00 -0.00000000000E+00 -0.45593999997E+02  0.45594000000E+02  0.51100000000E-03 0.  1.
    9900012    2    1    2    0    0  0.26315673477E+02 -0.92475426690E+01  0.33250495722E+02  0.47787226024E+02  0.19999794733E+02 0.  0.
        -12    1    1    2    0    0 -0.26315673477E+02  0.92475426690E+01 -0.33250495722E+02  0.43400773976E+02  0.00000000000E+00 0.  1.
         11    1    3    3    0    0  0.87102228411E+01  0.10438219319E+01  0.48204549188E+01  0.10009711887E+02  0.51100000000E-03 0. -1.
        -11    1    3    3    0    0  0.46285100626E+01 -0.84000341966E+01  0.47359984973E+01  0.10696418182E+02  0.51100000000E-03 0.  1.
         12    1    3    3    0    0  0.12976940574E+02 -0.18913304043E+01  0.23694042305E+02  0.27081095955E+02  0.00000000000E+00 0. -1.
</event>
<event>
 7    1  0.3742599E-009  0.4778727E+02  0.7816164E-02  0.1312668E+00
        -11   -1    0    0    0    0  0.00000000000E+00  0.00000000000E+00  0.45593999997E+02  0.45594000000E+02  0.51100000000E-03 0.  1.
         11   -1    0    0    0    0 -0.00000000000E+00 -0.00000000000E+00 -0.45593999997E+02  0.45594000000E+02  0.51100000000E-03 0. -1.
    9900012    2    1    2    0    0 -0.16466835228E+02 -0.40123826879E+02  0.15954067579E+01  0.47787268801E+02  0.19999989772E+02 0.  0.
        -12    1    1    2    0    0  0.16466835228E+02  0.40123826879E+02 -0.15954067579E+01  0.43400731199E+02  0.00000000000E+00 0.  1.
         11    1    3    3    0    0 -0.14033427506E+02 -0.22594371064E+02  0.92620547903E+00  0.26613916438E+02  0.51100000000E-03 0. -1.
        -11    1    3    3    0    0 -0.27551905057E+01 -0.10358838602E+02  0.59523880438E+01  0.12260813007E+02  0.51100000000E-03 0.  1.
         12    1    3    3    0    0  0.32178278338E+00 -0.71706172133E+01 -0.52831867650E+01  0.89125393561E+01  0.00000000000E+00 0. -1.
</event>
<event>
 7    1  0.3742599E-009  0.4778727E+02  0.7816164E-02  0.1312668E+00
        -11   -1    0    0    0    0  0.00000000000E+00  0.00000000000E+00  0.45593999997E+02  0.45594000000E+02  0.51100000000E-03 0.  1.
         11   -1    0    0    0    0 -0.00000000000E+00 -0.00000000000E+00 -0.45593999997E+02  0.45594000000E+02  0.51100000000E-03 0. -1.
    9900012    2    1    2    0    0  0.43133024703E+02  0.40067568539E+01 -0.26667874757E+01  0.47787266412E+02  0.19999978878E+02 0.  0.
        -12    1    1    2    0    0 -0.43133024703E+02 -0.40067568539E+01  0.26667874757E+01  0.43400733588E+02  0.00000000000E+00 0.  1.
         11    1    3    3    0    0  0.17828583264E+02  0.52319295462E+01 -0.11784726306E+01  0.18617740625E+02  0.51100000000E-03 0. -1.
        -11    1    3    3    0    0  0.26063654301E+02 -0.30456746486E+01 -0.33540134782E+01  0.26454481969E+02  0.51100000000E-03 0.  1.
        -12    1    3    3    0    0 -0.75921286147E+00  0.18205019563E+01  0.18656986330E+01  0.27150438176E+01  0.00000000000E+00 0.  1.
</event>
<event>
 7    1  0.3742599E-009  0.4778727E+02  0.7816164E-02  0.1312668E+00
        -11   -1    0    0    0    0  0.00000000000E+00  0.00000000000E+00  0.45593999997E+02  0.45594000000E+02  0.51100000000E-03 0. -1.
         11   -1    0    0    0    0 -0.00000000000E+00 -0.00000000000E+00 -0.45593999997E+02  0.45594000000E+02  0.51100000000E-03 0.  1.
    9900012    2    1    2    0    0  0.35689044457E+02  0.65521630004E+01  0.23811438676E+02  0.47787270212E+02  0.19999996206E+02 0.  0.
        -12    1    1    2    0    0 -0.35689044457E+02 -0.65521630004E+01 -0.23811438676E+02  0.43400729788E+02  0.00000000000E+00 0.  1.
         11    1    3    3    0    0  0.81864769848E+01 -0.32853580267E+01  0.19612398166E+01  0.90365062201E+01  0.51100000000E-03 0. -1.
        -11    1    3    3    0    0  0.12670567980E+02  0.73327791123E+01  0.35532571986E+01  0.15064480722E+02  0.51100000000E-03 0.  1.
         12    1    3    3    0    0  0.14831999492E+02  0.25047419148E+01  0.18296941661E+02  0.23686283270E+02  0.00000000000E+00 0. -1.
</event>
<event>
 7    1  0.3742599E-009  0.4778728E+02  0.7816164E-02  0.1312668E+00
        -11   -1    0    0    0    0  0.00000000000E+00  0.00000000000E+00  0.45593999997E+02  0.45594000000E+02  0.51100000000E-03 0.  1.
         11   -1    0    0    0    0 -0.00000000000E+00 -0.00000000000E+00 -0.45593999997E+02  0.45594000000E+02  0.51100000000E-03 0. -1.
    9900012    2    1    2    0    0 -0.40428699705E+02 -0.15766347837E+02 -0.75187844735E+00  0.47787276445E+02  0.20000024623E+02 0.  0.
        -12    1    1    2    0    0  0.40428699705E+02  0.15766347837E+02  0.75187844735E+00  0.43400723555E+02  0.00000000000E+00 0.  1.
         11    1    3    3    0    0 -0.13742095470E+02 -0.40451317504E+01 -0.32233643370E+01  0.14683267916E+02  0.51100000000E-03 0.  1.
        -11    1    3    3    0    0 -0.24646116937E+02 -0.45204209413E+01 -0.47197006174E+00  0.25061684731E+02  0.51100000000E-03 0. -1.
        -12    1    3    3    0    0 -0.20404872975E+01 -0.72007951449E+01  0.29434559514E+01  0.80423237978E+01  0.00000000000E+00 0.  1.
</event>
<event>
 7    1  0.3742599E-009  0.4778727E+02  0.7816164E-02  0.1312668E+00
        -11   -1    0    0    0    0  0.00000000000E+00  0.00000000000E+00  0.45593999997E+02  0.45594000000E+02  0.51100000000E-03 0.  1.
         11   -1    0    0    0    0 -0.00000000000E+00 -0.00000000000E+00 -0.45593999997E+02  0.45594000000E+02  0.51100000000E-03 0. -1.
    9900012    2    1    2    0    0  0.42769946018E+01 -0.40247898275E+02 -0.15666437571E+02  0.47787271152E+02  0.20000000491E+02 0.  0.
        -12    1    1    2    0    0 -0.42769946018E+01  0.40247898275E+02  0.15666437571E+02  0.43400728848E+02  0.00000000000E+00 0.  1.
         11    1    3    3    0    0  0.37817017827E+01 -0.33987520218E+01 -0.22387244336E+01  0.55555981703E+01  0.51100000000E-03 0. -1.
        -11    1    3    3    0    0  0.73896809099E+01 -0.10806529141E+02 -0.48080591664E+01  0.13946536819E+02  0.51100000000E-03 0.  1.
         12    1    3    3    0    0 -0.68943880908E+01 -0.26042617112E+02 -0.86196539711E+01  0.28285136163E+02  0.00000000000E+00 0. -1.
</event>
<event>
 7    1  0.3742599E-009  0.4778727E+02  0.7816164E-02  0.1312668E+00
        -11   -1    0    0    0    0  0.00000000000E+00  0.00000000000E+00  0.45593999997E+02  0.45594000000E+02  0.51100000000E-03 0. -1.
         11   -1    0    0    0    0 -0.00000000000E+00 -0.00000000000E+00 -0.45593999997E+02  0.45594000000E+02  0.51100000000E-03 0.  1.
    9900012    2    1    2    0    0 -0.31915050152E+02 -0.54300519015E+01 -0.28906190769E+02  0.47787265506E+02  0.19999974749E+02 0.  0.
        -12    1    1    2    0    0  0.31915050152E+02  0.54300519015E+01  0.28906190769E+02  0.43400734494E+02  0.00000000000E+00 0.  1.
         11    1    3    3    0    0 -0.86117664756E+00 -0.23978615402E+00 -0.35709562073E+01  0.36811480700E+01  0.51100000000E-03 0. -1.
        -11    1    3    3    0    0 -0.67644938245E+01 -0.25372853480E+01 -0.16692285478E+02  0.18188693971E+02  0.51100000000E-03 0.  1.
         12    1    3    3    0    0 -0.24289379679E+02 -0.26529803994E+01 -0.86429490841E+01  0.25917423465E+02  0.00000000000E+00 0. -1.
</event>
<event>
 7    1  0.3742599E-009  0.4778728E+02  0.7816164E-02  0.1312668E+00
        -11   -1    0    0    0    0  0.00000000000E+00  0.00000000000E+00  0.45593999997E+02  0.45594000000E+02  0.51100000000E-03 0. -1.
         11   -1    0    0    0    0 -0.00000000000E+00 -0.00000000000E+00 -0.45593999997E+02  0.45594000000E+02  0.51100000000E-03 0.  1.
    9900012    2    1    2    0    0 -0.19457529119E+02 -0.29964087214E+02 -0.24641039158E+02  0.47787276817E+02  0.20000026321E+02 0.  0.
        -12    1    1    2    0    0  0.19457529119E+02  0.29964087214E+02  0.24641039158E+02  0.43400723183E+02  0.00000000000E+00 0.  1.
         11    1    3    3    0    0 -0.76803882197E+01 -0.20607269693E+02 -0.68369254764E+01  0.23030229648E+02  0.51100000000E-03 0. -1.
        -11    1    3    3    0    0 -0.15982688794E+01 -0.19163186289E+01  0.48598567757E+00  0.25422279280E+01  0.51100000000E-03 0.  1.
        -12    1    3    3    0    0 -0.10178872020E+02 -0.74404988925E+01 -0.18290099360E+02  0.22214819242E+02  0.00000000000E+00 0.  1.
</event>
<event>
 7    1  0.3742599E-009  0.4778728E+02  0.7816164E-02  0.1312668E+00
        -11   -1    0    0    0    0  0.00000000000E+00  0.00000000000E+00  0.45593999997E+02  0.45594000000E+02  0.51100000000E-03 0. -1.
         11   -1    0    0    0    0 -0.00000000000E+00 -0.00000000000E+00 -0.45593999997E+02  0.45594000000E+02  0.51100000000E-03 0.  1.
    9900012    2    1    2    0    0  0.39663048026E+00  0.41750243129E+02 -0.11848310832E+02  0.47787278962E+02  0.20000036098E+02 0.  0.
        -12    1    1    2    0    0 -0.39663048026E+00 -0.41750243129E+02  0.11848310832E+02  0.43400721038E+02  0.00000000000E+00 0.  1.
         11    1    3    3    0    0  0.40162137717E-01  0.19706317087E+02 -0.16623037499E+00  0.19707059114E+02  0.51100000000E-03 0. -1.
        -11    1    3    3    0    0  0.60451939202E+01  0.14049338223E+02 -0.45736428600E+01  0.15963911905E+02  0.51100000000E-03 0.  1.
        -12    1    3    3    0    0 -0.56887255777E+01  0.79945878189E+01 -0.71084375969E+01  0.12116307943E+02  0.00000000000E+00 0.  1.
</event>
<event>
 7    1  0.3742599E-009  0.4778727E+02  0.7816164E-02  0.1312668E+00
        -11   -1    0    0    0    0  0.00000000000E+00  0.00000000000E+00  0.45593999997E+02  0.45594000000E+02  0.51100000000E-03 0.  1.
         11   -1    0    0    0    0 -0.00000000000E+00 -0.00000000000E+00 -0.45593999997E+02  0.45594000000E+02  0.51100000000E-03 0. -1.
    9900012    2    1    2    0    0 -0.36333204228E+02 -0.19450471613E+02 -0.13608839277E+02  0.47787273256E+02  0.20000010084E+02 0.  0.
        -12    1    1    2    0    0  0.36333204228E+02  0.19450471613E+02  0.13608839277E+02  0.43400726744E+02  0.00000000000E+00 0.  1.
         11    1    3    3    0    0 -0.79635394534E+01 -0.86950729947E+01  0.18183661509E+01  0.11930159711E+02  0.51100000000E-03 0. -1.
        -11    1    3    3    0    0 -0.86287609071E+00  0.92517036571E+00 -0.34280218614E+01  0.36540155305E+01  0.51100000000E-03 0.  1.
         12    1    3    3    0    0 -0.27506788684E+02 -0.11680568984E+02 -0.11999183567E+02  0.32203098015E+02  0.00000000000E+00 0. -1.
</event>
<event>
 7    1  0.3742599E-009  0.4778727E+02  0.7816164E-02  0.1312668E+00
        -11   -1    0    0    0    0  0.00000000000E+00  0.00000000000E+00  0.45593999997E+02  0.45594000000E+02  0.51100000000E-03 0.  1.
         11   -1    0    0    0    0 -0.00000000000E+00 -0.00000000000E+00 -0.45593999997E+02  0.45594000000E+02  0.51100000000E-03 0. -1.
    9900012    2    1    2    0    0 -0.30491038982E+02 -0.18128280116E+02  0.25005707180E+02  0.47787269710E+02  0.19999993914E+02 0.  0.
        -12    1    1    2    0    0  0.30491038982E+02  0.18128280116E+02 -0.25005707180E+02  0.43400730290E+02  0.00000000000E+00 0.  1.
         11    1    3    3    0    0 -0.17117506760E+02 -0.10895495376E+02  0.15685307252E+02  0.25646631768E+02  0.51100000000E-03 0. -1.
        -11    1    3    3    0    0 -0.11709680319E+02 -0.10507667999E+02  0.96432114816E+01  0.18453163087E+02  0.51100000000E-03 0.  1.
        -12    1    3    3    0    0 -0.16638519019E+01  0.32748832588E+01 -0.32281155338E+00  0.36874748554E+01  0.00000000000E+00 0.  1.
</event>
<event>
 7    1  0.3742599E-009  0.4778727E+02  0.7816164E-02  0.1312668E+00
        -11   -1    0    0    0    0  0.00000000000E+00  0.00000000000E+00  0.45593999997E+02  0.45594000000E+02  0.51100000000E-03 0.  1.
         11   -1    0    0    0    0 -0.00000000000E+00 -0.00000000000E+00 -0.45593999997E+02  0.45594000000E+02  0.51100000000E-03 0. -1.
    9900012    2    1    2    0    0 -0.35238723647E+02 -0.23648744850E+02 -0.90880505479E+01  0.47787269130E+02  0.19999991273E+02 0.  0.
        -12    1    1    2    0    0  0.35238723647E+02  0.23648744850E+02  0.90880505479E+01  0.43400730870E+02  0.00000000000E+00 0.  1.
         11    1    3    3    0    0 -0.18240941265E+02 -0.11967396527E+02 -0.64181521531E+01  0.22740782643E+02  0.51100000000E-03 0. -1.
        -11    1    3    3    0    0 -0.13028465245E+02 -0.38323219966E+01 -0.69603785679E+01  0.15260225051E+02  0.51100000000E-03 0.  1.
         12    1    3    3    0    0 -0.39693171368E+01 -0.78490263260E+01  0.42904801730E+01  0.97862614370E+01  0.00000000000E+00 0. -1.
</event>
<event>
 7    1  0.3742599E-009  0.4778728E+02  0.7816164E-02  0.1312668E+00
        -11   -1    0    0    0    0  0.00000000000E+00  0.00000000000E+00  0.45593999997E+02  0.45594000000E+02  0.51100000000E-03 0. -1.
         11   -1    0    0    0    0 -0.00000000000E+00 -0.00000000000E+00 -0.45593999997E+02  0.45594000000E+02  0.51100000000E-03 0.  1.
    9900012    2    1    2    0    0 -0.86328232078E+01 -0.30210301306E+02  0.29940522624E+02  0.47787276082E+02  0.20000022970E+02 0.  0.
        -12    1    1    2    0    0  0.86328232078E+01  0.30210301306E+02 -0.29940522624E+02  0.43400723918E+02  0.00000000000E+00 0.  1.
         11    1    3    3    0    0  0.16741047062E+01 -0.64780716207E+01  0.12070268098E+02  0.13800703269E+02  0.51100000000E-03 0. -1.
        -11    1    3    3    0    0  0.10171639408E+01 -0.56393766886E+01 -0.59782114162E+00  0.57614739691E+01  0.51100000000E-03 0.  1.
        -12    1    3    3    0    0 -0.11324091855E+02 -0.18092852997E+02  0.18468075668E+02  0.28225098845E+02  0.00000000000E+00 0.  1.
</event>
<event>
 7    1  0.3742599E-009  0.4778727E+02  0.7816164E-02  0.1312668E+00
        -11   -1    0    0    0    0  0.00000000000E+00  0.00000000000E+00  0.45593999997E+02  0.45594000000E+02  0.51100000000E-03 0. -1.
         11   -1    0    0    0    0 -0.00000000000E+00 -0.00000000000E+00 -0.45593999997E+02  0.45594000000E+02  0.51100000000E-03 0.  1.
    9900012    2    1    2    0    0 -0.19067324735E+02 -0.38708478429E+02 -0.46598432898E+01  0.47787270579E+02  0.19999997878E+02 0.  0.
        -12    1    1    2    0    0  0.19067324735E+02  0.38708478429E+02  0.46598432898E+01  0.43400729421E+02  0.00000000000E+00 0.  1.
         11    1    3    3    0    0 -0.79617343401E+01 -0.20682133035E+02 -0.10098749208E+01  0.22184672371E+02  0.51100000000E-03 0. -1.
        -11    1    3    3    0    0 -0.36746236143E+01 -0.14018304235E+02 -0.75063935916E+01  0.16320589982E+02  0.51100000000E-03 0.  1.
         12    1    3    3    0    0 -0.74309667802E+01 -0.40080411580E+01  0.38564252227E+01  0.92820082262E+01  0.00000000000E+00 0. -1.
</event>
<event>
 7    1  0.3742599E-009  0.4778727E+02  0.7816164E-02  0.1312668E+00
        -11   -1    0    0    0    0  0.00000000000E+00  0.00000000000E+00  0.45593999997E+02  0.45594000000E+02  0.51100000000E-03 0. -1.
         11   -1    0    0    0    0 -0.00000000000E+00 -0.00000000000E+00 -0.45593999997E+02  0.45594000000E+02  0.51100000000E-03 0.  1.
    9900012    2    1    2    0    0  0.37597913611E+02 -0.18765167710E+02  0.10857656471E+02  0.47787270385E+02  0.19999996993E+02 0.  0.
        -12    1    1    2    0    0 -0.37597913611E+02  0.18765167710E+02 -0.10857656471E+02  0.43400729615E+02  0.00000000000E+00 0.  1.
         11    1    3    3    0    0  0.23970978955E+02 -0.11524402309E+02  0.11260379748E+02  0.28882794757E+02  0.51100000000E-03 0. -1.
        -11    1    3    3    0    0  0.63560869245E+01 -0.28912720372E+01  0.52353880111E+01  0.87274614220E+01  0.51100000000E-03 0.  1.
        -12    1    3    3    0    0  0.72708477312E+01 -0.43494933639E+01 -0.56381112879E+01  0.10177014206E+02  0.00000000000E+00 0.  1.
</event>
<event>
 7    1  0.3742599E-009  0.4778727E+02  0.7816164E-02  0.1312668E+00
        -11   -1    0    0    0    0  0.00000000000E+00  0.00000000000E+00  0.45593999997E+02  0.45594000000E+02  0.51100000000E-03 0.  1.
         11   -1    0    0    0    0 -0.00000000000E+00 -0.00000000000E+00 -0.45593999997E+02  0.45594000000E+02  0.51100000000E-03 0. -1.
    9900012    2    1    2    0    0  0.38758360225E+02 -0.19516134866E+02  0.73032680595E+00  0.47787269767E+02  0.19999994177E+02 0.  0.
        -12    1    1    2    0    0 -0.38758360225E+02  0.19516134866E+02 -0.73032680595E+00  0.43400730233E+02  0.00000000000E+00 0.  1.
         11    1    3    3    0    0  0.61099397827E+01  0.22585178366E+01  0.11991205911E+00  0.65151090650E+01  0.51100000000E-03 0. -1.
        -11    1    3    3    0    0  0.60212594212E+01  0.11377391709E+01  0.44095884655E+00  0.61436520412E+01  0.51100000000E-03 0.  1.
         12    1    3    3    0    0  0.26627161022E+02 -0.22912391874E+02  0.16945590029E+00  0.35128508661E+02  0.00000000000E+00 0. -1.
</event>
<event>
 7    1  0.3742599E-009  0.4778727E+02  0.7816164E-02  0.1312668E+00
        -11   -1    0    0    0    0  0.00000000000E+00  0.00000000000E+00  0.45593999997E+02  0.45594000000E+02  0.51100000000E-03 0. -1.
         11   -1    0    0    0    0 -0.00000000000E+00 -0.00000000000E+00 -0.45593999997E+02  0.45594000000E+02  0.51100000000E-03 0.  1.
    9900012    2    1    2    0    0 -0.32727838839E+01  0.20338556953E+02  0.38200201891E+02  0.47787269156E+02  0.19999991389E+02 0.  0.
        -12    1    1    2    0    0  0.32727838839E+01 -0.20338556953E+02 -0.38200201891E+02  0.43400730844E+02  0.00000000000E+00 0.  1.
         11    1    3    3    0    0 -0.15442390923E+01  0.60328677160E+01  0.50240380386E+01  0.80013202491E+01  0.51100000000E-03 0. -1.
        -11    1    3    3    0    0 -0.12273593108E+01  0.14938225960E+01 -0.17331586873E+01  0.25964891917E+01  0.51100000000E-03 0.  1.
         12    1    3    3    0    0 -0.50118548081E+00  0.12811866641E+02  0.34909322540E+02  0.37189459715E+02  0.00000000000E+00 0. -1.
</event>
<event>
 7    1  0.3742599E-009  0.4778727E+02  0.7816164E-02  0.1312668E+00
        -11   -1    0    0    0    0  0.00000000000E+00  0.00000000000E+00  0.45593999997E+02  0.45594000000E+02  0.51100000000E-03 0. -1.
         11   -1    0    0    0    0 -0.00000000000E+00 -0.00000000000E+00 -0.45593999997E+02  0.45594000000E+02  0.51100000000E-03 0.  1.
    9900012    2    1    2    0    0 -0.18818462041E+01 -0.71124453245E+01  0.42772596988E+02  0.47787271011E+02  0.19999999849E+02 0.  0.
        -12    1    1    2    0    0  0.18818462041E+01  0.71124453245E+01 -0.42772596988E+02  0.43400728989E+02  0.00000000000E+00 0.  1.
         11    1    3    3    0    0 -0.39202400178E+01  0.10520857868E+01  0.22364033840E+02  0.22729390140E+02  0.51100000000E-03 0.  1.
        -11    1    3    3    0    0 -0.46183222611E+01 -0.52220789956E+01  0.12481976120E+02  0.14296808653E+02  0.51100000000E-03 0. -1.
         12    1    3    3    0    0  0.66567160748E+01 -0.29424521158E+01  0.79265870283E+01  0.10761072218E+02  0.00000000000E+00 0. -1.
</event>
<event>
 7    1  0.3742599E-009  0.4778727E+02  0.7816164E-02  0.1312668E+00
        -11   -1    0    0    0    0  0.00000000000E+00  0.00000000000E+00  0.45593999997E+02  0.45594000000E+02  0.51100000000E-03 0.  1.
         11   -1    0    0    0    0 -0.00000000000E+00 -0.00000000000E+00 -0.45593999997E+02  0.45594000000E+02  0.51100000000E-03 0. -1.
    9900012    2    1    2    0    0  0.21800772601E+02 -0.15257425903E+02 -0.34286447908E+02  0.47787271419E+02  0.20000001707E+02 0.  0.
        -12    1    1    2    0    0 -0.21800772601E+02  0.15257425903E+02  0.34286447908E+02  0.43400728581E+02  0.00000000000E+00 0.  1.
         11    1    3    3    0    0  0.34849190539E+01 -0.61611602481E+01 -0.14823041419E+02  0.16426415116E+02  0.51100000000E-03 0. -1.
        -11    1    3    3    0    0  0.11803762042E+01  0.28652505682E+01 -0.52215631217E+01  0.60718753691E+01  0.51100000000E-03 0.  1.
         12    1    3    3    0    0  0.17135477343E+02 -0.11961516223E+02 -0.14241843368E+02  0.25288980933E+02  0.00000000000E+00 0. -1.
</event>
<event>
 7    1  0.3742599E-009  0.4778725E+02  0.7816164E-02  0.1312668E+00
        -11   -1    0    0    0    0  0.00000000000E+00  0.00000000000E+00  0.45593999997E+02  0.45594000000E+02  0.51100000000E-03 0.  1.
         11   -1    0    0    0    0 -0.00000000000E+00 -0.00000000000E+00 -0.45593999997E+02  0.45594000000E+02  0.51100000000E-03 0. -1.
    9900012    2    1    2    0    0  0.34466758971E+01  0.42201395032E+02 -0.95282661441E+01  0.47787249165E+02  0.19999900241E+02 0.  0.
        -12    1    1    2    0    0 -0.34466758971E+01 -0.42201395032E+02  0.95282661441E+01  0.43400750835E+02  0.00000000000E+00 0.  1.
         11    1    3    3    0    0  0.61675878649E+01  0.35048309000E+02 -0.12572619703E+02  0.37742467729E+02  0.51100000000E-03 0. -1.
        -11    1    3    3    0    0  0.10101206109E+01 -0.95632641718E-01  0.13983844783E+01  0.17277061848E+01  0.51100000000E-03 0.  1.
        -12    1    3    3    0    0 -0.37310325787E+01  0.72487186740E+01  0.16459690805E+01  0.83170752511E+01  0.00000000000E+00 0.  1.
</event>
<event>
 7    1  0.3742599E-009  0.4778727E+02  0.7816164E-02  0.1312668E+00
        -11   -1    0    0    0    0  0.00000000000E+00  0.00000000000E+00  0.45593999997E+02  0.45594000000E+02  0.51100000000E-03 0. -1.
         11   -1    0    0    0    0 -0.00000000000E+00 -0.00000000000E+00 -0.45593999997E+02  0.45594000000E+02  0.51100000000E-03 0.  1.
    9900012    2    1    2    0    0 -0.35597598207E+02 -0.17385528354E+02  0.17725062129E+02  0.47787269341E+02  0.19999992235E+02 0.  0.
        -12    1    1    2    0    0  0.35597598207E+02  0.17385528354E+02 -0.17725062129E+02  0.43400730659E+02  0.00000000000E+00 0.  1.
         11    1    3    3    0    0 -0.77186906064E+01 -0.19828288266E+00  0.45777416318E+01  0.89762586575E+01  0.51100000000E-03 0. -1.
        -11    1    3    3    0    0 -0.15437782114E+02 -0.85698697258E+01 -0.15371183299E+01  0.17723727507E+02  0.51100000000E-03 0.  1.
        -12    1    3    3    0    0 -0.12441125486E+02 -0.86173757455E+01  0.14684438827E+02  0.21087283176E+02  0.00000000000E+00 0.  1.
</event>
<event>
 7    1  0.3742599E-009  0.4778727E+02  0.7816164E-02  0.1312668E+00
        -11   -1    0    0    0    0  0.00000000000E+00  0.00000000000E+00  0.45593999997E+02  0.45594000000E+02  0.51100000000E-03 0. -1.
         11   -1    0    0    0    0 -0.00000000000E+00 -0.00000000000E+00 -0.45593999997E+02  0.45594000000E+02  0.51100000000E-03 0.  1.
    9900012    2    1    2    0    0 -0.23044922315E+02 -0.36518806133E+02 -0.43510471326E+01  0.47787271238E+02  0.20000000884E+02 0.  0.
        -12    1    1    2    0    0  0.23044922315E+02  0.36518806133E+02  0.43510471326E+01  0.43400728762E+02  0.00000000000E+00 0.  1.
         11    1    3    3    0    0 -0.43943100983E+01 -0.19341776909E+02  0.19004109485E+01  0.19925507705E+02  0.51100000000E-03 0. -1.
        -11    1    3    3    0    0 -0.16261819440E+01 -0.72269555016E+01 -0.22404570752E+01  0.77390569002E+01  0.51100000000E-03 0.  1.
        -12    1    3    3    0    0 -0.17024430273E+02 -0.99500737221E+01 -0.40110010059E+01  0.20122706633E+02  0.00000000000E+00 0.  1.
</event>
<event>
 7    1  0.3742599E-009  0.4778721E+02  0.7816164E-02  0.1312668E+00
        -11   -1    0    0    0    0  0.00000000000E+00  0.00000000000E+00  0.45593999997E+02  0.45594000000E+02  0.51100000000E-03 0.  1.
         11   -1    0    0    0    0 -0.00000000000E+00 -0.00000000000E+00 -0.45593999997E+02  0.45594000000E+02  0.51100000000E-03 0. -1.
    9900012    2    1    2    0    0 -0.49191559486E+00  0.10860955424E+02 -0.42016972336E+02  0.47787213164E+02  0.19999736098E+02 0.  0.
        -12    1    1    2    0    0  0.49191559486E+00 -0.10860955424E+02  0.42016972336E+02  0.43400786836E+02  0.00000000000E+00 0.  1.
         11    1    3    3    0    0 -0.19221065490E+01 -0.16140922704E+01 -0.12270796258E+02  0.12524864411E+02  0.51100000000E-03 0. -1.
        -11    1    3    3    0    0 -0.63125110904E+01  0.64282397986E+01 -0.16072572387E+02  0.18425461909E+02  0.51100000000E-03 0.  1.
         12    1    3    3    0    0  0.77427020446E+01  0.60468078958E+01 -0.13673603692E+02  0.16836886844E+02  0.00000000000E+00 0. -1.
</event>
<event>
 7    1  0.3746974E-009  0.4778727E+02  0.7816164E-02  0.1312668E+00
        -11   -1    0    0    0    0  0.00000000000E+00  0.00000000000E+00  0.45593999997E+02  0.45594000000E+02  0.51100000000E-03 0. -1.
         11   -1    0    0    0    0 -0.00000000000E+00 -0.00000000000E+00 -0.45593999997E+02  0.45594000000E+02  0.51100000000E-03 0.  1.
    9900012    2    1    2    0    0 -0.20717057850E+01 -0.12758106018E+02  0.41431419698E+02  0.47787265303E+02  0.19999973822E+02 0.  0.
        -12    1    1    2    0    0  0.20717057850E+01  0.12758106018E+02 -0.41431419698E+02  0.43400734697E+02  0.00000000000E+00 0.  1.
         11    1    3    3    0    0  0.18239777082E-01 -0.50949057030E+01  0.26674083164E+02  0.27156308839E+02  0.51100000000E-03 0. -1.
        -11    1    3    3    0    0 -0.45215260889E-01  0.31374620295E+01  0.51559501367E+01  0.60356884014E+01  0.51100000000E-03 0.  1.
        -12    1    3    3    0    0 -0.20447303012E+01 -0.10800662344E+02  0.96013863974E+01  0.14595268063E+02  0.00000000000E+00 0.  1.
</event>
<event>
 7    1  0.3742599E-009  0.4778728E+02  0.7816164E-02  0.1312668E+00
        -11   -1    0    0    0    0  0.00000000000E+00  0.00000000000E+00  0.45593999997E+02  0.45594000000E+02  0.51100000000E-03 0.  1.
         11   -1    0    0    0    0 -0.00000000000E+00 -0.00000000000E+00 -0.45593999997E+02  0.45594000000E+02  0.51100000000E-03 0. -1.
    9900012    2    1    2    0    0  0.41156393992E+02  0.69383578590E+00 -0.13758361197E+02  0.47787277917E+02  0.20000031333E+02 0.  0.
        -12    1    1    2    0    0 -0.41156393992E+02 -0.69383578590E+00  0.13758361197E+02  0.43400722083E+02  0.00000000000E+00 0.  1.
         11    1    3    3    0    0  0.36171091383E+00  0.31531415123E+00 -0.31674634772E+01  0.32036046791E+01  0.51100000000E-03 0. -1.
        -11    1    3    3    0    0  0.38499209935E+01 -0.28200981030E+01  0.23344529135E+01  0.53126749979E+01  0.51100000000E-03 0.  1.
        -12    1    3    3    0    0  0.36944762085E+02  0.31986197377E+01 -0.12925350633E+02  0.39270998239E+02  0.00000000000E+00 0.  1.
</event>
<event>
 7    1  0.3742599E-009  0.4778727E+02  0.7816164E-02  0.1312668E+00
        -11   -1    0    0    0    0  0.00000000000E+00  0.00000000000E+00  0.45593999997E+02  0.45594000000E+02  0.51100000000E-03 0.  1.
         11   -1    0    0    0    0 -0.00000000000E+00 -0.00000000000E+00 -0.45593999997E+02  0.45594000000E+02  0.51100000000E-03 0. -1.
    9900012    2    1    2    0    0 -0.43298467658E+02  0.22845493875E+01 -0.19095975831E+01  0.47787273850E+02  0.20000012791E+02 0.  0.
        -12    1    1    2    0    0  0.43298467658E+02 -0.22845493875E+01  0.19095975831E+01  0.43400726150E+02  0.00000000000E+00 0.  1.
         11    1    3    3    0    0 -0.75710498771E+01 -0.13039726498E+01  0.55165405165E+01  0.94579786659E+01  0.51100000000E-03 0. -1.
        -11    1    3    3    0    0 -0.12980523147E+02 -0.39698683190E+01 -0.37214720375E+01  0.14074913500E+02  0.51100000000E-03 0.  1.
        -12    1    3    3    0    0 -0.22746894633E+02  0.75583903563E+01 -0.37046660620E+01  0.24254381684E+02  0.00000000000E+00 0.  1.
</event>
<event>
 7    1  0.3742599E-009  0.4778727E+02  0.7816164E-02  0.1312668E+00
        -11   -1    0    0    0    0  0.00000000000E+00  0.00000000000E+00  0.45593999997E+02  0.45594000000E+02  0.51100000000E-03 0. -1.
         11   -1    0    0    0    0 -0.00000000000E+00 -0.00000000000E+00 -0.45593999997E+02  0.45594000000E+02  0.51100000000E-03 0.  1.
    9900012    2    1    2    0    0  0.41188351474E+02 -0.11929606747E+02  0.66953263126E+01  0.47787271795E+02  0.20000003422E+02 0.  0.
        -12    1    1    2    0    0 -0.41188351474E+02  0.11929606747E+02 -0.66953263126E+01  0.43400728205E+02  0.00000000000E+00 0.  1.
         11    1    3    3    0    0  0.13849467088E+02 -0.47764896535E+01 -0.32447179889E+01  0.15005025395E+02  0.51100000000E-03 0. -1.
        -11    1    3    3    0    0  0.24503021310E+02 -0.17181791719E+01  0.53892967273E+01  0.25147459364E+02  0.51100000000E-03 0.  1.
        -12    1    3    3    0    0  0.28358630767E+01 -0.54349379217E+01  0.45507475742E+01  0.76347870361E+01  0.00000000000E+00 0.  1.
</event>
<event>
 7    1  0.3742599E-009  0.4778727E+02  0.7816164E-02  0.1312668E+00
        -11   -1    0    0    0    0  0.00000000000E+00  0.00000000000E+00  0.45593999997E+02  0.45594000000E+02  0.51100000000E-03 0.  1.
         11   -1    0    0    0    0 -0.00000000000E+00 -0.00000000000E+00 -0.45593999997E+02  0.45594000000E+02  0.51100000000E-03 0. -1.
    9900012    2    1    2    0    0  0.15372020424E+02 -0.42899663710E+01 -0.40359890496E+02  0.47787267468E+02  0.19999983696E+02 0.  0.
        -12    1    1    2    0    0 -0.15372020424E+02  0.42899663710E+01  0.40359890496E+02  0.43400732532E+02  0.00000000000E+00 0.  1.
         11    1    3    3    0    0  0.10196203683E+02 -0.23236932785E+01 -0.11333755958E+02  0.15421288674E+02  0.51100000000E-03 0. -1.
        -11    1    3    3    0    0  0.41763098375E+00 -0.62182356559E+01 -0.67202754325E+01  0.91653135495E+01  0.51100000000E-03 0.  1.
         12    1    3    3    0    0  0.47581857575E+01  0.42519625634E+01 -0.22305859106E+02  0.23200665245E+02  0.00000000000E+00 0. -1.
</event>
<event>
 7    1  0.3742599E-009  0.4778727E+02  0.7816164E-02  0.1312668E+00
        -11   -1    0    0    0    0  0.00000000000E+00  0.00000000000E+00  0.45593999997E+02  0.45594000000E+02  0.51100000000E-03 0.  1.
         11   -1    0    0    0    0 -0.00000000000E+00 -0.00000000000E+00 -0.45593999997E+02  0.45594000000E+02  0.51100000000E-03 0. -1.
    9900012    2    1    2    0    0 -0.34945675431E+02  0.22904677886E+01 -0.25635461619E+02  0.47787269978E+02  0.19999995138E+02 0.  0.
        -12    1    1    2    0    0  0.34945675431E+02 -0.22904677886E+01  0.25635461619E+02  0.43400730022E+02  0.00000000000E+00 0.  1.
         11    1    3    3    0    0 -0.40700905227E+01  0.29781163146E+01 -0.13444610167E+01  0.52194242338E+01  0.51100000000E-03 0. -1.
        -11    1    3    3    0    0 -0.10257795477E+02  0.48869168790E+01 -0.17172627413E+01  0.11491445349E+02  0.51100000000E-03 0.  1.
         12    1    3    3    0    0 -0.20617789431E+02 -0.55745654049E+01 -0.22573737861E+02  0.31076400395E+02  0.00000000000E+00 0. -1.
</event>
<event>
 7    1  0.3742599E-009  0.4778728E+02  0.7816164E-02  0.1312668E+00
        -11   -1    0    0    0    0  0.00000000000E+00  0.00000000000E+00  0.45593999997E+02  0.45594000000E+02  0.51100000000E-03 0.  1.
         11   -1    0    0    0    0 -0.00000000000E+00 -0.00000000000E+00 -0.45593999997E+02  0.45594000000E+02  0.51100000000E-03 0. -1.
    9900012    2    1    2    0    0  0.16450548432E+02 -0.22803313563E+02 -0.33060716983E+02  0.47787278109E+02  0.20000032211E+02 0.  0.
        -12    1    1    2    0    0 -0.16450548432E+02  0.22803313563E+02  0.33060716983E+02  0.43400721891E+02  0.00000000000E+00 0.  1.
         11    1    3    3    0    0  0.74594152650E+01 -0.16300357518E+02 -0.17817984514E+02  0.25274989687E+02  0.51100000000E-03 0. -1.
        -11    1    3    3    0    0  0.41639686205E+00 -0.72179947779E+01 -0.10315428299E+02  0.12596860570E+02  0.51100000000E-03 0.  1.
         12    1    3    3    0    0  0.85747363054E+01  0.71503873259E+00 -0.49273041709E+01  0.99154278520E+01  0.00000000000E+00 0. -1.
</event>
<event>
 7    1  0.3742599E-009  0.4778727E+02  0.7816164E-02  0.1312668E+00
        -11   -1    0    0    0    0  0.00000000000E+00  0.00000000000E+00  0.45593999997E+02  0.45594000000E+02  0.51100000000E-03 0.  1.
         11   -1    0    0    0    0 -0.00000000000E+00 -0.00000000000E+00 -0.45593999997E+02  0.45594000000E+02  0.51100000000E-03 0. -1.
    9900012    2    1    2    0    0 -0.10233247959E+02 -0.22667771510E+02 -0.35567910663E+02  0.47787268463E+02  0.19999988229E+02 0.  0.
        -12    1    1    2    0    0  0.10233247959E+02  0.22667771510E+02  0.35567910663E+02  0.43400731537E+02  0.00000000000E+00 0.  1.
         11    1    3    3    0    0  0.24934029975E+01 -0.30931430320E+01 -0.95408370577E+01  0.10334997066E+02  0.51100000000E-03 0. -1.
        -11    1    3    3    0    0 -0.71665399355E+01 -0.42053166752E+01 -0.16652508153E+02  0.18610481215E+02  0.51100000000E-03 0.  1.
         12    1    3    3    0    0 -0.55601110215E+01 -0.15369311803E+02 -0.93745654518E+01  0.18841790182E+02  0.00000000000E+00 0. -1.
</event>
<event>
 7    1  0.3742599E-009  0.4778727E+02  0.7816164E-02  0.1312668E+00
        -11   -1    0    0    0    0  0.00000000000E+00  0.00000000000E+00  0.45593999997E+02  0.45594000000E+02  0.51100000000E-03 0.  1.
         11   -1    0    0    0    0 -0.00000000000E+00 -0.00000000000E+00 -0.45593999997E+02  0.45594000000E+02  0.51100000000E-03 0. -1.
    9900012    2    1    2    0    0  0.32209629214E+01  0.39582090582E+02 -0.17507334188E+02  0.47787271350E+02  0.20000001394E+02 0.  0.
        -12    1    1    2    0    0 -0.32209629214E+01 -0.39582090582E+02  0.17507334188E+02  0.43400728650E+02  0.00000000000E+00 0.  1.
         11    1    3    3    0    0  0.73703447575E-01  0.71016152865E+01 -0.98283287649E+01  0.12125774963E+02  0.51100000000E-03 0. -1.
        -11    1    3    3    0    0 -0.23205565111E+01  0.44901174021E+01 -0.48452970372E+01  0.70016455527E+01  0.51100000000E-03 0.  1.
        -12    1    3    3    0    0  0.54678159849E+01  0.27990357893E+02 -0.28337083855E+01  0.28659850835E+02  0.00000000000E+00 0.  1.
</event>
<event>
 7    1  0.3742599E-009  0.4778726E+02  0.7816164E-02  0.1312668E+00
        -11   -1    0    0    0    0  0.00000000000E+00  0.00000000000E+00  0.45593999997E+02  0.45594000000E+02  0.51100000000E-03 0. -1.
         11   -1    0    0    0    0 -0.00000000000E+00 -0.00000000000E+00 -0.45593999997E+02  0.45594000000E+02  0.51100000000E-03 0.  1.
    9900012    2    1    2    0    0  0.40980386255E+02 -0.13420693747E+02  0.49108994256E+01  0.47787262548E+02  0.19999961261E+02 0.  0.
        -12    1    1    2    0    0 -0.40980386255E+02  0.13420693747E+02 -0.49108994256E+01  0.43400737452E+02  0.00000000000E+00 0.  1.
         11    1    3    3    0    0  0.31769874074E+02 -0.13198092980E+02  0.35915011261E+01  0.34589209844E+02  0.51100000000E-03 0. -1.
        -11    1    3    3    0    0  0.59438422939E+01 -0.46422455923E+01 -0.17706122709E-01  0.75418843217E+01  0.51100000000E-03 0.  1.
        -12    1    3    3    0    0  0.32666698865E+01  0.44196448260E+01  0.13371044221E+01  0.56561683825E+01  0.00000000000E+00 0.  1.
</event>
<event>
 7    1  0.3742599E-009  0.4778728E+02  0.7816164E-02  0.1312668E+00
        -11   -1    0    0    0    0  0.00000000000E+00  0.00000000000E+00  0.45593999997E+02  0.45594000000E+02  0.51100000000E-03 0.  1.
         11   -1    0    0    0    0 -0.00000000000E+00 -0.00000000000E+00 -0.45593999997E+02  0.45594000000E+02  0.51100000000E-03 0. -1.
    9900012    2    1    2    0    0 -0.15210229070E+02 -0.76700743895E+01 -0.39917933783E+02  0.47787279419E+02  0.20000038182E+02 0.  0.
        -12    1    1    2    0    0  0.15210229070E+02  0.76700743895E+01  0.39917933783E+02  0.43400720581E+02  0.00000000000E+00 0.  1.
         11    1    3    3    0    0 -0.37452633929E+01 -0.60102749573E+01 -0.10587143428E+02  0.12737268513E+02  0.51100000000E-03 0.  1.
        -11    1    3    3    0    0 -0.30338916117E+01 -0.80534324674E+01 -0.12929809144E+02  0.15531974684E+02  0.51100000000E-03 0. -1.
         12    1    3    3    0    0 -0.84310740657E+01  0.63936330353E+01 -0.16400981210E+02  0.19518036222E+02  0.00000000000E+00 0. -1.
</event>
<event>
 7    1  0.3742599E-009  0.4778727E+02  0.7816164E-02  0.1312668E+00
        -11   -1    0    0    0    0  0.00000000000E+00  0.00000000000E+00  0.45593999997E+02  0.45594000000E+02  0.51100000000E-03 0. -1.
         11   -1    0    0    0    0 -0.00000000000E+00 -0.00000000000E+00 -0.45593999997E+02  0.45594000000E+02  0.51100000000E-03 0.  1.
    9900012    2    1    2    0    0 -0.36680659113E+02  0.23017359860E+02  0.28902899338E+01  0.47787269779E+02  0.19999994229E+02 0.  0.
        -12    1    1    2    0    0  0.36680659113E+02 -0.23017359860E+02 -0.28902899338E+01  0.43400730221E+02  0.00000000000E+00 0.  1.
         11    1    3    3    0    0 -0.35778269376E+01 -0.93006172199E+00 -0.20172443206E+01  0.42113104032E+01  0.51100000000E-03 0. -1.
        -11    1    3    3    0    0 -0.31948795721E+02  0.23493972133E+02  0.12095363689E+01  0.39675625428E+02  0.51100000000E-03 0.  1.
        -12    1    3    3    0    0 -0.11540364541E+01  0.45344944845E+00  0.36979978855E+01  0.39003339474E+01  0.00000000000E+00 0.  1.
</event>
<event>
 7    1  0.3742599E-009  0.4778727E+02  0.7816164E-02  0.1312668E+00
        -11   -1    0    0    0    0  0.00000000000E+00  0.00000000000E+00  0.45593999997E+02  0.45594000000E+02  0.51100000000E-03 0.  1.
         11   -1    0    0    0    0 -0.00000000000E+00 -0.00000000000E+00 -0.45593999997E+02  0.45594000000E+02  0.51100000000E-03 0. -1.
    9900012    2    1    2    0    0  0.43040959518E+02 -0.34547922059E+01 -0.43775855640E+01  0.47787273730E+02  0.20000012244E+02 0.  0.
        -12    1    1    2    0    0 -0.43040959518E+02  0.34547922059E+01  0.43775855640E+01  0.43400726270E+02  0.00000000000E+00 0.  1.
         11    1    3    3    0    0  0.23808537375E+02 -0.51459864869E+00  0.14717464767E+00  0.23814552785E+02  0.51100000000E-03 0.  1.
        -11    1    3    3    0    0  0.21193801985E+02 -0.21819468205E+01 -0.33608904718E+01  0.21569277214E+02  0.51100000000E-03 0. -1.
        -12    1    3    3    0    0 -0.19613798420E+01 -0.75824673672E+00 -0.11638697399E+01  0.24034437313E+01  0.00000000000E+00 0.  1.
</event>
<event>
 7    1  0.5050233E-009  0.4778728E+02  0.7816164E-02  0.1312668E+00
        -11   -1    0    0    0    0  0.00000000000E+00  0.00000000000E+00  0.45593999997E+02  0.45594000000E+02  0.51100000000E-03 0. -1.
         11   -1    0    0    0    0 -0.00000000000E+00 -0.00000000000E+00 -0.45593999997E+02  0.45594000000E+02  0.51100000000E-03 0.  1.
    9900012    2    1    2    0    0 -0.40657128504E+02 -0.12817268012E+01  0.15132006935E+02  0.47787279318E+02  0.20000037724E+02 0.  0.
        -12    1    1    2    0    0  0.40657128504E+02  0.12817268012E+01 -0.15132006935E+02  0.43400720682E+02  0.00000000000E+00 0.  1.
         11    1    3    3    0    0 -0.20150433465E+02 -0.24431791051E+01  0.87680055363E+01  0.22110789545E+02  0.51100000000E-03 0. -1.
        -11    1    3    3    0    0 -0.29943727166E+01 -0.32316804124E+01  0.62184379384E+01  0.76209577422E+01  0.51100000000E-03 0.  1.
         12    1    3    3    0    0 -0.17512322323E+02  0.43931327163E+01  0.14556345998E+00  0.18055532031E+02  0.00000000000E+00 0. -1.
</event>
<event>
 7    1  0.3742599E-009  0.4778727E+02  0.7816164E-02  0.1312668E+00
        -11   -1    0    0    0    0  0.00000000000E+00  0.00000000000E+00  0.45593999997E+02  0.45594000000E+02  0.51100000000E-03 0.  1.
         11   -1    0    0    0    0 -0.00000000000E+00 -0.00000000000E+00 -0.45593999997E+02  0.45594000000E+02  0.51100000000E-03 0. -1.
    9900012    2    1    2    0    0  0.27237225672E+02 -0.15961258271E+01 -0.33752173435E+02  0.47787270841E+02  0.19999999072E+02 0.  0.
        -12    1    1    2    0    0 -0.27237225672E+02  0.15961258271E+01  0.33752173435E+02  0.43400729159E+02  0.00000000000E+00 0.  1.
         11    1    3    3    0    0  0.21487265715E+02 -0.13299482052E+01 -0.24848792592E+02  0.32877558360E+02  0.51100000000E-03 0. -1.
        -11    1    3    3    0    0  0.84296204335E+01 -0.61651087651E+00 -0.88053942049E+01  0.12205472284E+02  0.51100000000E-03 0.  1.
        -12    1    3    3    0    0 -0.26796604770E+01  0.35033325460E+00 -0.97986637873E-01  0.27042401969E+01  0.00000000000E+00 0.  1.
</event>
<event>
 7    1  0.3742599E-009  0.4778727E+02  0.7816164E-02  0.1312668E+00
        -11   -1    0    0    0    0  0.00000000000E+00  0.00000000000E+00  0.45593999997E+02  0.45594000000E+02  0.51100000000E-03 0. -1.
         11   -1    0    0    0    0 -0.00000000000E+00 -0.00000000000E+00 -0.45593999997E+02  0.45594000000E+02  0.51100000000E-03 0.  1.
    9900012    2    1    2    0    0  0.32920398984E+02 -0.82758845351E+01  0.27044041075E+02  0.47787273142E+02  0.20000009566E+02 0.  0.
        -12    1    1    2    0    0 -0.32920398984E+02  0.82758845351E+01 -0.27044041075E+02  0.43400726858E+02  0.00000000000E+00 0.  1.
         11    1    3    3    0    0  0.15552093212E+01  0.16516771449E+01  0.63829568312E+01  0.67741310582E+01  0.51100000000E-03 0. -1.
        -11    1    3    3    0    0  0.16255920021E+01 -0.38338519838E+01 -0.21597269896E+00  0.41698459035E+01  0.51100000000E-03 0.  1.
         12    1    3    3    0    0  0.29739597661E+02 -0.60937096962E+01  0.20877056942E+02  0.36843296181E+02  0.00000000000E+00 0. -1.
</event>
<event>
 7    1  0.3742599E-009  0.4778726E+02  0.7816164E-02  0.1312668E+00
        -11   -1    0    0    0    0  0.00000000000E+00  0.00000000000E+00  0.45593999997E+02  0.45594000000E+02  0.51100000000E-03 0.  1.
         11   -1    0    0    0    0 -0.00000000000E+00 -0.00000000000E+00 -0.45593999997E+02  0.45594000000E+02  0.51100000000E-03 0. -1.
    9900012    2    1    2    0    0 -0.39415713857E+02 -0.74330614299E+01 -0.16576335831E+02  0.47787264860E+02  0.19999971804E+02 0.  0.
        -12    1    1    2    0    0  0.39415713857E+02  0.74330614299E+01  0.16576335831E+02  0.43400735140E+02  0.00000000000E+00 0.  1.
         11    1    3    3    0    0 -0.33432204392E+02 -0.10948394804E+02 -0.13333174289E+02  0.37621179888E+02  0.51100000000E-03 0. -1.
        -11    1    3    3    0    0 -0.30557278346E+01 -0.14367164107E+01  0.33192821504E+00  0.33929048388E+01  0.51100000000E-03 0.  1.
        -12    1    3    3    0    0 -0.29277816307E+01  0.49520497849E+01 -0.35750897571E+01  0.67731801334E+01  0.00000000000E+00 0.  1.
</event>
<event>
 7    1  0.3742599E-009  0.4778727E+02  0.7816164E-02  0.1312668E+00
        -11   -1    0    0    0    0  0.00000000000E+00  0.00000000000E+00  0.45593999997E+02  0.45594000000E+02  0.51100000000E-03 0.  1.
         11   -1    0    0    0    0 -0.00000000000E+00 -0.00000000000E+00 -0.45593999997E+02  0.45594000000E+02  0.51100000000E-03 0. -1.
    9900012    2    1    2    0    0  0.31914782723E+02  0.10493456778E+02 -0.27476486882E+02  0.47787270481E+02  0.19999997430E+02 0.  0.
        -12    1    1    2    0    0 -0.31914782723E+02 -0.10493456778E+02  0.27476486882E+02  0.43400729519E+02  0.00000000000E+00 0.  1.
         11    1    3    3    0    0 -0.16529653909E+01 -0.84445852311E+00 -0.38507385718E+00  0.18957022227E+01  0.51100000000E-03 0. -1.
        -11    1    3    3    0    0  0.20923692111E+01 -0.18321950489E+01 -0.31952418293E+01  0.42360970505E+01  0.51100000000E-03 0.  1.
         12    1    3    3    0    0  0.31475378903E+02  0.13170110350E+02 -0.23896171196E+02  0.41655471208E+02  0.00000000000E+00 0. -1.
</event>
<event>
 7    1  0.3742599E-009  0.4778727E+02  0.7816164E-02  0.1312668E+00
        -11   -1    0    0    0    0  0.00000000000E+00  0.00000000000E+00  0.45593999997E+02  0.45594000000E+02  0.51100000000E-03 0.  1.
         11   -1    0    0    0    0 -0.00000000000E+00 -0.00000000000E+00 -0.45593999997E+02  0.45594000000E+02  0.51100000000E-03 0. -1.
    9900012    2    1    2    0    0 -0.43515071085E+01  0.42465229983E+02 -0.78352974490E+01  0.47787271230E+02  0.20000000847E+02 0.  0.
        -12    1    1    2    0    0  0.43515071085E+01 -0.42465229983E+02  0.78352974490E+01  0.43400728770E+02  0.00000000000E+00 0.  1.
         11    1    3    3    0    0  0.32456969603E+01  0.26704366354E+02 -0.18124047534E+01  0.26961872012E+02  0.51100000000E-03 0. -1.
        -11    1    3    3    0    0  0.23035873693E+01  0.28332914665E+01 -0.11606336235E+01  0.38315957474E+01  0.51100000000E-03 0.  1.
        -12    1    3    3    0    0 -0.99007914381E+01  0.12927572162E+02 -0.48622590721E+01  0.16993803471E+02  0.00000000000E+00 0.  1.
</event>
<event>
 7    1  0.3742599E-009  0.4778727E+02  0.7816164E-02  0.1312668E+00
        -11   -1    0    0    0    0  0.00000000000E+00  0.00000000000E+00  0.45593999997E+02  0.45594000000E+02  0.51100000000E-03 0.  1.
         11   -1    0    0    0    0 -0.00000000000E+00 -0.00000000000E+00 -0.45593999997E+02  0.45594000000E+02  0.51100000000E-03 0. -1.
    9900012    2    1    2    0    0 -0.34227854476E+02  0.20743036975E+02 -0.16786999896E+02  0.47787274540E+02  0.20000015936E+02 0.  0.
        -12    1    1    2    0    0  0.34227854476E+02 -0.20743036975E+02  0.16786999896E+02  0.43400725460E+02  0.00000000000E+00 0.  1.
         11    1    3    3    0    0 -0.25821209108E+02  0.11160592994E+02 -0.10876461882E+02  0.30159428030E+02  0.51100000000E-03 0. -1.
        -11    1    3    3    0    0 -0.50618468746E+01 -0.55687020147E+00 -0.46155635777E+01  0.68728324295E+01  0.51100000000E-03 0.  1.
        -12    1    3    3    0    0 -0.33447984926E+01  0.10139314183E+02 -0.12949744366E+01  0.10755014080E+02  0.00000000000E+00 0.  1.
</event>
<event>
 7    1  0.3742599E-009  0.4778727E+02  0.7816164E-02  0.1312668E+00
        -11   -1    0    0    0    0  0.00000000000E+00  0.00000000000E+00  0.45593999997E+02  0.45594000000E+02  0.51100000000E-03 0. -1.
         11   -1    0    0    0    0 -0.00000000000E+00 -0.00000000000E+00 -0.45593999997E+02  0.45594000000E+02  0.51100000000E-03 0.  1.
    9900012    2    1    2    0    0  0.77003983339E+01 -0.33354904091E+02  0.26679161795E+02  0.47787269182E+02  0.19999991511E+02 0.  0.
        -12    1    1    2    0    0 -0.77003983339E+01  0.33354904091E+02 -0.26679161795E+02  0.43400730818E+02  0.00000000000E+00 0.  1.
         11    1    3    3    0    0  0.64385408816E+01 -0.30108814881E+02  0.28257904548E+02  0.41791203762E+02  0.51100000000E-03 0. -1.
        -11    1    3    3    0    0  0.82542279253E+00 -0.12496792299E+00  0.14191187900E+01  0.16464623195E+01  0.51100000000E-03 0.  1.
        -12    1    3    3    0    0  0.43643465982E+00 -0.31211212873E+01 -0.29978615430E+01  0.43496031007E+01  0.00000000000E+00 0.  1.
</event>
<event>
 7    1  0.3742599E-009  0.4778727E+02  0.7816164E-02  0.1312668E+00
        -11   -1    0    0    0    0  0.00000000000E+00  0.00000000000E+00  0.45593999997E+02  0.45594000000E+02  0.51100000000E-03 0. -1.
         11   -1    0    0    0    0 -0.00000000000E+00 -0.00000000000E+00 -0.45593999997E+02  0.45594000000E+02  0.51100000000E-03 0.  1.
    9900012    2    1    2    0    0 -0.27575491859E+02 -0.10732012030E+02  0.31749635182E+02  0.47787272268E+02  0.20000005581E+02 0.  0.
        -12    1    1    2    0    0  0.27575491859E+02  0.10732012030E+02 -0.31749635182E+02  0.43400727732E+02  0.00000000000E+00 0.  1.
         11    1    3    3    0    0 -0.14801900014E+02 -0.13419932314E+02  0.22983426895E+02  0.30453714706E+02  0.51100000000E-03 0. -1.
        -11    1    3    3    0    0 -0.48824588018E+01 -0.18054873139E+01  0.82562760033E+00  0.52706593124E+01  0.51100000000E-03 0.  1.
        -12    1    3    3    0    0 -0.78911330434E+01  0.44934075977E+01  0.79405806866E+01  0.12062898250E+02  0.00000000000E+00 0.  1.
</event>
<event>
 7    1  0.3742599E-009  0.4778726E+02  0.7816164E-02  0.1312668E+00
        -11   -1    0    0    0    0  0.00000000000E+00  0.00000000000E+00  0.45593999997E+02  0.45594000000E+02  0.51100000000E-03 0.  1.
         11   -1    0    0    0    0 -0.00000000000E+00 -0.00000000000E+00 -0.45593999997E+02  0.45594000000E+02  0.51100000000E-03 0. -1.
    9900012    2    1    2    0    0 -0.36742276451E+01 -0.43306599394E+01 -0.43027548018E+02  0.47787257463E+02  0.19999938078E+02 0.  0.
        -12    1    1    2    0    0  0.36742276451E+01  0.43306599394E+01  0.43027548018E+02  0.43400742537E+02  0.00000000000E+00 0.  1.
         11    1    3    3    0    0 -0.35072346646E+00 -0.63002456861E+01 -0.25453457666E+02  0.26223932010E+02  0.51100000000E-03 0. -1.
        -11    1    3    3    0    0 -0.36930108333E+01  0.18519368872E+01 -0.19329255688E+02  0.19765832261E+02  0.51100000000E-03 0.  1.
        -12    1    3    3    0    0  0.36950665463E+00  0.11764885939E+00  0.17551653356E+01  0.17974931926E+01  0.00000000000E+00 0.  1.
</event>
<event>
 7    1  0.3742599E-009  0.4778727E+02  0.7816164E-02  0.1312668E+00
        -11   -1    0    0    0    0  0.00000000000E+00  0.00000000000E+00  0.45593999997E+02  0.45594000000E+02  0.51100000000E-03 0.  1.
         11   -1    0    0    0    0 -0.00000000000E+00 -0.00000000000E+00 -0.45593999997E+02  0.45594000000E+02  0.51100000000E-03 0. -1.
    9900012    2    1    2    0    0 -0.37578740622E+02  0.33969457705E+01 -0.21445795938E+02  0.47787272463E+02  0.20000006468E+02 0.  0.
        -12    1    1    2    0    0  0.37578740622E+02 -0.33969457705E+01  0.21445795938E+02  0.43400727537E+02  0.00000000000E+00 0.  1.
         11    1    3    3    0    0 -0.25133483200E+02 -0.47170461742E+01 -0.82009059733E+01  0.26855117974E+02  0.51100000000E-03 0. -1.
        -11    1    3    3    0    0 -0.53756160888E+00  0.17632758617E+01  0.23434086821E+00  0.18582330724E+01  0.51100000000E-03 0.  1.
         12    1    3    3    0    0 -0.11907695814E+02  0.63507160830E+01 -0.13479230833E+02  0.19073921416E+02  0.00000000000E+00 0. -1.
</event>
<event>
 7    1  0.3742599E-009  0.4778727E+02  0.7816164E-02  0.1312668E+00
        -11   -1    0    0    0    0  0.00000000000E+00  0.00000000000E+00  0.45593999997E+02  0.45594000000E+02  0.51100000000E-03 0. -1.
         11   -1    0    0    0    0 -0.00000000000E+00 -0.00000000000E+00 -0.45593999997E+02  0.45594000000E+02  0.51100000000E-03 0.  1.
    9900012    2    1    2    0    0  0.35509371333E+02  0.75601925829E+01  0.23781322125E+02  0.47787271361E+02  0.20000001445E+02 0.  0.
        -12    1    1    2    0    0 -0.35509371333E+02 -0.75601925829E+01 -0.23781322125E+02  0.43400728639E+02  0.00000000000E+00 0.  1.
         11    1    3    3    0    0  0.73297704392E+01 -0.19491713830E+01 -0.17077455888E+00  0.75864331528E+01  0.51100000000E-03 0.  1.
        -11    1    3    3    0    0  0.21846190922E+02  0.19754233855E+01  0.13096066054E+02  0.25547314960E+02  0.51100000000E-03 0. -1.
         12    1    3    3    0    0  0.63334099724E+01  0.75339405803E+01  0.10856030630E+02  0.14653523248E+02  0.00000000000E+00 0. -1.
</event>
<event>
 7    1  0.3742599E-009  0.4778727E+02  0.7816164E-02  0.1312668E+00
        -11   -1    0    0    0    0  0.00000000000E+00  0.00000000000E+00  0.45593999997E+02  0.45594000000E+02  0.51100000000E-03 0.  1.
         11   -1    0    0    0    0 -0.00000000000E+00 -0.00000000000E+00 -0.45593999997E+02  0.45594000000E+02  0.51100000000E-03 0. -1.
    9900012    2    1    2    0    0  0.87318842406E+01 -0.31623788172E+02 -0.28413262592E+02  0.47787271067E+02  0.20000000104E+02 0.  0.
        -12    1    1    2    0    0 -0.87318842406E+01  0.31623788172E+02  0.28413262592E+02  0.43400728933E+02  0.00000000000E+00 0.  1.
         11    1    3    3    0    0  0.60336665597E-01 -0.52731605483E+01 -0.37783231275E+01  0.64873406414E+01  0.51100000000E-03 0. -1.
        -11    1    3    3    0    0  0.11632801816E+02 -0.27126635283E+02 -0.24278347215E+02  0.38217987435E+02  0.51100000000E-03 0.  1.
        -12    1    3    3    0    0 -0.29612542406E+01  0.77600765928E+00 -0.35659225018E+00  0.30819429906E+01  0.00000000000E+00 0.  1.
</event>
<event>
 7    1  0.3742599E-009  0.4778729E+02  0.7816164E-02  0.1312668E+00
        -11   -1    0    0    0    0  0.00000000000E+00  0.00000000000E+00  0.45593999997E+02  0.45594000000E+02  0.51100000000E-03 0.  1.
         11   -1    0    0    0    0 -0.00000000000E+00 -0.00000000000E+00 -0.45593999997E+02  0.45594000000E+02  0.51100000000E-03 0. -1.
    9900012    2    1    2    0    0  0.93372538055E+01  0.17648892527E+02 -0.38535094561E+02  0.47787294604E+02  0.20000107417E+02 0.  0.
        -12    1    1    2    0    0 -0.93372538055E+01 -0.17648892527E+02  0.38535094561E+02  0.43400705396E+02  0.00000000000E+00 0.  1.
         11    1    3    3    0    0  0.80791946697E+00  0.12168451888E+02 -0.18946424486E+02  0.22531998497E+02  0.51100000000E-03 0. -1.
        -11    1    3    3    0    0  0.35931377624E+00 -0.21067524212E+00 -0.13661461907E+02  0.13667810071E+02  0.51100000000E-03 0.  1.
         12    1    3    3    0    0  0.81700205622E+01  0.56911158812E+01 -0.59272081679E+01  0.11587486036E+02  0.00000000000E+00 0. -1.
</event>
<event>
 7    1  0.3742599E-009  0.4778728E+02  0.7816164E-02  0.1312668E+00
        -11   -1    0    0    0    0  0.00000000000E+00  0.00000000000E+00  0.45593999997E+02  0.45594000000E+02  0.51100000000E-03 0.  1.
         11   -1    0    0    0    0 -0.00000000000E+00 -0.00000000000E+00 -0.45593999997E+02  0.45594000000E+02  0.51100000000E-03 0. -1.
    9900012    2    1    2    0    0 -0.40333776557E+02  0.11685340100E+02 -0.10966391153E+02  0.47787280657E+02  0.20000043827E+02 0.  0.
        -12    1    1    2    0    0  0.40333776557E+02 -0.11685340100E+02  0.10966391153E+02  0.43400719343E+02  0.00000000000E+00 0.  1.
         11    1    3    3    0    0 -0.13500776429E+02  0.84415982973E+01 -0.33569235531E+01  0.16272691295E+02  0.51100000000E-03 0. -1.
        -11    1    3    3    0    0 -0.12722105241E+01 -0.33261712576E+01 -0.31387734013E+01  0.47469815229E+01  0.51100000000E-03 0.  1.
         12    1    3    3    0    0 -0.25560789604E+02  0.65699130601E+01 -0.44706941988E+01  0.26767607839E+02  0.00000000000E+00 0. -1.
</event>
<event>
 7    1  0.3742599E-009  0.4778727E+02  0.7816164E-02  0.1312668E+00
        -11   -1    0    0    0    0  0.00000000000E+00  0.00000000000E+00  0.45593999997E+02  0.45594000000E+02  0.51100000000E-03 0. -1.
         11   -1    0    0    0    0 -0.00000000000E+00 -0.00000000000E+00 -0.45593999997E+02  0.45594000000E+02  0.51100000000E-03 0.  1.
    9900012    2    1    2    0    0 -0.37967471369E+02  0.18249394592E+02  0.10442910579E+02  0.47787266521E+02  0.19999979374E+02 0.  0.
        -12    1    1    2    0    0  0.37967471369E+02 -0.18249394592E+02 -0.10442910579E+02  0.43400733479E+02  0.00000000000E+00 0.  1.
         11    1    3    3    0    0 -0.14420063664E+02  0.52399848921E+00  0.10083311646E+01  0.14464769009E+02  0.51100000000E-03 0. -1.
        -11    1    3    3    0    0 -0.45638996533E+01 -0.67517076566E+00 -0.12927794487E+01  0.47912748379E+01  0.51100000000E-03 0.  1.
         12    1    3    3    0    0 -0.18983508052E+02  0.18400566869E+02  0.10727358863E+02  0.28531222673E+02  0.00000000000E+00 0. -1.
</event>
<event>
 7    1  0.3742599E-009  0.4778730E+02  0.7816164E-02  0.1312668E+00
        -11   -1    0    0    0    0  0.00000000000E+00  0.00000000000E+00  0.45593999997E+02  0.45594000000E+02  0.51100000000E-03 0.  1.
         11   -1    0    0    0    0 -0.00000000000E+00 -0.00000000000E+00 -0.45593999997E+02  0.45594000000E+02  0.51100000000E-03 0. -1.
    9900012    2    1    2    0    0  0.15984008280E+01 -0.41581060516E+01 -0.43171471860E+02  0.47787300539E+02  0.20000134479E+02 0.  0.
        -12    1    1    2    0    0 -0.15984008280E+01  0.41581060516E+01  0.43171471860E+02  0.43400699461E+02  0.00000000000E+00 0.  1.
         11    1    3    3    0    0  0.14107384219E+01  0.20956442864E+01 -0.25735547290E+01  0.36062573500E+01  0.51100000000E-03 0. -1.
        -11    1    3    3    0    0 -0.18572969935E+01  0.52275359430E+01 -0.99951621708E+01  0.11431533197E+02  0.51100000000E-03 0.  1.
         12    1    3    3    0    0  0.20449593996E+01 -0.11481286281E+02 -0.30602754960E+02  0.32749509992E+02  0.00000000000E+00 0. -1.
</event>
<event>
 7    1  0.3742599E-009  0.4778727E+02  0.7816164E-02  0.1312668E+00
        -11   -1    0    0    0    0  0.00000000000E+00  0.00000000000E+00  0.45593999997E+02  0.45594000000E+02  0.51100000000E-03 0.  1.
         11   -1    0    0    0    0 -0.00000000000E+00 -0.00000000000E+00 -0.45593999997E+02  0.45594000000E+02  0.51100000000E-03 0. -1.
    9900012    2    1    2    0    0  0.42205584645E+02 -0.62227131421E+01  0.79743035855E+01  0.47787273603E+02  0.20000011665E+02 0.  0.
        -12    1    1    2    0    0 -0.42205584645E+02  0.62227131421E+01 -0.79743035855E+01  0.43400726397E+02  0.00000000000E+00 0.  1.
         11    1    3    3    0    0  0.24319278075E+02 -0.28840665888E+01 -0.26709175923E+01  0.24634912771E+02  0.51100000000E-03 0. -1.
        -11    1    3    3    0    0  0.21859215626E+01 -0.38808002136E+01  0.57244260346E+00  0.44907186698E+01  0.51100000000E-03 0.  1.
         12    1    3    3    0    0  0.15700385008E+02  0.54215366033E+00  0.10072778574E+02  0.18661642162E+02  0.00000000000E+00 0. -1.
</event>
<event>
 7    1  0.3742599E-009  0.4778728E+02  0.7816164E-02  0.1312668E+00
        -11   -1    0    0    0    0  0.00000000000E+00  0.00000000000E+00  0.45593999997E+02  0.45594000000E+02  0.51100000000E-03 0.  1.
         11   -1    0    0    0    0 -0.00000000000E+00 -0.00000000000E+00 -0.45593999997E+02  0.45594000000E+02  0.51100000000E-03 0. -1.
    9900012    2    1    2    0    0 -0.28848229885E+02 -0.15932071942E+02 -0.28241310202E+02  0.47787275516E+02  0.20000020387E+02 0.  0.
        -12    1    1    2    0    0  0.28848229885E+02  0.15932071942E+02  0.28241310202E+02  0.43400724484E+02  0.00000000000E+00 0.  1.
         11    1    3    3    0    0 -0.19409455974E+02 -0.50608898866E+01 -0.14278849596E+02  0.24621639541E+02  0.51100000000E-03 0. -1.
        -11    1    3    3    0    0 -0.53295027039E+01  0.99723070047E+00 -0.18825477774E+01  0.57395169253E+01  0.51100000000E-03 0.  1.
        -12    1    3    3    0    0 -0.41092712074E+01 -0.11868412756E+02 -0.12079912828E+02  0.17426119049E+02  0.00000000000E+00 0.  1.
</event>
<event>
 7    1  0.3742599E-009  0.4778727E+02  0.7816164E-02  0.1312668E+00
        -11   -1    0    0    0    0  0.00000000000E+00  0.00000000000E+00  0.45593999997E+02  0.45594000000E+02  0.51100000000E-03 0. -1.
         11   -1    0    0    0    0 -0.00000000000E+00 -0.00000000000E+00 -0.45593999997E+02  0.45594000000E+02  0.51100000000E-03 0.  1.
    9900012    2    1    2    0    0 -0.14374823410E+02  0.14825010549E+02  0.38173377805E+02  0.47787271217E+02  0.20000000787E+02 0.  0.
        -12    1    1    2    0    0  0.14374823410E+02 -0.14825010549E+02 -0.38173377805E+02  0.43400728783E+02  0.00000000000E+00 0.  1.
         11    1    3    3    0    0  0.31054526551E+01  0.32531501296E+01  0.39571279150E+01  0.59904660549E+01  0.51100000000E-03 0. -1.
        -11    1    3    3    0    0  0.13687394980E+01  0.26243518465E+01  0.27419266369E+01  0.40347035047E+01  0.51100000000E-03 0.  1.
         12    1    3    3    0    0 -0.18849015563E+02  0.89475085733E+01  0.31474323253E+02  0.37762101657E+02  0.00000000000E+00 0. -1.
</event>
<event>
 7    1  0.3742599E-009  0.4778727E+02  0.7816164E-02  0.1312668E+00
        -11   -1    0    0    0    0  0.00000000000E+00  0.00000000000E+00  0.45593999997E+02  0.45594000000E+02  0.51100000000E-03 0. -1.
         11   -1    0    0    0    0 -0.00000000000E+00 -0.00000000000E+00 -0.45593999997E+02  0.45594000000E+02  0.51100000000E-03 0.  1.
    9900012    2    1    2    0    0  0.12054481460E+02 -0.37067974622E+02 -0.19086062707E+02  0.47787273560E+02  0.20000011471E+02 0.  0.
        -12    1    1    2    0    0 -0.12054481460E+02  0.37067974622E+02  0.19086062707E+02  0.43400726440E+02  0.00000000000E+00 0.  1.
         11    1    3    3    0    0 -0.27726092009E+00 -0.15644337659E+02 -0.69973172419E+01  0.17140146535E+02  0.51100000000E-03 0. -1.
        -11    1    3    3    0    0  0.50359933349E+01 -0.19994253691E+02 -0.10053390597E+02  0.22939094844E+02  0.51100000000E-03 0.  1.
        -12    1    3    3    0    0  0.72957490449E+01 -0.14293832725E+01 -0.20353548683E+01  0.77080321811E+01  0.00000000000E+00 0.  1.
</event>
<event>
 7    1  0.3742599E-009  0.4778727E+02  0.7816164E-02  0.1312668E+00
        -11   -1    0    0    0    0  0.00000000000E+00  0.00000000000E+00  0.45593999997E+02  0.45594000000E+02  0.51100000000E-03 0.  1.
         11   -1    0    0    0    0 -0.00000000000E+00 -0.00000000000E+00 -0.45593999997E+02  0.45594000000E+02  0.51100000000E-03 0. -1.
    9900012    2    1    2    0    0 -0.16515715728E+02 -0.12225233252E+02 -0.38228235995E+02  0.47787271650E+02  0.20000002760E+02 0.  0.
        -12    1    1    2    0    0  0.16515715728E+02  0.12225233252E+02  0.38228235995E+02  0.43400728350E+02  0.00000000000E+00 0.  1.
         11    1    3    3    0    0 -0.75356864566E+01 -0.58689958481E+01 -0.24628871712E+02  0.26416150452E+02  0.51100000000E-03 0. -1.
        -11    1    3    3    0    0  0.77186437438E+00  0.27317626802E+01 -0.41643090860E+01  0.50398186851E+01  0.51100000000E-03 0.  1.
        -12    1    3    3    0    0 -0.97518936457E+01 -0.90880000840E+01 -0.94350551969E+01  0.16331302513E+02  0.00000000000E+00 0.  1.
</event>
<event>
 7    1  0.3742599E-009  0.4778727E+02  0.7816164E-02  0.1312668E+00
        -11   -1    0    0    0    0  0.00000000000E+00  0.00000000000E+00  0.45593999997E+02  0.45594000000E+02  0.51100000000E-03 0.  1.
         11   -1    0    0    0    0 -0.00000000000E+00 -0.00000000000E+00 -0.45593999997E+02  0.45594000000E+02  0.51100000000E-03 0. -1.
    9900012    2    1    2    0    0  0.19570335759E+02  0.74829179713E+01 -0.38008305460E+02  0.47787269741E+02  0.19999994058E+02 0.  0.
        -12    1    1    2    0    0 -0.19570335759E+02 -0.74829179713E+01  0.38008305460E+02  0.43400730259E+02  0.00000000000E+00 0.  1.
         11    1    3    3    0    0  0.70996122994E+01  0.16377367818E+01 -0.16583924410E+02  0.18113895927E+02  0.51100000000E-03 0.  1.
        -11    1    3    3    0    0  0.80473996800E+01  0.10983641031E+02 -0.12658165707E+02  0.18591131521E+02  0.51100000000E-03 0. -1.
        -12    1    3    3    0    0  0.44233237792E+01 -0.51384598416E+01 -0.87662153431E+01  0.11082242293E+02  0.00000000000E+00 0.  1.
</event>
<event>
 7    1  0.3742599E-009  0.4778727E+02  0.7816164E-02  0.1312668E+00
        -11   -1    0    0    0    0  0.00000000000E+00  0.00000000000E+00  0.45593999997E+02  0.45594000000E+02  0.51100000000E-03 0.  1.
         11   -1    0    0    0    0 -0.00000000000E+00 -0.00000000000E+00 -0.45593999997E+02  0.45594000000E+02  0.51100000000E-03 0. -1.
    9900012    2    1    2    0    0 -0.11159480024E+02 -0.13748520567E+02 -0.39624078546E+02  0.47787269444E+02  0.19999992703E+02 0.  0.
        -12    1    1    2    0    0  0.11159480024E+02  0.13748520567E+02  0.39624078546E+02  0.43400730556E+02  0.00000000000E+00 0.  1.
         11    1    3    3    0    0 -0.18070752477E+01 -0.38515216068E+01 -0.10255917285E+02  0.11103313886E+02  0.51100000000E-03 0. -1.
        -11    1    3    3    0    0 -0.22569826082E+01 -0.62407477074E+01 -0.27759083648E+02  0.28541331919E+02  0.51100000000E-03 0.  1.
         12    1    3    3    0    0 -0.70954221684E+01 -0.36562512524E+01 -0.16090776128E+01  0.81426236394E+01  0.00000000000E+00 0. -1.
</event>
<event>
 7    1  0.3742599E-009  0.4778727E+02  0.7816164E-02  0.1312668E+00
        -11   -1    0    0    0    0  0.00000000000E+00  0.00000000000E+00  0.45593999997E+02  0.45594000000E+02  0.51100000000E-03 0.  1.
         11   -1    0    0    0    0 -0.00000000000E+00 -0.00000000000E+00 -0.45593999997E+02  0.45594000000E+02  0.51100000000E-03 0. -1.
    9900012    2    1    2    0    0  0.40161475189E+02 -0.10947221378E+01 -0.16415869384E+02  0.47787271048E+02  0.20000000016E+02 0.  0.
        -12    1    1    2    0    0 -0.40161475189E+02  0.10947221378E+01  0.16415869384E+02  0.43400728952E+02  0.00000000000E+00 0.  1.
         11    1    3    3    0    0  0.17067230197E+02 -0.46567398816E+01 -0.81136634177E+01  0.19462967585E+02  0.51100000000E-03 0. -1.
        -11    1    3    3    0    0  0.98742450821E+01 -0.47055623494E+01 -0.65526469657E+00  0.10957755475E+02  0.51100000000E-03 0.  1.
        -12    1    3    3    0    0  0.13219999910E+02  0.82675800931E+01 -0.76469412695E+01  0.17366547988E+02  0.00000000000E+00 0.  1.
</event>
<event>
 7    1  0.3742599E-009  0.4778727E+02  0.7816164E-02  0.1312668E+00
        -11   -1    0    0    0    0  0.00000000000E+00  0.00000000000E+00  0.45593999997E+02  0.45594000000E+02  0.51100000000E-03 0.  1.
         11   -1    0    0    0    0 -0.00000000000E+00 -0.00000000000E+00 -0.45593999997E+02  0.45594000000E+02  0.51100000000E-03 0. -1.
    9900012    2    1    2    0    0  0.19520485566E+02  0.15232813009E+01 -0.38733107671E+02  0.47787269908E+02  0.19999994819E+02 0.  0.
        -12    1    1    2    0    0 -0.19520485566E+02 -0.15232813009E+01  0.38733107671E+02  0.43400730092E+02  0.00000000000E+00 0.  1.
         11    1    3    3    0    0  0.12116117499E+02 -0.19477895243E+01 -0.12511939149E+02  0.17525490259E+02  0.51100000000E-03 0. -1.
        -11    1    3    3    0    0  0.10800569862E+02  0.33825256560E+01 -0.16890149728E+02  0.20331525945E+02  0.51100000000E-03 0.  1.
         12    1    3    3    0    0 -0.33962017958E+01  0.88545169152E-01 -0.93310187943E+01  0.99302537040E+01  0.00000000000E+00 0. -1.
</event>
<event>
 7    1  0.3742599E-009  0.4778727E+02  0.7816164E-02  0.1312668E+00
        -11   -1    0    0    0    0  0.00000000000E+00  0.00000000000E+00  0.45593999997E+02  0.45594000000E+02  0.51100000000E-03 0. -1.
         11   -1    0    0    0    0 -0.00000000000E+00 -0.00000000000E+00 -0.45593999997E+02  0.45594000000E+02  0.51100000000E-03 0.  1.
    9900012    2    1    2    0    0  0.25915319983E+02 -0.31752610224E+02  0.14275541568E+02  0.47787272438E+02  0.20000006354E+02 0.  0.
        -12    1    1    2    0    0 -0.25915319983E+02  0.31752610224E+02 -0.14275541568E+02  0.43400727562E+02  0.00000000000E+00 0.  1.
         11    1    3    3    0    0  0.19035934844E+02 -0.26736405881E+02  0.17616475518E+02  0.37249730533E+02  0.51100000000E-03 0. -1.
        -11    1    3    3    0    0  0.15850231227E+00  0.53494534805E+00  0.72838605555E+00  0.91751622080E+00  0.51100000000E-03 0.  1.
        -12    1    3    3    0    0  0.67208828266E+01 -0.55511496909E+01 -0.40693200056E+01  0.96200256843E+01  0.00000000000E+00 0.  1.
</event>
<event>
 7    1  0.3742599E-009  0.4778729E+02  0.7816164E-02  0.1312668E+00
        -11   -1    0    0    0    0  0.00000000000E+00  0.00000000000E+00  0.45593999997E+02  0.45594000000E+02  0.51100000000E-03 0. -1.
         11   -1    0    0    0    0 -0.00000000000E+00 -0.00000000000E+00 -0.45593999997E+02  0.45594000000E+02  0.51100000000E-03 0.  1.
    9900012    2    1    2    0    0 -0.20931391602E+02  0.35027202683E+02  0.14784917328E+02  0.47787287303E+02  0.20000074131E+02 0.  0.
        -12    1    1    2    0    0  0.20931391602E+02 -0.35027202683E+02 -0.14784917328E+02  0.43400712697E+02  0.00000000000E+00 0.  1.
         11    1    3    3    0    0 -0.13580096159E+02  0.23259494162E+02  0.10431890776E+02  0.28883341666E+02  0.51100000000E-03 0. -1.
        -11    1    3    3    0    0 -0.89678361204E+01  0.12835865954E+02  0.18926639884E+01  0.15772245139E+02  0.51100000000E-03 0.  1.
         12    1    3    3    0    0  0.16165406778E+01 -0.10681574337E+01  0.24603625642E+01  0.31317004987E+01  0.00000000000E+00 0. -1.
</event>
<event>
 7    1  0.3742599E-009  0.4778728E+02  0.7816164E-02  0.1312668E+00
        -11   -1    0    0    0    0  0.00000000000E+00  0.00000000000E+00  0.45593999997E+02  0.45594000000E+02  0.51100000000E-03 0.  1.
         11   -1    0    0    0    0 -0.00000000000E+00 -0.00000000000E+00 -0.45593999997E+02  0.45594000000E+02  0.51100000000E-03 0. -1.
    9900012    2    1    2    0    0  0.34338760693E+02  0.20130917215E+02 -0.17297935404E+02  0.47787275547E+02  0.20000020528E+02 0.  0.
        -12    1    1    2    0    0 -0.34338760693E+02 -0.20130917215E+02  0.17297935404E+02  0.43400724453E+02  0.00000000000E+00 0.  1.
         11    1    3    3    0    0  0.17705790195E+02  0.63303866877E+01 -0.12818653629E+02  0.22757123789E+02  0.51100000000E-03 0. -1.
        -11    1    3    3    0    0  0.61786112048E+01 -0.59323731375E+00 -0.36940695262E+01  0.72231099158E+01  0.51100000000E-03 0.  1.
         12    1    3    3    0    0  0.10454359293E+02  0.14393767841E+02 -0.78521224969E+00  0.17807041841E+02  0.00000000000E+00 0. -1.
</event>
<event>
 7    1  0.3742599E-009  0.4778725E+02  0.7816164E-02  0.1312668E+00
        -11   -1    0    0    0    0  0.00000000000E+00  0.00000000000E+00  0.45593999997E+02  0.45594000000E+02  0.51100000000E-03 0.  1.
         11   -1    0    0    0    0 -0.00000000000E+00 -0.00000000000E+00 -0.45593999997E+02  0.45594000000E+02  0.51100000000E-03 0. -1.
    9900012    2    1    2    0    0 -0.22718084885E+02  0.17856202412E+02 -0.32383167044E+02  0.47787252850E+02  0.19999917042E+02 0.  0.
        -12    1    1    2    0    0  0.22718084885E+02 -0.17856202412E+02  0.32383167044E+02  0.43400747150E+02  0.00000000000E+00 0.  1.
         11    1    3    3    0    0 -0.18341879913E+01  0.54753378500E+00 -0.11978580783E+01  0.22580750806E+01  0.51100000000E-03 0. -1.
        -11    1    3    3    0    0 -0.19827155145E+02  0.60020924939E+01 -0.25424944030E+02  0.32795868255E+02  0.51100000000E-03 0.  1.
         12    1    3    3    0    0 -0.10567417486E+01  0.11306576133E+02 -0.57603649361E+01  0.12733309514E+02  0.00000000000E+00 0. -1.
</event>
<event>
 7    1  0.3742599E-009  0.4778727E+02  0.7816164E-02  0.1312668E+00
        -11   -1    0    0    0    0  0.00000000000E+00  0.00000000000E+00  0.45593999997E+02  0.45594000000E+02  0.51100000000E-03 0.  1.
         11   -1    0    0    0    0 -0.00000000000E+00 -0.00000000000E+00 -0.45593999997E+02  0.45594000000E+02  0.51100000000E-03 0. -1.
    9900012    2    1    2    0    0 -0.47548143704E+01  0.35026095979E+02 -0.25183084655E+02  0.47787269454E+02  0.19999992747E+02 0.  0.
        -12    1    1    2    0    0  0.47548143704E+01 -0.35026095979E+02  0.25183084655E+02  0.43400730546E+02  0.00000000000E+00 0.  1.
         11    1    3    3    0    0  0.29667020826E+01  0.20543945340E+02 -0.16661327830E+02  0.26616815300E+02  0.51100000000E-03 0. -1.
        -11    1    3    3    0    0 -0.26376765023E+01  0.13953878928E+02 -0.54736132761E+01  0.15219346800E+02  0.51100000000E-03 0.  1.
         12    1    3    3    0    0 -0.50838399507E+01  0.52827171131E+00 -0.30481435486E+01  0.59511073539E+01  0.00000000000E+00 0. -1.
</event>
<event>
 7    1  0.3742599E-009  0.4778727E+02  0.7816164E-02  0.1312668E+00
        -11   -1    0    0    0    0  0.00000000000E+00  0.00000000000E+00  0.45593999997E+02  0.45594000000E+02  0.51100000000E-03 0. -1.
         11   -1    0    0    0    0 -0.00000000000E+00 -0.00000000000E+00 -0.45593999997E+02  0.45594000000E+02  0.51100000000E-03 0.  1.
    9900012    2    1    2    0    0 -0.36305144985E+02  0.22676310086E+02 -0.71655223824E+01  0.47787270714E+02  0.19999998495E+02 0.  0.
        -12    1    1    2    0    0  0.36305144985E+02 -0.22676310086E+02  0.71655223824E+01  0.43400729286E+02  0.00000000000E+00 0.  1.
         11    1    3    3    0    0 -0.15739552222E+02  0.69015256210E+01 -0.62973441044E+01  0.18303581701E+02  0.51100000000E-03 0. -1.
        -11    1    3    3    0    0 -0.18292121694E+02  0.17260757363E+02 -0.38579579324E+01  0.25444435550E+02  0.51100000000E-03 0.  1.
         12    1    3    3    0    0 -0.22734710692E+01 -0.14859728980E+01  0.29897796543E+01  0.40392534629E+01  0.00000000000E+00 0. -1.
</event>
<event>
 7    1  0.3742599E-009  0.4778727E+02  0.7816164E-02  0.1312668E+00
        -11   -1    0    0    0    0  0.00000000000E+00  0.00000000000E+00  0.45593999997E+02  0.45594000000E+02  0.51100000000E-03 0.  1.
         11   -1    0    0    0    0 -0.00000000000E+00 -0.00000000000E+00 -0.45593999997E+02  0.45594000000E+02  0.51100000000E-03 0. -1.
    9900012    2    1    2    0    0  0.37427629606E+02 -0.69868376187E+01 -0.20832187225E+02  0.47787269794E+02  0.19999994301E+02 0.  0.
        -12    1    1    2    0    0 -0.37427629606E+02  0.69868376187E+01  0.20832187225E+02  0.43400730206E+02  0.00000000000E+00 0.  1.
         11    1    3    3    0    0  0.11823834400E+02 -0.85636841184E+01 -0.10671051112E+02  0.18083447617E+02  0.51100000000E-03 0. -1.
        -11    1    3    3    0    0  0.15811512041E+02 -0.28913618085E+01 -0.20031713710E+01  0.16198042534E+02  0.51100000000E-03 0.  1.
        -12    1    3    3    0    0  0.97922831636E+01  0.44682083081E+01 -0.81579647418E+01  0.13505779643E+02  0.00000000000E+00 0.  1.
</event>
<event>
 7    1  0.3742599E-009  0.4778727E+02  0.7816164E-02  0.1312668E+00
        -11   -1    0    0    0    0  0.00000000000E+00  0.00000000000E+00  0.45593999997E+02  0.45594000000E+02  0.51100000000E-03 0.  1.
         11   -1    0    0    0    0 -0.00000000000E+00 -0.00000000000E+00 -0.45593999997E+02  0.45594000000E+02  0.51100000000E-03 0. -1.
    9900012    2    1    2    0    0 -0.25998913819E+02  0.23469230695E+01 -0.34672346389E+02  0.47787272221E+02  0.20000005365E+02 0.  0.
        -12    1    1    2    0    0  0.25998913819E+02 -0.23469230695E+01  0.34672346389E+02  0.43400727779E+02  0.00000000000E+00 0.  1.
         11    1    3    3    0    0 -0.13578370584E+02  0.12572321747E+01 -0.35145432096E+01  0.14082073523E+02  0.51100000000E-03 0. -1.
        -11    1    3    3    0    0 -0.18951735775E+01  0.13471190254E+01 -0.55157930921E+01  0.59858488331E+01  0.51100000000E-03 0.  1.
         12    1    3    3    0    0 -0.10525369657E+02 -0.25742813061E+00 -0.25642010087E+02  0.27719349865E+02  0.00000000000E+00 0. -1.
</event>
<event>
 7    1  0.3742599E-009  0.4778726E+02  0.7816164E-02  0.1312668E+00
        -11   -1    0    0    0    0  0.00000000000E+00  0.00000000000E+00  0.45593999997E+02  0.45594000000E+02  0.51100000000E-03 0. -1.
         11   -1    0    0    0    0 -0.00000000000E+00 -0.00000000000E+00 -0.45593999997E+02  0.45594000000E+02  0.51100000000E-03 0.  1.
    9900012    2    1    2    0    0  0.81590970161E+00 -0.42461407584E+02  0.89435719481E+01  0.47787258971E+02  0.19999944954E+02 0.  0.
        -12    1    1    2    0    0 -0.81590970161E+00  0.42461407584E+02 -0.89435719481E+01  0.43400741029E+02  0.00000000000E+00 0.  1.
         11    1    3    3    0    0 -0.67593545427E+01 -0.17695664405E+02  0.71452180578E+01  0.20245482309E+02  0.51100000000E-03 0. -1.
        -11    1    3    3    0    0 -0.36398446974E+00  0.39016001625E-01 -0.12659226463E+01  0.13177888109E+01  0.51100000000E-03 0.  1.
        -12    1    3    3    0    0  0.79392487141E+01 -0.24804759180E+02  0.30642765366E+01  0.26223987852E+02  0.00000000000E+00 0.  1.
</event>
<event>
 7    1  0.3742599E-009  0.4778727E+02  0.7816164E-02  0.1312668E+00
        -11   -1    0    0    0    0  0.00000000000E+00  0.00000000000E+00  0.45593999997E+02  0.45594000000E+02  0.51100000000E-03 0.  1.
         11   -1    0    0    0    0 -0.00000000000E+00 -0.00000000000E+00 -0.45593999997E+02  0.45594000000E+02  0.51100000000E-03 0. -1.
    9900012    2    1    2    0    0 -0.34722325470E+02  0.76282026787E+01 -0.24895658025E+02  0.47787272464E+02  0.20000006473E+02 0.  0.
        -12    1    1    2    0    0  0.34722325470E+02 -0.76282026787E+01  0.24895658025E+02  0.43400727536E+02  0.00000000000E+00 0.  1.
         11    1    3    3    0    0 -0.22072525773E+01  0.32074791110E+00  0.13085624450E+01  0.25859580615E+01  0.51100000000E-03 0. -1.
        -11    1    3    3    0    0 -0.26696234259E+01  0.30415126287E+01  0.14416186702E+01  0.42960392175E+01  0.51100000000E-03 0.  1.
         12    1    3    3    0    0 -0.29845449467E+02  0.42659421389E+01 -0.27645839140E+02  0.40905275185E+02  0.00000000000E+00 0. -1.
</event>
<event>
 7    1  0.3742599E-009  0.4778727E+02  0.7816164E-02  0.1312668E+00
        -11   -1    0    0    0    0  0.00000000000E+00  0.00000000000E+00  0.45593999997E+02  0.45594000000E+02  0.51100000000E-03 0.  1.
         11   -1    0    0    0    0 -0.00000000000E+00 -0.00000000000E+00 -0.45593999997E+02  0.45594000000E+02  0.51100000000E-03 0. -1.
    9900012    2    1    2    0    0  0.40364213871E+02 -0.12150381162E+02 -0.10330619863E+02  0.47787271543E+02  0.20000002275E+02 0.  0.
        -12    1    1    2    0    0 -0.40364213871E+02  0.12150381162E+02  0.10330619863E+02  0.43400728457E+02  0.00000000000E+00 0.  1.
         11    1    3    3    0    0  0.39349191893E+01  0.20986606685E+01  0.34529006579E+01  0.56400787975E+01  0.51100000000E-03 0. -1.
        -11    1    3    3    0    0  0.78451167459E+01 -0.59689909724E+01 -0.15828105719E+01  0.99839871571E+01  0.51100000000E-03 0.  1.
         12    1    3    3    0    0  0.28584177936E+02 -0.82800508582E+01 -0.12200709949E+02  0.32163205589E+02  0.00000000000E+00 0. -1.
</event>
<event>
 7    1  0.3742599E-009  0.4778727E+02  0.7816164E-02  0.1312668E+00
        -11   -1    0    0    0    0  0.00000000000E+00  0.00000000000E+00  0.45593999997E+02  0.45594000000E+02  0.51100000000E-03 0. -1.
         11   -1    0    0    0    0 -0.00000000000E+00 -0.00000000000E+00 -0.45593999997E+02  0.45594000000E+02  0.51100000000E-03 0.  1.
    9900012    2    1    2    0    0 -0.21382218739E+02 -0.15788075509E+02  0.34309778772E+02  0.47787268141E+02  0.19999986762E+02 0.  0.
        -12    1    1    2    0    0  0.21382218739E+02  0.15788075509E+02 -0.34309778772E+02  0.43400731859E+02  0.00000000000E+00 0.  1.
         11    1    3    3    0    0 -0.19073605922E+02 -0.85901282952E+01  0.14529148191E+02  0.25469371692E+02  0.51100000000E-03 0. -1.
        -11    1    3    3    0    0 -0.39159750179E+00  0.78137191838E+00  0.74811714959E+01  0.75320527010E+01  0.51100000000E-03 0.  1.
         12    1    3    3    0    0 -0.19170153160E+01 -0.79793191326E+01  0.12299459085E+02  0.14785843748E+02  0.00000000000E+00 0. -1.
</event>
<event>
 7    1  0.3742599E-009  0.4778725E+02  0.7816164E-02  0.1312668E+00
        -11   -1    0    0    0    0  0.00000000000E+00  0.00000000000E+00  0.45593999997E+02  0.45594000000E+02  0.51100000000E-03 0.  1.
         11   -1    0    0    0    0 -0.00000000000E+00 -0.00000000000E+00 -0.45593999997E+02  0.45594000000E+02  0.51100000000E-03 0. -1.
    9900012    2    1    2    0    0 -0.96888455613E+01  0.21667476308E+02 -0.36335539291E+02  0.47787254921E+02  0.19999926486E+02 0.  0.
        -12    1    1    2    0    0  0.96888455613E+01 -0.21667476308E+02  0.36335539291E+02  0.43400745079E+02  0.00000000000E+00 0.  1.
         11    1    3    3    0    0 -0.38145155788E+01 -0.73520510250E+00 -0.31081783733E+01  0.49751209739E+01  0.51100000000E-03 0. -1.
        -11    1    3    3    0    0 -0.28732290823E+01  0.56519071852E+01 -0.10705441845E+01  0.64300517340E+01  0.51100000000E-03 0.  1.
         12    1    3    3    0    0 -0.30011009001E+01  0.16750774225E+02 -0.32156816733E+02  0.36382082213E+02  0.00000000000E+00 0. -1.
</event>
<event>
 7    1  0.3742599E-009  0.4778727E+02  0.7816164E-02  0.1312668E+00
        -11   -1    0    0    0    0  0.00000000000E+00  0.00000000000E+00  0.45593999997E+02  0.45594000000E+02  0.51100000000E-03 0.  1.
         11   -1    0    0    0    0 -0.00000000000E+00 -0.00000000000E+00 -0.45593999997E+02  0.45594000000E+02  0.51100000000E-03 0. -1.
    9900012    2    1    2    0    0  0.37716694595E+02  0.13241085779E+02 -0.16904069516E+02  0.47787274545E+02  0.20000015961E+02 0.  0.
        -12    1    1    2    0    0 -0.37716694595E+02 -0.13241085779E+02  0.16904069516E+02  0.43400725455E+02  0.00000000000E+00 0.  1.
         11    1    3    3    0    0  0.75776127389E+01  0.14359252274E+01 -0.12152577693E+02  0.14393305421E+02  0.51100000000E-03 0. -1.
        -11    1    3    3    0    0  0.12353009666E+02  0.22725880098E+01 -0.40686912339E+01  0.13202869108E+02  0.51100000000E-03 0.  1.
        -12    1    3    3    0    0  0.17786072191E+02  0.95325725420E+01 -0.68280058929E+00  0.20191100017E+02  0.00000000000E+00 0.  1.
</event>
<event>
 7    1  0.3742599E-009  0.4778727E+02  0.7816164E-02  0.1312668E+00
        -11   -1    0    0    0    0  0.00000000000E+00  0.00000000000E+00  0.45593999997E+02  0.45594000000E+02  0.51100000000E-03 0.  1.
         11   -1    0    0    0    0 -0.00000000000E+00 -0.00000000000E+00 -0.45593999997E+02  0.45594000000E+02  0.51100000000E-03 0. -1.
    9900012    2    1    2    0    0 -0.30979817083E+02 -0.32720198312E+01 -0.30218674118E+02  0.47787269064E+02  0.19999990971E+02 0.  0.
        -12    1    1    2    0    0  0.30979817083E+02  0.32720198312E+01  0.30218674118E+02  0.43400730936E+02  0.00000000000E+00 0.  1.
         11    1    3    3    0    0 -0.69476989285E+01 -0.82441961402E+00 -0.82542869131E+01  0.10820510192E+02  0.51100000000E-03 0. -1.
        -11    1    3    3    0    0 -0.19641054929E+02  0.32291659736E+01 -0.22160348182E+02  0.29787238600E+02  0.51100000000E-03 0.  1.
         12    1    3    3    0    0 -0.43910632257E+01 -0.56767661908E+01  0.19596097657E+00  0.71795202724E+01  0.00000000000E+00 0. -1.
</event>
<event>
 7    1  0.3742599E-009  0.4778727E+02  0.7816164E-02  0.1312668E+00
        -11   -1    0    0    0    0  0.00000000000E+00  0.00000000000E+00  0.45593999997E+02  0.45594000000E+02  0.51100000000E-03 0.  1.
         11   -1    0    0    0    0 -0.00000000000E+00 -0.00000000000E+00 -0.45593999997E+02  0.45594000000E+02  0.51100000000E-03 0. -1.
    9900012    2    1    2    0    0  0.32320324759E+01  0.19881764229E+02 -0.38443373616E+02  0.47787267774E+02  0.19999985087E+02 0.  0.
        -12    1    1    2    0    0 -0.32320324759E+01 -0.19881764229E+02  0.38443373616E+02  0.43400732226E+02  0.00000000000E+00 0.  1.
         11    1    3    3    0    0 -0.10824636718E+01  0.34513964920E+01 -0.54062245736E+01  0.65047005886E+01  0.51100000000E-03 0. -1.
        -11    1    3    3    0    0 -0.68738046342E+01  0.41770960912E+01 -0.12734006682E+02  0.15061615064E+02  0.51100000000E-03 0.  1.
         12    1    3    3    0    0  0.11188300782E+02  0.12253271645E+02 -0.20303142361E+02  0.26220952121E+02  0.00000000000E+00 0. -1.
</event>
<event>
 7    1  0.3742599E-009  0.4778727E+02  0.7816164E-02  0.1312668E+00
        -11   -1    0    0    0    0  0.00000000000E+00  0.00000000000E+00  0.45593999997E+02  0.45594000000E+02  0.51100000000E-03 0. -1.
         11   -1    0    0    0    0 -0.00000000000E+00 -0.00000000000E+00 -0.45593999997E+02  0.45594000000E+02  0.51100000000E-03 0.  1.
    9900012    2    1    2    0    0 -0.46368291069E+01 -0.20472424904E+02  0.37986877566E+02  0.47787271517E+02  0.20000002156E+02 0.  0.
        -12    1    1    2    0    0  0.46368291069E+01  0.20472424904E+02 -0.37986877566E+02  0.43400728483E+02  0.00000000000E+00 0.  1.
         11    1    3    3    0    0 -0.24124997711E+01  0.13787647539E+01  0.18277843441E+01  0.33259499789E+01  0.51100000000E-03 0. -1.
        -11    1    3    3    0    0 -0.31748110267E+01 -0.99319421064E+01  0.60271595834E+01  0.12043651936E+02  0.51100000000E-03 0.  1.
         12    1    3    3    0    0  0.95048169093E+00 -0.11919247552E+02  0.30131933638E+02  0.32417669602E+02  0.00000000000E+00 0. -1.
</event>
<event>
 7    1  0.3742599E-009  0.4778727E+02  0.7816164E-02  0.1312668E+00
        -11   -1    0    0    0    0  0.00000000000E+00  0.00000000000E+00  0.45593999997E+02  0.45594000000E+02  0.51100000000E-03 0.  1.
         11   -1    0    0    0    0 -0.00000000000E+00 -0.00000000000E+00 -0.45593999997E+02  0.45594000000E+02  0.51100000000E-03 0. -1.
    9900012    2    1    2    0    0  0.84945157369E+00  0.43337618311E+02 -0.21800242361E+01  0.47787271497E+02  0.20000002066E+02 0.  0.
        -12    1    1    2    0    0 -0.84945157369E+00 -0.43337618311E+02  0.21800242361E+01  0.43400728503E+02  0.00000000000E+00 0.  1.
         11    1    3    3    0    0  0.17360977126E+01  0.68350179961E+01 -0.27399967513E+01  0.75656519040E+01  0.51100000000E-03 0. -1.
        -11    1    3    3    0    0 -0.67535589366E+01  0.17461157733E+02  0.58357954263E+01  0.19610178383E+02  0.51100000000E-03 0.  1.
        -12    1    3    3    0    0  0.58669127977E+01  0.19041442582E+02 -0.52758229111E+01  0.20611441211E+02  0.00000000000E+00 0.  1.
</event>
<event>
 7    1  0.3742599E-009  0.4778728E+02  0.7816164E-02  0.1312668E+00
        -11   -1    0    0    0    0  0.00000000000E+00  0.00000000000E+00  0.45593999997E+02  0.45594000000E+02  0.51100000000E-03 0. -1.
         11   -1    0    0    0    0 -0.00000000000E+00 -0.00000000000E+00 -0.45593999997E+02  0.45594000000E+02  0.51100000000E-03 0.  1.
    9900012    2    1    2    0    0 -0.42692994069E+01 -0.40115995540E+02  0.16003214311E+02  0.47787275537E+02  0.20000020484E+02 0.  0.
        -12    1    1    2    0    0  0.42692994069E+01  0.40115995540E+02 -0.16003214311E+02  0.43400724463E+02  0.00000000000E+00 0.  1.
         11    1    3    3    0    0  0.20096743669E+01 -0.27003986912E+02  0.73649926013E+01  0.28062380806E+02  0.51100000000E-03 0. -1.
        -11    1    3    3    0    0 -0.36989913774E+01 -0.90048814411E+01 -0.94692200686E-01  0.97354709106E+01  0.51100000000E-03 0.  1.
        -12    1    3    3    0    0 -0.25799823964E+01 -0.41071271869E+01  0.87329139107E+01  0.99894238205E+01  0.00000000000E+00 0.  1.
</event>
<event>
 7    1  0.4231442E-009  0.4778727E+02  0.7816164E-02  0.1312668E+00
        -11   -1    0    0    0    0  0.00000000000E+00  0.00000000000E+00  0.45593999997E+02  0.45594000000E+02  0.51100000000E-03 0. -1.
         11   -1    0    0    0    0 -0.00000000000E+00 -0.00000000000E+00 -0.45593999997E+02  0.45594000000E+02  0.51100000000E-03 0.  1.
    9900012    2    1    2    0    0  0.35840198717E+02  0.23445803765E+02 -0.70283419661E+01  0.47787272483E+02  0.20000006557E+02 0.  0.
        -12    1    1    2    0    0 -0.35840198717E+02 -0.23445803765E+02  0.70283419661E+01  0.43400727517E+02  0.00000000000E+00 0.  1.
         11    1    3    3    0    0  0.10865537807E+02  0.86613512388E+01 -0.49316586631E+01  0.14744496415E+02  0.51100000000E-03 0. -1.
        -11    1    3    3    0    0  0.19187248953E+01  0.82063438658E+01  0.21405359844E+01  0.86952561451E+01  0.51100000000E-03 0.  1.
        -12    1    3    3    0    0  0.23055936015E+02  0.65781086606E+01 -0.42372192874E+01  0.24347519922E+02  0.00000000000E+00 0.  1.
</event>
<event>
 7    1  0.3742599E-009  0.4778726E+02  0.7816164E-02  0.1312668E+00
        -11   -1    0    0    0    0  0.00000000000E+00  0.00000000000E+00  0.45593999997E+02  0.45594000000E+02  0.51100000000E-03 0.  1.
         11   -1    0    0    0    0 -0.00000000000E+00 -0.00000000000E+00 -0.45593999997E+02  0.45594000000E+02  0.51100000000E-03 0. -1.
    9900012    2    1    2    0    0 -0.32452402204E+02  0.21475298016E+02 -0.19216584608E+02  0.47787263167E+02  0.19999964083E+02 0.  0.
        -12    1    1    2    0    0  0.32452402204E+02 -0.21475298016E+02  0.19216584608E+02  0.43400736833E+02  0.00000000000E+00 0.  1.
         11    1    3    3    0    0 -0.17008572172E+02  0.64285293256E+01 -0.77376686013E+01  0.19760795335E+02  0.51100000000E-03 0. -1.
        -11    1    3    3    0    0 -0.15000278691E+02  0.13841582728E+02 -0.14303505210E+02  0.24923644091E+02  0.51100000000E-03 0.  1.
        -12    1    3    3    0    0 -0.44355134061E+00  0.12051859627E+01  0.28245892037E+01  0.31028237407E+01  0.00000000000E+00 0.  1.
</event>
<event>
 7    1  0.3742599E-009  0.4778728E+02  0.7816164E-02  0.1312668E+00
        -11   -1    0    0    0    0  0.00000000000E+00  0.00000000000E+00  0.45593999997E+02  0.45594000000E+02  0.51100000000E-03 0. -1.
         11   -1    0    0    0    0 -0.00000000000E+00 -0.00000000000E+00 -0.45593999997E+02  0.45594000000E+02  0.51100000000E-03 0.  1.
    9900012    2    1    2    0    0 -0.16134192029E+02  0.17432453508E+02  0.36323819353E+02  0.47787280650E+02  0.20000043796E+02 0.  0.
        -12    1    1    2    0    0  0.16134192029E+02 -0.17432453508E+02 -0.36323819353E+02  0.43400719350E+02  0.00000000000E+00 0.  1.
         11    1    3    3    0    0 -0.10032673228E+02  0.15940947160E+02  0.32779739525E+02  0.37805815056E+02  0.51100000000E-03 0. -1.
        -11    1    3    3    0    0  0.11672028946E+01 -0.11098118381E+01  0.58148303066E+00  0.17123573486E+01  0.51100000000E-03 0.  1.
        -12    1    3    3    0    0 -0.72687216959E+01  0.26013181852E+01  0.29625967967E+01  0.82691082454E+01  0.00000000000E+00 0.  1.
</event>
<event>
 7    1  0.3742599E-009  0.4778727E+02  0.7816164E-02  0.1312668E+00
        -11   -1    0    0    0    0  0.00000000000E+00  0.00000000000E+00  0.45593999997E+02  0.45594000000E+02  0.51100000000E-03 0.  1.
         11   -1    0    0    0    0 -0.00000000000E+00 -0.00000000000E+00 -0.45593999997E+02  0.45594000000E+02  0.51100000000E-03 0. -1.
    9900012    2    1    2    0    0 -0.10875997848E+02 -0.22799445515E+02 -0.35291948496E+02  0.47787266439E+02  0.19999979004E+02 0.  0.
        -12    1    1    2    0    0  0.10875997848E+02  0.22799445515E+02  0.35291948496E+02  0.43400733561E+02  0.00000000000E+00 0.  1.
         11    1    3    3    0    0 -0.60434448438E+01 -0.15855066724E+02 -0.14486695029E+02  0.22310775412E+02  0.51100000000E-03 0. -1.
        -11    1    3    3    0    0 -0.74779478207E+01 -0.83251118187E+01 -0.18809292507E+02  0.21886449581E+02  0.51100000000E-03 0.  1.
        -12    1    3    3    0    0  0.26453948165E+01  0.13807330272E+01 -0.19959609598E+01  0.35900414455E+01  0.00000000000E+00 0.  1.
</event>
<event>
 7    1  0.3742599E-009  0.4778727E+02  0.7816164E-02  0.1312668E+00
        -11   -1    0    0    0    0  0.00000000000E+00  0.00000000000E+00  0.45593999997E+02  0.45594000000E+02  0.51100000000E-03 0. -1.
         11   -1    0    0    0    0 -0.00000000000E+00 -0.00000000000E+00 -0.45593999997E+02  0.45594000000E+02  0.51100000000E-03 0.  1.
    9900012    2    1    2    0    0  0.33770095727E+02  0.16411493856E+01 -0.27212324784E+02  0.47787270088E+02  0.19999995641E+02 0.  0.
        -12    1    1    2    0    0 -0.33770095727E+02 -0.16411493856E+01  0.27212324784E+02  0.43400729912E+02  0.00000000000E+00 0.  1.
         11    1    3    3    0    0  0.29664613800E+01 -0.18647090706E+01 -0.21683791749E+01  0.41205462677E+01  0.51100000000E-03 0. -1.
        -11    1    3    3    0    0  0.41874162279E+01  0.43206771598E+01  0.13578337035E+01  0.61681778843E+01  0.51100000000E-03 0.  1.
        -12    1    3    3    0    0  0.26616218119E+02 -0.81481870361E+00 -0.26401779312E+02  0.37498545936E+02  0.00000000000E+00 0.  1.
</event>
<event>
 7    1  0.3742599E-009  0.4778726E+02  0.7816164E-02  0.1312668E+00
        -11   -1    0    0    0    0  0.00000000000E+00  0.00000000000E+00  0.45593999997E+02  0.45594000000E+02  0.51100000000E-03 0. -1.
         11   -1    0    0    0    0 -0.00000000000E+00 -0.00000000000E+00 -0.45593999997E+02  0.45594000000E+02  0.51100000000E-03 0.  1.
    9900012    2    1    2    0    0 -0.35225229456E+02  0.17040055891E+02  0.18773484333E+02  0.47787262575E+02  0.19999961386E+02 0.  0.
        -12    1    1    2    0    0  0.35225229456E+02 -0.17040055891E+02 -0.18773484333E+02  0.43400737425E+02  0.00000000000E+00 0.  1.
         11    1    3    3    0    0 -0.12885336169E+02  0.55281913630E+01  0.90925664325E+01  0.16711300144E+02  0.51100000000E-03 0. -1.
        -11    1    3    3    0    0 -0.19935988122E+02  0.93405405956E+01  0.13687496108E+02  0.25923673949E+02  0.51100000000E-03 0.  1.
        -12    1    3    3    0    0 -0.24039051655E+01  0.21713239327E+01 -0.40065782082E+01  0.51522884822E+01  0.00000000000E+00 0.  1.
</event>
<event>
 7    1  0.3742599E-009  0.4778727E+02  0.7816164E-02  0.1312668E+00
        -11   -1    0    0    0    0  0.00000000000E+00  0.00000000000E+00  0.45593999997E+02  0.45594000000E+02  0.51100000000E-03 0. -1.
         11   -1    0    0    0    0 -0.00000000000E+00 -0.00000000000E+00 -0.45593999997E+02  0.45594000000E+02  0.51100000000E-03 0.  1.
    9900012    2    1    2    0    0  0.36576821833E+02  0.15420640664E+02  0.17548892672E+02  0.47787266274E+02  0.19999978250E+02 0.  0.
        -12    1    1    2    0    0 -0.36576821833E+02 -0.15420640664E+02 -0.17548892672E+02  0.43400733726E+02  0.00000000000E+00 0.  1.
         11    1    3    3    0    0  0.44958226585E+01 -0.20263737065E+01 -0.51816182815E+00  0.49585384657E+01  0.51100000000E-03 0. -1.
        -11    1    3    3    0    0  0.79814148203E+01  0.92322980041E+01  0.11462457802E+01  0.12257739947E+02  0.51100000000E-03 0.  1.
         12    1    3    3    0    0  0.24099584355E+02  0.82147163664E+01  0.16920808720E+02  0.30570987861E+02  0.00000000000E+00 0. -1.
</event>
<event>
 7    1  0.3742599E-009  0.4778728E+02  0.7816164E-02  0.1312668E+00
        -11   -1    0    0    0    0  0.00000000000E+00  0.00000000000E+00  0.45593999997E+02  0.45594000000E+02  0.51100000000E-03 0.  1.
         11   -1    0    0    0    0 -0.00000000000E+00 -0.00000000000E+00 -0.45593999997E+02  0.45594000000E+02  0.51100000000E-03 0. -1.
    9900012    2    1    2    0    0  0.14848884103E+02  0.77532396365E+01 -0.40037742282E+02  0.47787275455E+02  0.20000020110E+02 0.  0.
        -12    1    1    2    0    0 -0.14848884103E+02 -0.77532396365E+01  0.40037742282E+02  0.43400724545E+02  0.00000000000E+00 0.  1.
         11    1    3    3    0    0  0.86549565053E+01  0.14838282638E+00 -0.49574419475E+01  0.99752955092E+01  0.51100000000E-03 0. -1.
        -11    1    3    3    0    0  0.61983805104E+01  0.61078344713E+01 -0.12779310918E+02  0.15460800454E+02  0.51100000000E-03 0.  1.
        -12    1    3    3    0    0 -0.44529128543E-02  0.14970223389E+01 -0.22300989416E+02  0.22351179491E+02  0.00000000000E+00 0.  1.
</event>
<event>
 7    1  0.3742599E-009  0.4778727E+02  0.7816164E-02  0.1312668E+00
        -11   -1    0    0    0    0  0.00000000000E+00  0.00000000000E+00  0.45593999997E+02  0.45594000000E+02  0.51100000000E-03 0.  1.
         11   -1    0    0    0    0 -0.00000000000E+00 -0.00000000000E+00 -0.45593999997E+02  0.45594000000E+02  0.51100000000E-03 0. -1.
    9900012    2    1    2    0    0 -0.42410518704E+02  0.92146578613E+01 -0.24692738255E+00  0.47787274322E+02  0.20000014944E+02 0.  0.
        -12    1    1    2    0    0  0.42410518704E+02 -0.92146578613E+01  0.24692738255E+00  0.43400725678E+02  0.00000000000E+00 0.  1.
         11    1    3    3    0    0 -0.84023063454E+01  0.71633153757E+01 -0.22509269755E+01  0.11268474236E+02  0.51100000000E-03 0. -1.
        -11    1    3    3    0    0 -0.78189499583E+01  0.11092139884E+01 -0.50574924929E+01  0.93778763427E+01  0.51100000000E-03 0.  1.
        -12    1    3    3    0    0 -0.26189262400E+02  0.94212849722E+00  0.70614920858E+01  0.27140923743E+02  0.00000000000E+00 0.  1.
</event>
<event>
 7    1  0.3742599E-009  0.4778727E+02  0.7816164E-02  0.1312668E+00
        -11   -1    0    0    0    0  0.00000000000E+00  0.00000000000E+00  0.45593999997E+02  0.45594000000E+02  0.51100000000E-03 0.  1.
         11   -1    0    0    0    0 -0.00000000000E+00 -0.00000000000E+00 -0.45593999997E+02  0.45594000000E+02  0.51100000000E-03 0. -1.
    9900012    2    1    2    0    0  0.32013629761E+02 -0.10926320095E+02 -0.27191298336E+02  0.47787266521E+02  0.19999979376E+02 0.  0.
        -12    1    1    2    0    0 -0.32013629761E+02  0.10926320095E+02  0.27191298336E+02  0.43400733479E+02  0.00000000000E+00 0.  1.
         11    1    3    3    0    0  0.15456466452E+02 -0.80210988208E+01 -0.80180509861E+01  0.19171059526E+02  0.51100000000E-03 0. -1.
        -11    1    3    3    0    0  0.69418314998E+01 -0.43435008992E+01 -0.13298174380E+01  0.82959893511E+01  0.51100000000E-03 0.  1.
        -12    1    3    3    0    0  0.96153318099E+01  0.14382796249E+01 -0.17843429912E+02  0.20320217644E+02  0.00000000000E+00 0.  1.
</event>
<event>
 7    1  0.3742599E-009  0.4778727E+02  0.7816164E-02  0.1312668E+00
        -11   -1    0    0    0    0  0.00000000000E+00  0.00000000000E+00  0.45593999997E+02  0.45594000000E+02  0.51100000000E-03 0.  1.
         11   -1    0    0    0    0 -0.00000000000E+00 -0.00000000000E+00 -0.45593999997E+02  0.45594000000E+02  0.51100000000E-03 0. -1.
    9900012    2    1    2    0    0  0.24338406106E+02 -0.23215460432E+02 -0.27428226364E+02  0.47787271708E+02  0.20000003024E+02 0.  0.
        -12    1    1    2    0    0 -0.24338406106E+02  0.23215460432E+02  0.27428226364E+02  0.43400728292E+02  0.00000000000E+00 0.  1.
         11    1    3    3    0    0  0.14024737926E+02 -0.10937800595E+02 -0.14204602229E+02  0.22761798710E+02  0.51100000000E-03 0. -1.
        -11    1    3    3    0    0  0.12351778674E+02 -0.45093223885E+01 -0.72430312639E+01  0.15012059385E+02  0.51100000000E-03 0.  1.
         12    1    3    3    0    0 -0.20381104943E+01 -0.77683374487E+01 -0.59805928704E+01  0.10013413613E+02  0.00000000000E+00 0. -1.
</event>
<event>
 7    1  0.3742599E-009  0.4778727E+02  0.7816164E-02  0.1312668E+00
        -11   -1    0    0    0    0  0.00000000000E+00  0.00000000000E+00  0.45593999997E+02  0.45594000000E+02  0.51100000000E-03 0.  1.
         11   -1    0    0    0    0 -0.00000000000E+00 -0.00000000000E+00 -0.45593999997E+02  0.45594000000E+02  0.51100000000E-03 0. -1.
    9900012    2    1    2    0    0  0.25547613668E+02 -0.21741370890E+01 -0.35017365561E+02  0.47787270432E+02  0.19999997206E+02 0.  0.
        -12    1    1    2    0    0 -0.25547613668E+02  0.21741370890E+01  0.35017365561E+02  0.43400729568E+02  0.00000000000E+00 0.  1.
         11    1    3    3    0    0  0.21393592091E+02 -0.23916628091E+01 -0.35567900967E+02  0.41575009477E+02  0.51100000000E-03 0. -1.
        -11    1    3    3    0    0  0.37166457445E+00 -0.15033285920E+01 -0.92360850045E+00  0.18031040831E+01  0.51100000000E-03 0.  1.
         12    1    3    3    0    0  0.37823570026E+01  0.17208543121E+01  0.14741439065E+01  0.44091568712E+01  0.00000000000E+00 0. -1.
</event>
<event>
 7    1  0.3742599E-009  0.4778728E+02  0.7816164E-02  0.1312668E+00
        -11   -1    0    0    0    0  0.00000000000E+00  0.00000000000E+00  0.45593999997E+02  0.45594000000E+02  0.51100000000E-03 0.  1.
         11   -1    0    0    0    0 -0.00000000000E+00 -0.00000000000E+00 -0.45593999997E+02  0.45594000000E+02  0.51100000000E-03 0. -1.
    9900012    2    1    2    0    0 -0.12620002554E+02 -0.38767233213E+02 -0.14881521796E+02  0.47787279655E+02  0.20000039261E+02 0.  0.
        -12    1    1    2    0    0  0.12620002554E+02  0.38767233213E+02  0.14881521796E+02  0.43400720345E+02  0.00000000000E+00 0.  1.
         11    1    3    3    0    0  0.16907639563E+01 -0.48757072115E+01 -0.62849517635E+00  0.51986738709E+01  0.51100000000E-03 0. -1.
        -11    1    3    3    0    0 -0.11306067128E+01 -0.19505233291E+02 -0.22159840080E+01  0.19663239374E+02  0.51100000000E-03 0.  1.
        -12    1    3    3    0    0 -0.13180159797E+02 -0.14386292711E+02 -0.12037042611E+02  0.22925366411E+02  0.00000000000E+00 0.  1.
</event>
<event>
 7    1  0.3742599E-009  0.4778727E+02  0.7816164E-02  0.1312668E+00
        -11   -1    0    0    0    0  0.00000000000E+00  0.00000000000E+00  0.45593999997E+02  0.45594000000E+02  0.51100000000E-03 0. -1.
         11   -1    0    0    0    0 -0.00000000000E+00 -0.00000000000E+00 -0.45593999997E+02  0.45594000000E+02  0.51100000000E-03 0.  1.
    9900012    2    1    2    0    0  0.30591993976E+02  0.15576702938E+02  0.26554080217E+02  0.47787274822E+02  0.20000017221E+02 0.  0.
        -12    1    1    2    0    0 -0.30591993976E+02 -0.15576702938E+02 -0.26554080217E+02  0.43400725178E+02  0.00000000000E+00 0.  1.
         11    1    3    3    0    0  0.16842089792E+02  0.94891767412E+01  0.51882898547E+01  0.20015464413E+02  0.51100000000E-03 0. -1.
        -11    1    3    3    0    0  0.89839804908E+00  0.45654240074E+01  0.41532284764E+01  0.62369481688E+01  0.51100000000E-03 0.  1.
         12    1    3    3    0    0  0.12851506135E+02  0.15221021895E+01  0.17212561886E+02  0.21534862240E+02  0.00000000000E+00 0. -1.
</event>
<event>
 7    1  0.3742599E-009  0.4778728E+02  0.7816164E-02  0.1312668E+00
        -11   -1    0    0    0    0  0.00000000000E+00  0.00000000000E+00  0.45593999997E+02  0.45594000000E+02  0.51100000000E-03 0. -1.
         11   -1    0    0    0    0 -0.00000000000E+00 -0.00000000000E+00 -0.45593999997E+02  0.45594000000E+02  0.51100000000E-03 0.  1.
    9900012    2    1    2    0    0 -0.14468364859E+02  0.91955984491E+01  0.39871421487E+02  0.47787275767E+02  0.20000021533E+02 0.  0.
        -12    1    1    2    0    0  0.14468364859E+02 -0.91955984491E+01 -0.39871421487E+02  0.43400724233E+02  0.00000000000E+00 0.  1.
         11    1    3    3    0    0 -0.80652063719E+01  0.23629840820E+01  0.77507427319E+01  0.11432640148E+02  0.51100000000E-03 0. -1.
        -11    1    3    3    0    0 -0.60302758525E+01  0.94280816420E+01  0.13434524558E+02  0.17485405362E+02  0.51100000000E-03 0.  1.
        -12    1    3    3    0    0 -0.37288263484E+00 -0.25954672749E+01  0.18686154197E+02  0.18869230257E+02  0.00000000000E+00 0.  1.
</event>
<event>
 7    1  0.3742599E-009  0.4778727E+02  0.7816164E-02  0.1312668E+00
        -11   -1    0    0    0    0  0.00000000000E+00  0.00000000000E+00  0.45593999997E+02  0.45594000000E+02  0.51100000000E-03 0. -1.
         11   -1    0    0    0    0 -0.00000000000E+00 -0.00000000000E+00 -0.45593999997E+02  0.45594000000E+02  0.51100000000E-03 0.  1.
    9900012    2    1    2    0    0  0.28068860338E+02  0.32149727773E+02  0.78840168937E+01  0.47787266839E+02  0.19999980824E+02 0.  0.
        -12    1    1    2    0    0 -0.28068860338E+02 -0.32149727773E+02 -0.78840168937E+01  0.43400733161E+02  0.00000000000E+00 0.  1.
         11    1    3    3    0    0  0.61413383004E+01  0.58129135436E+01  0.59146766083E+01  0.10319370118E+02  0.51100000000E-03 0. -1.
        -11    1    3    3    0    0 -0.15027409910E+01  0.50195233592E+01 -0.18616127577E+01  0.55605258348E+01  0.51100000000E-03 0.  1.
        -12    1    3    3    0    0  0.23430263029E+02  0.21317290870E+02  0.38309530431E+01  0.31907370886E+02  0.00000000000E+00 0.  1.
</event>
<event>
 7    1  0.3742599E-009  0.4778727E+02  0.7816164E-02  0.1312668E+00
        -11   -1    0    0    0    0  0.00000000000E+00  0.00000000000E+00  0.45593999997E+02  0.45594000000E+02  0.51100000000E-03 0. -1.
         11   -1    0    0    0    0 -0.00000000000E+00 -0.00000000000E+00 -0.45593999997E+02  0.45594000000E+02  0.51100000000E-03 0.  1.
    9900012    2    1    2    0    0 -0.26110317324E+02  0.30328979513E+02  0.16793670851E+02  0.47787273627E+02  0.20000011775E+02 0.  0.
        -12    1    1    2    0    0  0.26110317324E+02 -0.30328979513E+02 -0.16793670851E+02  0.43400726373E+02  0.00000000000E+00 0.  1.
         11    1    3    3    0    0 -0.26258578965E+01  0.10966400565E+02  0.10712682520E+01  0.11327165884E+02  0.51100000000E-03 0. -1.
        -11    1    3    3    0    0 -0.29745341480E+01 -0.11437514002E+01 -0.50429543087E+00  0.32265050450E+01  0.51100000000E-03 0.  1.
         12    1    3    3    0    0 -0.20509925280E+02  0.20506330348E+02  0.16226698030E+02  0.33233602698E+02  0.00000000000E+00 0. -1.
</event>
<event>
 7    1  0.3742599E-009  0.4778728E+02  0.7816164E-02  0.1312668E+00
        -11   -1    0    0    0    0  0.00000000000E+00  0.00000000000E+00  0.45593999997E+02  0.45594000000E+02  0.51100000000E-03 0.  1.
         11   -1    0    0    0    0 -0.00000000000E+00 -0.00000000000E+00 -0.45593999997E+02  0.45594000000E+02  0.51100000000E-03 0. -1.
    9900012    2    1    2    0    0  0.27307295875E+02  0.31466308185E+02 -0.12157539248E+02  0.47787277432E+02  0.20000029125E+02 0.  0.
        -12    1    1    2    0    0 -0.27307295875E+02 -0.31466308185E+02  0.12157539248E+02  0.43400722568E+02  0.00000000000E+00 0.  1.
         11    1    3    3    0    0  0.17686488446E+02  0.12495259340E+02 -0.43366035240E+00  0.21659442308E+02  0.51100000000E-03 0. -1.
        -11    1    3    3    0    0  0.24773570015E+01  0.76602528520E-01 -0.35665003338E+01  0.43431659595E+01  0.51100000000E-03 0.  1.
         12    1    3    3    0    0  0.71434504278E+01  0.18894446317E+02 -0.81573785623E+01  0.21784669165E+02  0.00000000000E+00 0. -1.
</event>
<event>
 7    1  0.3742599E-009  0.4778727E+02  0.7816164E-02  0.1312668E+00
        -11   -1    0    0    0    0  0.00000000000E+00  0.00000000000E+00  0.45593999997E+02  0.45594000000E+02  0.51100000000E-03 0.  1.
         11   -1    0    0    0    0 -0.00000000000E+00 -0.00000000000E+00 -0.45593999997E+02  0.45594000000E+02  0.51100000000E-03 0. -1.
    9900012    2    1    2    0    0  0.95760327468E+01  0.29976033175E+02 -0.29889133195E+02  0.47787271305E+02  0.20000001189E+02 0.  0.
        -12    1    1    2    0    0 -0.95760327468E+01 -0.29976033175E+02  0.29889133195E+02  0.43400728695E+02  0.00000000000E+00 0.  1.
         11    1    3    3    0    0  0.13584668021E+01  0.59082625097E+01  0.12539625142E+01  0.61907527963E+01  0.51100000000E-03 0. -1.
        -11    1    3    3    0    0 -0.11680765237E+01  0.47536193121E+00  0.18117121185E+00  0.12740467024E+01  0.51100000000E-03 0.  1.
         12    1    3    3    0    0  0.93856424684E+01  0.23592408734E+02 -0.31324266921E+02  0.40322471806E+02  0.00000000000E+00 0. -1.
</event>
<event>
 7    1  0.3742599E-009  0.4778728E+02  0.7816164E-02  0.1312668E+00
        -11   -1    0    0    0    0  0.00000000000E+00  0.00000000000E+00  0.45593999997E+02  0.45594000000E+02  0.51100000000E-03 0.  1.
         11   -1    0    0    0    0 -0.00000000000E+00 -0.00000000000E+00 -0.45593999997E+02  0.45594000000E+02  0.51100000000E-03 0. -1.
    9900012    2    1    2    0    0  0.26042964772E+02 -0.27739437239E+02 -0.20878454225E+02  0.47787282917E+02  0.20000054134E+02 0.  0.
        -12    1    1    2    0    0 -0.26042964772E+02  0.27739437239E+02  0.20878454225E+02  0.43400717083E+02  0.00000000000E+00 0.  1.
         11    1    3    3    0    0  0.67218143741E+01 -0.12344480478E+02 -0.53153849084E+01  0.15027385127E+02  0.51100000000E-03 0.  1.
        -11    1    3    3    0    0 -0.12707955437E+00 -0.78152503221E+01 -0.56996909602E+01  0.96737151143E+01  0.51100000000E-03 0. -1.
         12    1    3    3    0    0  0.19448229952E+02 -0.75797064387E+01 -0.98633783569E+01  0.23086182676E+02  0.00000000000E+00 0. -1.
</event>
<event>
 7    1  0.3742599E-009  0.4778728E+02  0.7816164E-02  0.1312668E+00
        -11   -1    0    0    0    0  0.00000000000E+00  0.00000000000E+00  0.45593999997E+02  0.45594000000E+02  0.51100000000E-03 0.  1.
         11   -1    0    0    0    0 -0.00000000000E+00 -0.00000000000E+00 -0.45593999997E+02  0.45594000000E+02  0.51100000000E-03 0. -1.
    9900012    2    1    2    0    0 -0.22001707810E+02 -0.12089084315E+02 -0.35403406381E+02  0.47787282385E+02  0.20000051706E+02 0.  0.
        -12    1    1    2    0    0  0.22001707810E+02  0.12089084315E+02  0.35403406381E+02  0.43400717615E+02  0.00000000000E+00 0.  1.
         11    1    3    3    0    0 -0.11123743898E+02  0.21074377417E+01 -0.15618112463E+02  0.19290008017E+02  0.51100000000E-03 0. -1.
        -11    1    3    3    0    0 -0.40262910710E+00 -0.27775566092E+00  0.11573757756E+01  0.12564940717E+01  0.51100000000E-03 0.  1.
         12    1    3    3    0    0 -0.10475334806E+02 -0.13918766395E+02 -0.20942669693E+02  0.27240780296E+02  0.00000000000E+00 0. -1.
</event>
<event>
 7    1  0.3742599E-009  0.4778727E+02  0.7816164E-02  0.1312668E+00
        -11   -1    0    0    0    0  0.00000000000E+00  0.00000000000E+00  0.45593999997E+02  0.45594000000E+02  0.51100000000E-03 0.  1.
         11   -1    0    0    0    0 -0.00000000000E+00 -0.00000000000E+00 -0.45593999997E+02  0.45594000000E+02  0.51100000000E-03 0. -1.
    9900012    2    1    2    0    0  0.24871033529E+02 -0.13480247280E+02 -0.32914094116E+02  0.47787274580E+02  0.20000016119E+02 0.  0.
        -12    1    1    2    0    0 -0.24871033529E+02  0.13480247280E+02  0.32914094116E+02  0.43400725420E+02  0.00000000000E+00 0.  1.
         11    1    3    3    0    0  0.69780766508E+01  0.19972814774E+01 -0.85929313654E+01  0.11248162372E+02  0.51100000000E-03 0. -1.
        -11    1    3    3    0    0  0.89426247038E+01 -0.36306068489E+01 -0.17953771768E+02  0.20383566018E+02  0.51100000000E-03 0.  1.
        -12    1    3    3    0    0  0.89503321744E+01 -0.11846921908E+02 -0.63673909832E+01  0.16155546189E+02  0.00000000000E+00 0.  1.
</event>
<event>
 7    1  0.3742599E-009  0.4778727E+02  0.7816164E-02  0.1312668E+00
        -11   -1    0    0    0    0  0.00000000000E+00  0.00000000000E+00  0.45593999997E+02  0.45594000000E+02  0.51100000000E-03 0.  1.
         11   -1    0    0    0    0 -0.00000000000E+00 -0.00000000000E+00 -0.45593999997E+02  0.45594000000E+02  0.51100000000E-03 0. -1.
    9900012    2    1    2    0    0  0.42952981597E+02 -0.50771588313E+01  0.35898720411E+01  0.47787270154E+02  0.19999995942E+02 0.  0.
        -12    1    1    2    0    0 -0.42952981597E+02  0.50771588313E+01 -0.35898720411E+01  0.43400729846E+02  0.00000000000E+00 0.  1.
         11    1    3    3    0    0  0.24802080137E+02  0.81182960929E+00  0.64196057272E+01  0.25632276224E+02  0.51100000000E-03 0. -1.
        -11    1    3    3    0    0  0.19174499685E+02 -0.47057866014E+01 -0.10300709720E+01  0.19770354377E+02  0.51100000000E-03 0.  1.
        -12    1    3    3    0    0 -0.10235982254E+01 -0.11832018392E+01 -0.17996627141E+01  0.23846395543E+01  0.00000000000E+00 0.  1.
</event>
<event>
 7    1  0.3742599E-009  0.4778727E+02  0.7816164E-02  0.1312668E+00
        -11   -1    0    0    0    0  0.00000000000E+00  0.00000000000E+00  0.45593999997E+02  0.45594000000E+02  0.51100000000E-03 0. -1.
         11   -1    0    0    0    0 -0.00000000000E+00 -0.00000000000E+00 -0.45593999997E+02  0.45594000000E+02  0.51100000000E-03 0.  1.
    9900012    2    1    2    0    0 -0.16392604853E+02 -0.40184015386E+02  0.38795536094E+00  0.47787273096E+02  0.20000009355E+02 0.  0.
        -12    1    1    2    0    0  0.16392604853E+02  0.40184015386E+02 -0.38795536094E+00  0.43400726904E+02  0.00000000000E+00 0.  1.
         11    1    3    3    0    0 -0.97257868671E+01 -0.11180341888E+02  0.43107724841E+01  0.15432878364E+02  0.51100000000E-03 0. -1.
        -11    1    3    3    0    0 -0.42571438163E+01 -0.17444953418E+01 -0.16773685566E+01  0.48969483360E+01  0.51100000000E-03 0.  1.
        -12    1    3    3    0    0 -0.24096741692E+01 -0.27259178156E+02 -0.22454485666E+01  0.27457446397E+02  0.00000000000E+00 0.  1.
</event>
<event>
 7    1  0.3742599E-009  0.4778727E+02  0.7816164E-02  0.1312668E+00
        -11   -1    0    0    0    0  0.00000000000E+00  0.00000000000E+00  0.45593999997E+02  0.45594000000E+02  0.51100000000E-03 0. -1.
         11   -1    0    0    0    0 -0.00000000000E+00 -0.00000000000E+00 -0.45593999997E+02  0.45594000000E+02  0.51100000000E-03 0.  1.
    9900012    2    1    2    0    0  0.22123127530E+02  0.25598740902E+02  0.27182626674E+02  0.47787268434E+02  0.19999988100E+02 0.  0.
        -12    1    1    2    0    0 -0.22123127530E+02 -0.25598740902E+02 -0.27182626674E+02  0.43400731566E+02  0.00000000000E+00 0.  1.
         11    1    3    3    0    0  0.28089029301E+01  0.72459243970E+01  0.50562321152E+01  0.92713990045E+01  0.51100000000E-03 0.  1.
        -11    1    3    3    0    0  0.42620255869E+01 -0.25121156345E+01  0.73101841500E+01  0.88269122366E+01  0.51100000000E-03 0. -1.
         12    1    3    3    0    0  0.15052199013E+02  0.20864932140E+02  0.14816210409E+02  0.29688957193E+02  0.00000000000E+00 0. -1.
</event>
<event>
 7    1  0.3742599E-009  0.4778727E+02  0.7816164E-02  0.1312668E+00
        -11   -1    0    0    0    0  0.00000000000E+00  0.00000000000E+00  0.45593999997E+02  0.45594000000E+02  0.51100000000E-03 0.  1.
         11   -1    0    0    0    0 -0.00000000000E+00 -0.00000000000E+00 -0.45593999997E+02  0.45594000000E+02  0.51100000000E-03 0. -1.
    9900012    2    1    2    0    0  0.18211857808E+01 -0.26881367531E+02 -0.34024966096E+02  0.47787274708E+02  0.20000016705E+02 0.  0.
        -12    1    1    2    0    0 -0.18211857808E+01  0.26881367531E+02  0.34024966096E+02  0.43400725292E+02  0.00000000000E+00 0.  1.
         11    1    3    3    0    0 -0.65128375273E+01 -0.81814894220E+01 -0.95402356750E+01  0.14155208187E+02  0.51100000000E-03 0. -1.
        -11    1    3    3    0    0  0.17639580632E+01 -0.34961338254E+01  0.18258414214E+00  0.39201832870E+01  0.51100000000E-03 0.  1.
        -12    1    3    3    0    0  0.65700652449E+01 -0.15203744284E+02 -0.24667314563E+02  0.29711883234E+02  0.00000000000E+00 0.  1.
</event>
<event>
 7    1  0.3742599E-009  0.4778727E+02  0.7816164E-02  0.1312668E+00
        -11   -1    0    0    0    0  0.00000000000E+00  0.00000000000E+00  0.45593999997E+02  0.45594000000E+02  0.51100000000E-03 0.  1.
         11   -1    0    0    0    0 -0.00000000000E+00 -0.00000000000E+00 -0.45593999997E+02  0.45594000000E+02  0.51100000000E-03 0. -1.
    9900012    2    1    2    0    0  0.27633350217E+02  0.32932486482E+02 -0.59558570717E+01  0.47787274850E+02  0.20000017350E+02 0.  0.
        -12    1    1    2    0    0 -0.27633350217E+02 -0.32932486482E+02  0.59558570717E+01  0.43400725150E+02  0.00000000000E+00 0.  1.
         11    1    3    3    0    0  0.77904998371E+01  0.21068909704E+02 -0.70387157510E+01  0.23540058698E+02  0.51100000000E-03 0. -1.
        -11    1    3    3    0    0  0.77533337424E+01  0.49337260494E+01 -0.30989916392E+01  0.96984321564E+01  0.51100000000E-03 0.  1.
         12    1    3    3    0    0  0.12089516638E+02  0.69298507286E+01  0.41818503185E+01  0.14548783995E+02  0.00000000000E+00 0. -1.
</event>
<event>
 7    1  0.3742599E-009  0.4778727E+02  0.7816164E-02  0.1312668E+00
        -11   -1    0    0    0    0  0.00000000000E+00  0.00000000000E+00  0.45593999997E+02  0.45594000000E+02  0.51100000000E-03 0.  1.
         11   -1    0    0    0    0 -0.00000000000E+00 -0.00000000000E+00 -0.45593999997E+02  0.45594000000E+02  0.51100000000E-03 0. -1.
    9900012    2    1    2    0    0 -0.19318466194E+02 -0.19235603793E+02 -0.33769980410E+02  0.47787272284E+02  0.20000005651E+02 0.  0.
        -12    1    1    2    0    0  0.19318466194E+02  0.19235603793E+02  0.33769980410E+02  0.43400727716E+02  0.00000000000E+00 0.  1.
         11    1    3    3    0    0 -0.80950410483E+01 -0.15270757287E+02 -0.10037202171E+02  0.19986774261E+02  0.51100000000E-03 0. -1.
        -11    1    3    3    0    0 -0.35599957850E+01 -0.55693861062E+01 -0.11882697870E+02  0.13597431394E+02  0.51100000000E-03 0.  1.
         12    1    3    3    0    0 -0.76634293611E+01  0.16045395997E+01 -0.11850080370E+02  0.14203066629E+02  0.00000000000E+00 0. -1.
</event>
<event>
 7    1  0.3742599E-009  0.4778727E+02  0.7816164E-02  0.1312668E+00
        -11   -1    0    0    0    0  0.00000000000E+00  0.00000000000E+00  0.45593999997E+02  0.45594000000E+02  0.51100000000E-03 0.  1.
         11   -1    0    0    0    0 -0.00000000000E+00 -0.00000000000E+00 -0.45593999997E+02  0.45594000000E+02  0.51100000000E-03 0. -1.
    9900012    2    1    2    0    0 -0.41813782208E+01  0.78606703036E+01 -0.42477631956E+02  0.47787270996E+02  0.19999999779E+02 0.  0.
        -12    1    1    2    0    0  0.41813782208E+01 -0.78606703036E+01  0.42477631956E+02  0.43400729004E+02  0.00000000000E+00 0.  1.
         11    1    3    3    0    0 -0.48393010098E+01  0.54138586089E+01 -0.21756401465E+02  0.22936209458E+02  0.51100000000E-03 0. -1.
        -11    1    3    3    0    0  0.88593183835E+00  0.74657301320E+01 -0.17033348637E+02  0.18618726264E+02  0.51100000000E-03 0.  1.
        -12    1    3    3    0    0 -0.22800904933E+00 -0.50189184373E+01 -0.36878818536E+01  0.62323352745E+01  0.00000000000E+00 0.  1.
</event>
<event>
 7    1  0.3742599E-009  0.4778727E+02  0.7816164E-02  0.1312668E+00
        -11   -1    0    0    0    0  0.00000000000E+00  0.00000000000E+00  0.45593999997E+02  0.45594000000E+02  0.51100000000E-03 0.  1.
         11   -1    0    0    0    0 -0.00000000000E+00 -0.00000000000E+00 -0.45593999997E+02  0.45594000000E+02  0.51100000000E-03 0. -1.
    9900012    2    1    2    0    0 -0.10541355680E+02  0.27552551935E+02 -0.31833320430E+02  0.47787267434E+02  0.19999983537E+02 0.  0.
        -12    1    1    2    0    0  0.10541355680E+02 -0.27552551935E+02  0.31833320430E+02  0.43400732566E+02  0.00000000000E+00 0.  1.
         11    1    3    3    0    0  0.98526084676E+00 -0.10854053980E+01 -0.33770134526E+00  0.15042892920E+01  0.51100000000E-03 0.  1.
        -11    1    3    3    0    0 -0.77523439084E+01  0.21984404528E+02 -0.30764237115E+02  0.38598590182E+02  0.51100000000E-03 0. -1.
         12    1    3    3    0    0 -0.37742726184E+01  0.66535528051E+01 -0.73138196997E+00  0.76843879596E+01  0.00000000000E+00 0. -1.
</event>
<event>
 7    1  0.3742599E-009  0.4778727E+02  0.7816164E-02  0.1312668E+00
        -11   -1    0    0    0    0  0.00000000000E+00  0.00000000000E+00  0.45593999997E+02  0.45594000000E+02  0.51100000000E-03 0.  1.
         11   -1    0    0    0    0 -0.00000000000E+00 -0.00000000000E+00 -0.45593999997E+02  0.45594000000E+02  0.51100000000E-03 0. -1.
    9900012    2    1    2    0    0 -0.30669787862E+02  0.68373310020E+01 -0.29937240497E+02  0.47787270153E+02  0.19999995933E+02 0.  0.
        -12    1    1    2    0    0  0.30669787862E+02 -0.68373310020E+01  0.29937240497E+02  0.43400729847E+02  0.00000000000E+00 0.  1.
         11    1    3    3    0    0 -0.78942966127E+01  0.58075879494E+01 -0.88064980793E+01  0.13175826558E+02  0.51100000000E-03 0. -1.
        -11    1    3    3    0    0 -0.10675742649E+02  0.66793096437E+01 -0.15868783825E+02  0.20258404645E+02  0.51100000000E-03 0.  1.
        -12    1    3    3    0    0 -0.12099748600E+02 -0.56495665912E+01 -0.52619585927E+01  0.14353038950E+02  0.00000000000E+00 0.  1.
</event>
<event>
 7    1  0.3742599E-009  0.4778727E+02  0.7816164E-02  0.1312668E+00
        -11   -1    0    0    0    0  0.00000000000E+00  0.00000000000E+00  0.45593999997E+02  0.45594000000E+02  0.51100000000E-03 0. -1.
         11   -1    0    0    0    0 -0.00000000000E+00 -0.00000000000E+00 -0.45593999997E+02  0.45594000000E+02  0.51100000000E-03 0.  1.
    9900012    2    1    2    0    0  0.15239801693E+02 -0.38079171687E+02  0.14189717306E+02  0.47787274785E+02  0.20000017053E+02 0.  0.
        -12    1    1    2    0    0 -0.15239801693E+02  0.38079171687E+02 -0.14189717306E+02  0.43400725215E+02  0.00000000000E+00 0.  1.
         11    1    3    3    0    0  0.11561479132E+01 -0.22277344074E+02  0.41379410747E+01  0.22687866660E+02  0.51100000000E-03 0. -1.
        -11    1    3    3    0    0 -0.67192845878E+00  0.38737201519E+00  0.12943709344E+01  0.15089537132E+01  0.51100000000E-03 0.  1.
        -12    1    3    3    0    0  0.14755582239E+02 -0.16189199628E+02  0.87574052974E+01  0.23590454412E+02  0.00000000000E+00 0.  1.
</event>
<event>
 7    1  0.3742599E-009  0.4778727E+02  0.7816164E-02  0.1312668E+00
        -11   -1    0    0    0    0  0.00000000000E+00  0.00000000000E+00  0.45593999997E+02  0.45594000000E+02  0.51100000000E-03 0. -1.
         11   -1    0    0    0    0 -0.00000000000E+00 -0.00000000000E+00 -0.45593999997E+02  0.45594000000E+02  0.51100000000E-03 0.  1.
    9900012    2    1    2    0    0 -0.42440220971E+02 -0.16936351316E+01  0.89208866110E+01  0.47787274500E+02  0.20000015756E+02 0.  0.
        -12    1    1    2    0    0  0.42440220971E+02  0.16936351316E+01 -0.89208866110E+01  0.43400725500E+02  0.00000000000E+00 0.  1.
         11    1    3    3    0    0  0.86507477243E-01  0.65182066810E-01 -0.86295450453E+00  0.86972580936E+00  0.51100000000E-03 0.  1.
        -11    1    3    3    0    0 -0.33319769322E+02  0.43087511675E+01  0.11989904690E+02  0.35672540967E+02  0.51100000000E-03 0. -1.
         12    1    3    3    0    0 -0.92069591258E+01 -0.60675683659E+01 -0.22060635745E+01  0.11245007724E+02  0.00000000000E+00 0. -1.
</event>
<event>
 7    1  0.3742599E-009  0.4778727E+02  0.7816164E-02  0.1312668E+00
        -11   -1    0    0    0    0  0.00000000000E+00  0.00000000000E+00  0.45593999997E+02  0.45594000000E+02  0.51100000000E-03 0. -1.
         11   -1    0    0    0    0 -0.00000000000E+00 -0.00000000000E+00 -0.45593999997E+02  0.45594000000E+02  0.51100000000E-03 0.  1.
    9900012    2    1    2    0    0  0.25707807406E+02 -0.10255620713E+02  0.33429839242E+02  0.47787271094E+02  0.20000000227E+02 0.  0.
        -12    1    1    2    0    0 -0.25707807406E+02  0.10255620713E+02 -0.33429839242E+02  0.43400728906E+02  0.00000000000E+00 0.  1.
         11    1    3    3    0    0  0.21680293155E+01 -0.72865820558E+01  0.12677559006E+02  0.14782257330E+02  0.51100000000E-03 0. -1.
        -11    1    3    3    0    0  0.62788629261E+01  0.78770376981E+00  0.11346902396E+02  0.12992181923E+02  0.51100000000E-03 0.  1.
        -12    1    3    3    0    0  0.17260915164E+02 -0.37567424266E+01  0.94053778395E+01  0.20012831840E+02  0.00000000000E+00 0.  1.
</event>
<event>
 7    1  0.3742599E-009  0.4778727E+02  0.7816164E-02  0.1312668E+00
        -11   -1    0    0    0    0  0.00000000000E+00  0.00000000000E+00  0.45593999997E+02  0.45594000000E+02  0.51100000000E-03 0. -1.
         11   -1    0    0    0    0 -0.00000000000E+00 -0.00000000000E+00 -0.45593999997E+02  0.45594000000E+02  0.51100000000E-03 0.  1.
    9900012    2    1    2    0    0  0.11043522729E+02 -0.38091444871E+02  0.17626849979E+02  0.47787269513E+02  0.19999993016E+02 0.  0.
        -12    1    1    2    0    0 -0.11043522729E+02  0.38091444871E+02 -0.17626849979E+02  0.43400730487E+02  0.00000000000E+00 0.  1.
         11    1    3    3    0    0  0.12921054155E+01 -0.26671603820E+02  0.10743094934E+02  0.28782947656E+02  0.51100000000E-03 0. -1.
        -11    1    3    3    0    0  0.27587147784E+01 -0.93211513337E+01  0.12881917181E+01  0.98058047899E+01  0.51100000000E-03 0.  1.
        -12    1    3    3    0    0  0.69927025354E+01 -0.20986897171E+01  0.55955633272E+01  0.91985170667E+01  0.00000000000E+00 0.  1.
</event>
<event>
 7    1  0.3742599E-009  0.4778724E+02  0.7816164E-02  0.1312668E+00
        -11   -1    0    0    0    0  0.00000000000E+00  0.00000000000E+00  0.45593999997E+02  0.45594000000E+02  0.51100000000E-03 0. -1.
         11   -1    0    0    0    0 -0.00000000000E+00 -0.00000000000E+00 -0.45593999997E+02  0.45594000000E+02  0.51100000000E-03 0.  1.
    9900012    2    1    2    0    0  0.38821290258E+01  0.29310206839E+02  0.31772105331E+02  0.47787241620E+02  0.19999865844E+02 0.  0.
        -12    1    1    2    0    0 -0.38821290258E+01 -0.29310206839E+02 -0.31772105331E+02  0.43400758380E+02  0.00000000000E+00 0.  1.
         11    1    3    3    0    0 -0.16074424540E+01 -0.12348480038E+00  0.91492522154E+00  0.18537012060E+01  0.51100000000E-03 0. -1.
        -11    1    3    3    0    0  0.37660000216E+01  0.12140054120E+00  0.68079704063E+00  0.38289658037E+01  0.51100000000E-03 0.  1.
         12    1    3    3    0    0  0.17235714582E+01  0.29312291098E+02  0.30176383069E+02  0.42104574611E+02  0.00000000000E+00 0. -1.
</event>
<event>
 7    1  0.3742599E-009  0.4778727E+02  0.7816164E-02  0.1312668E+00
        -11   -1    0    0    0    0  0.00000000000E+00  0.00000000000E+00  0.45593999997E+02  0.45594000000E+02  0.51100000000E-03 0.  1.
         11   -1    0    0    0    0 -0.00000000000E+00 -0.00000000000E+00 -0.45593999997E+02  0.45594000000E+02  0.51100000000E-03 0. -1.
    9900012    2    1    2    0    0  0.42263461991E+02  0.52805786612E+01  0.83389737495E+01  0.47787271738E+02  0.20000003161E+02 0.  0.
        -12    1    1    2    0    0 -0.42263461991E+02 -0.52805786612E+01 -0.83389737495E+01  0.43400728262E+02  0.00000000000E+00 0.  1.
         11    1    3    3    0    0  0.14787783469E+02  0.35249893727E+00  0.34048376766E+01  0.15178791628E+02  0.51100000000E-03 0. -1.
        -11    1    3    3    0    0  0.10330049660E+02 -0.49901964252E+01  0.56495665769E+01  0.12787868826E+02  0.51100000000E-03 0.  1.
        -12    1    3    3    0    0  0.17145628863E+02  0.99182761491E+01 -0.71543050403E+00  0.19820611284E+02  0.00000000000E+00 0.  1.
</event>
<event>
 7    1  0.3742599E-009  0.4778727E+02  0.7816164E-02  0.1312668E+00
        -11   -1    0    0    0    0  0.00000000000E+00  0.00000000000E+00  0.45593999997E+02  0.45594000000E+02  0.51100000000E-03 0. -1.
         11   -1    0    0    0    0 -0.00000000000E+00 -0.00000000000E+00 -0.45593999997E+02  0.45594000000E+02  0.51100000000E-03 0.  1.
    9900012    2    1    2    0    0 -0.34054533336E+02 -0.24139763217E+02  0.11882083566E+02  0.47787270527E+02  0.19999997642E+02 0.  0.
        -12    1    1    2    0    0  0.34054533336E+02  0.24139763217E+02 -0.11882083566E+02  0.43400729473E+02  0.00000000000E+00 0.  1.
         11    1    3    3    0    0 -0.97686409792E+01 -0.12840732101E+01  0.60016704602E+01  0.11536690997E+02  0.51100000000E-03 0. -1.
        -11    1    3    3    0    0 -0.17866952342E+02 -0.13521226508E+02 -0.19316939053E+01  0.22489619692E+02  0.51100000000E-03 0.  1.
         12    1    3    3    0    0 -0.64189400140E+01 -0.93344634986E+01  0.78121070110E+01  0.13760959838E+02  0.00000000000E+00 0. -1.
</event>
<event>
 7    1  0.3742599E-009  0.4778727E+02  0.7816164E-02  0.1312668E+00
        -11   -1    0    0    0    0  0.00000000000E+00  0.00000000000E+00  0.45593999997E+02  0.45594000000E+02  0.51100000000E-03 0. -1.
         11   -1    0    0    0    0 -0.00000000000E+00 -0.00000000000E+00 -0.45593999997E+02  0.45594000000E+02  0.51100000000E-03 0.  1.
    9900012    2    1    2    0    0  0.43284943496E+02 -0.11893712437E+01 -0.29363992100E+01  0.47787269848E+02  0.19999994545E+02 0.  0.
        -12    1    1    2    0    0 -0.43284943496E+02  0.11893712437E+01  0.29363992100E+01  0.43400730152E+02  0.00000000000E+00 0.  1.
         11    1    3    3    0    0  0.75208314233E+01 -0.22337881347E+01  0.55176096251E+01  0.95914926349E+01  0.51100000000E-03 0. -1.
        -11    1    3    3    0    0  0.23607412215E+01 -0.25408028216E+01 -0.19430040775E+01  0.39754299389E+01  0.51100000000E-03 0.  1.
         12    1    3    3    0    0  0.33403370851E+02  0.35852197125E+01 -0.65110047576E+01  0.34220347274E+02  0.00000000000E+00 0. -1.
</event>
<event>
 7    1  0.3742599E-009  0.4778727E+02  0.7816164E-02  0.1312668E+00
        -11   -1    0    0    0    0  0.00000000000E+00  0.00000000000E+00  0.45593999997E+02  0.45594000000E+02  0.51100000000E-03 0. -1.
         11   -1    0    0    0    0 -0.00000000000E+00 -0.00000000000E+00 -0.45593999997E+02  0.45594000000E+02  0.51100000000E-03 0.  1.
    9900012    2    1    2    0    0  0.32379648397E+02 -0.20381144419E+02  0.20488787291E+02  0.47787273245E+02  0.20000010034E+02 0.  0.
        -12    1    1    2    0    0 -0.32379648397E+02  0.20381144419E+02 -0.20488787291E+02  0.43400726755E+02  0.00000000000E+00 0.  1.
         11    1    3    3    0    0  0.19472663455E+02 -0.70052997790E+01  0.13124817494E+02  0.24505503087E+02  0.51100000000E-03 0. -1.
        -11    1    3    3    0    0  0.62402737346E+01  0.17197135103E+00 -0.49025512458E+00  0.62618640017E+01  0.51100000000E-03 0.  1.
         12    1    3    3    0    0  0.66667112078E+01 -0.13547815991E+02  0.78542249219E+01  0.17019906157E+02  0.00000000000E+00 0. -1.
</event>
<event>
 7    1  0.3742599E-009  0.4778727E+02  0.7816164E-02  0.1312668E+00
        -11   -1    0    0    0    0  0.00000000000E+00  0.00000000000E+00  0.45593999997E+02  0.45594000000E+02  0.51100000000E-03 0.  1.
         11   -1    0    0    0    0 -0.00000000000E+00 -0.00000000000E+00 -0.45593999997E+02  0.45594000000E+02  0.51100000000E-03 0. -1.
    9900012    2    1    2    0    0 -0.28866201619E+02 -0.23267331939E+02 -0.22560958009E+02  0.47787272383E+02  0.20000006102E+02 0.  0.
        -12    1    1    2    0    0  0.28866201619E+02  0.23267331939E+02  0.22560958009E+02  0.43400727617E+02  0.00000000000E+00 0.  1.
         11    1    3    3    0    0 -0.23826883641E+01 -0.18946955513E+01  0.16170980941E+01  0.34470395385E+01  0.51100000000E-03 0. -1.
        -11    1    3    3    0    0 -0.17780992058E+02 -0.47532736784E+01 -0.12250160683E+02  0.22109358341E+02  0.51100000000E-03 0.  1.
         12    1    3    3    0    0 -0.87025211966E+01 -0.16619362709E+02 -0.11927895420E+02  0.22230874503E+02  0.00000000000E+00 0. -1.
</event>
<event>
 7    1  0.3742599E-009  0.4778728E+02  0.7816164E-02  0.1312668E+00
        -11   -1    0    0    0    0  0.00000000000E+00  0.00000000000E+00  0.45593999997E+02  0.45594000000E+02  0.51100000000E-03 0.  1.
         11   -1    0    0    0    0 -0.00000000000E+00 -0.00000000000E+00 -0.45593999997E+02  0.45594000000E+02  0.51100000000E-03 0. -1.
    9900012    2    1    2    0    0 -0.15101673169E+02 -0.12584642251E+02 -0.38693528405E+02  0.47787275426E+02  0.20000019978E+02 0.  0.
        -12    1    1    2    0    0  0.15101673169E+02  0.12584642251E+02  0.38693528405E+02  0.43400724574E+02  0.00000000000E+00 0.  1.
         11    1    3    3    0    0  0.31311791495E+00  0.11696247668E+01  0.15106918788E+00  0.12201996085E+01  0.51100000000E-03 0. -1.
        -11    1    3    3    0    0 -0.13239851811E+02 -0.26764739285E+01 -0.15003395445E+02  0.20188092129E+02  0.51100000000E-03 0.  1.
         12    1    3    3    0    0 -0.21749392730E+01 -0.11077793089E+02 -0.23841202148E+02  0.26378983689E+02  0.00000000000E+00 0. -1.
</event>
<event>
 7    1  0.3742599E-009  0.4778727E+02  0.7816164E-02  0.1312668E+00
        -11   -1    0    0    0    0  0.00000000000E+00  0.00000000000E+00  0.45593999997E+02  0.45594000000E+02  0.51100000000E-03 0. -1.
         11   -1    0    0    0    0 -0.00000000000E+00 -0.00000000000E+00 -0.45593999997E+02  0.45594000000E+02  0.51100000000E-03 0.  1.
    9900012    2    1    2    0    0 -0.35820164467E+02  0.21899385624E+02  0.10997995204E+02  0.47787272222E+02  0.20000005367E+02 0.  0.
        -12    1    1    2    0    0  0.35820164467E+02 -0.21899385624E+02 -0.10997995204E+02  0.43400727778E+02  0.00000000000E+00 0.  1.
         11    1    3    3    0    0 -0.25313348975E+02  0.19218322469E+02  0.12063661757E+02  0.33994727387E+02  0.51100000000E-03 0. -1.
        -11    1    3    3    0    0 -0.10639640070E+02  0.47354258504E+01 -0.49553576566E+00  0.11656404023E+02  0.51100000000E-03 0.  1.
         12    1    3    3    0    0  0.13282457759E+00 -0.20543626953E+01 -0.57013078691E+00  0.21361408115E+01  0.00000000000E+00 0. -1.
</event>
<event>
 7    1  0.3742599E-009  0.4778727E+02  0.7816164E-02  0.1312668E+00
        -11   -1    0    0    0    0  0.00000000000E+00  0.00000000000E+00  0.45593999997E+02  0.45594000000E+02  0.51100000000E-03 0. -1.
         11   -1    0    0    0    0 -0.00000000000E+00 -0.00000000000E+00 -0.45593999997E+02  0.45594000000E+02  0.51100000000E-03 0.  1.
    9900012    2    1    2    0    0 -0.81046898536E+01  0.20123873266E+02  0.37589456088E+02  0.47787268649E+02  0.19999989077E+02 0.  0.
        -12    1    1    2    0    0  0.81046898536E+01 -0.20123873266E+02 -0.37589456088E+02  0.43400731351E+02  0.00000000000E+00 0.  1.
         11    1    3    3    0    0  0.29471517640E+01  0.34173972356E+01  0.10299636005E+02  0.11244857023E+02  0.51100000000E-03 0.  1.
        -11    1    3    3    0    0 -0.11186529268E+02  0.73746366468E+01  0.22151859984E+02  0.25888773701E+02  0.51100000000E-03 0. -1.
         12    1    3    3    0    0  0.13468765050E+00  0.93318393835E+01  0.51379600992E+01  0.10653637924E+02  0.00000000000E+00 0. -1.
</event>
<event>
 7    1  0.3742599E-009  0.4778726E+02  0.7816164E-02  0.1312668E+00
        -11   -1    0    0    0    0  0.00000000000E+00  0.00000000000E+00  0.45593999997E+02  0.45594000000E+02  0.51100000000E-03 0. -1.
         11   -1    0    0    0    0 -0.00000000000E+00 -0.00000000000E+00 -0.45593999997E+02  0.45594000000E+02  0.51100000000E-03 0.  1.
    9900012    2    1    2    0    0 -0.33084728379E+02  0.59019887300E+00  0.28083383449E+02  0.47787262534E+02  0.19999961198E+02 0.  0.
        -12    1    1    2    0    0  0.33084728379E+02 -0.59019887300E+00 -0.28083383449E+02  0.43400737466E+02  0.00000000000E+00 0.  1.
         11    1    3    3    0    0 -0.89262297369E+01  0.29413897389E+01  0.11670887600E+01  0.94705568657E+01  0.51100000000E-03 0. -1.
        -11    1    3    3    0    0 -0.10076080699E+00 -0.40310649405E+00 -0.11950087544E+01  0.12651852710E+01  0.51100000000E-03 0.  1.
         12    1    3    3    0    0 -0.24057737835E+02 -0.19480843719E+01  0.28111303443E+02  0.37051520397E+02  0.00000000000E+00 0. -1.
</event>
<event>
 7    1  0.3742599E-009  0.4778728E+02  0.7816164E-02  0.1312668E+00
        -11   -1    0    0    0    0  0.00000000000E+00  0.00000000000E+00  0.45593999997E+02  0.45594000000E+02  0.51100000000E-03 0.  1.
         11   -1    0    0    0    0 -0.00000000000E+00 -0.00000000000E+00 -0.45593999997E+02  0.45594000000E+02  0.51100000000E-03 0. -1.
    9900012    2    1    2    0    0 -0.11822971601E+02  0.81497659423E+01 -0.40956332921E+02  0.47787279399E+02  0.20000038092E+02 0.  0.
        -12    1    1    2    0    0  0.11822971601E+02 -0.81497659423E+01  0.40956332921E+02  0.43400720601E+02  0.00000000000E+00 0.  1.
         11    1    3    3    0    0 -0.51553104500E+01  0.51188324533E+01 -0.19807912046E+02  0.21098176495E+02  0.51100000000E-03 0. -1.
        -11    1    3    3    0    0 -0.92507831818E+01  0.44420758935E+01 -0.21401662481E+02  0.23734788496E+02  0.51100000000E-03 0.  1.
        -12    1    3    3    0    0  0.25831220311E+01 -0.14111424045E+01  0.25324160649E+00  0.29543144086E+01  0.00000000000E+00 0.  1.
</event>
<event>
 7    1  0.3742599E-009  0.4778727E+02  0.7816164E-02  0.1312668E+00
        -11   -1    0    0    0    0  0.00000000000E+00  0.00000000000E+00  0.45593999997E+02  0.45594000000E+02  0.51100000000E-03 0.  1.
         11   -1    0    0    0    0 -0.00000000000E+00 -0.00000000000E+00 -0.45593999997E+02  0.45594000000E+02  0.51100000000E-03 0. -1.
    9900012    2    1    2    0    0  0.24888100926E+02 -0.53026285112E+01 -0.35158045338E+02  0.47787267416E+02  0.19999983458E+02 0.  0.
        -12    1    1    2    0    0 -0.24888100926E+02  0.53026285112E+01  0.35158045338E+02  0.43400732584E+02  0.00000000000E+00 0.  1.
         11    1    3    3    0    0  0.18369754993E+02  0.14988772351E+01 -0.16254759909E+02  0.24574615998E+02  0.51100000000E-03 0. -1.
        -11    1    3    3    0    0  0.65167286828E+01 -0.63265302505E+00 -0.58711939374E+01  0.87942550047E+01  0.51100000000E-03 0.  1.
        -12    1    3    3    0    0  0.16172498268E-02 -0.61688527212E+01 -0.13032091491E+02  0.14418396414E+02  0.00000000000E+00 0.  1.
</event>
<event>
 7    1  0.3742599E-009  0.4778727E+02  0.7816164E-02  0.1312668E+00
        -11   -1    0    0    0    0  0.00000000000E+00  0.00000000000E+00  0.45593999997E+02  0.45594000000E+02  0.51100000000E-03 0. -1.
         11   -1    0    0    0    0 -0.00000000000E+00 -0.00000000000E+00 -0.45593999997E+02  0.45594000000E+02  0.51100000000E-03 0.  1.
    9900012    2    1    2    0    0 -0.41125739345E+02 -0.68061808254E+01  0.12081936410E+02  0.47787265887E+02  0.19999976485E+02 0.  0.
        -12    1    1    2    0    0  0.41125739345E+02  0.68061808254E+01 -0.12081936410E+02  0.43400734113E+02  0.00000000000E+00 0.  1.
         11    1    3    3    0    0 -0.25417947873E+01 -0.24958737749E+01 -0.98524470230E+00  0.36960538450E+01  0.51100000000E-03 0. -1.
        -11    1    3    3    0    0 -0.16392848828E+02 -0.99526094728E+01  0.50539707053E+01  0.19832361134E+02  0.51100000000E-03 0.  1.
         12    1    3    3    0    0 -0.22191095730E+02  0.56423024223E+01  0.80132104071E+01  0.24258850908E+02  0.00000000000E+00 0. -1.
</event>
<event>
 7    1  0.3742599E-009  0.4778727E+02  0.7816164E-02  0.1312668E+00
        -11   -1    0    0    0    0  0.00000000000E+00  0.00000000000E+00  0.45593999997E+02  0.45594000000E+02  0.51100000000E-03 0. -1.
         11   -1    0    0    0    0 -0.00000000000E+00 -0.00000000000E+00 -0.45593999997E+02  0.45594000000E+02  0.51100000000E-03 0.  1.
    9900012    2    1    2    0    0  0.29369635214E+02 -0.31061631507E+02  0.74982012898E+01  0.47787269049E+02  0.19999990903E+02 0.  0.
        -12    1    1    2    0    0 -0.29369635214E+02  0.31061631507E+02 -0.74982012898E+01  0.43400730951E+02  0.00000000000E+00 0.  1.
         11    1    3    3    0    0  0.16036982705E+02 -0.11537623785E+02  0.58109120683E+01  0.20592918108E+02  0.51100000000E-03 0. -1.
        -11    1    3    3    0    0  0.68794385153E+01 -0.11951922994E+01 -0.23121957257E+01  0.73553659496E+01  0.51100000000E-03 0.  1.
         12    1    3    3    0    0  0.64532139933E+01 -0.18328815423E+02  0.39994849471E+01  0.19838984992E+02  0.00000000000E+00 0. -1.
</event>
<event>
 7    1  0.3742599E-009  0.4778727E+02  0.7816164E-02  0.1312668E+00
        -11   -1    0    0    0    0  0.00000000000E+00  0.00000000000E+00  0.45593999997E+02  0.45594000000E+02  0.51100000000E-03 0. -1.
         11   -1    0    0    0    0 -0.00000000000E+00 -0.00000000000E+00 -0.45593999997E+02  0.45594000000E+02  0.51100000000E-03 0.  1.
    9900012    2    1    2    0    0  0.24777269684E+02 -0.66854381343E+01  0.35000212563E+02  0.47787273560E+02  0.20000011469E+02 0.  0.
        -12    1    1    2    0    0 -0.24777269684E+02  0.66854381343E+01 -0.35000212563E+02  0.43400726440E+02  0.00000000000E+00 0.  1.
         11    1    3    3    0    0  0.19246240144E+01 -0.43166537148E+01  0.10693905713E+02  0.11691761909E+02  0.51100000000E-03 0. -1.
        -11    1    3    3    0    0  0.13635799153E+02  0.15930260911E+00  0.22587721383E+02  0.26384949373E+02  0.51100000000E-03 0.  1.
        -12    1    3    3    0    0  0.92168465170E+01 -0.25280870286E+01  0.17185854676E+01  0.97105622778E+01  0.00000000000E+00 0.  1.
</event>
<event>
 7    1  0.3742599E-009  0.4778726E+02  0.7816164E-02  0.1312668E+00
        -11   -1    0    0    0    0  0.00000000000E+00  0.00000000000E+00  0.45593999997E+02  0.45594000000E+02  0.51100000000E-03 0.  1.
         11   -1    0    0    0    0 -0.00000000000E+00 -0.00000000000E+00 -0.45593999997E+02  0.45594000000E+02  0.51100000000E-03 0. -1.
    9900012    2    1    2    0    0 -0.21093046564E+02  0.20814721727E+02 -0.31708905553E+02  0.47787263310E+02  0.19999964734E+02 0.  0.
        -12    1    1    2    0    0  0.21093046564E+02 -0.20814721727E+02  0.31708905553E+02  0.43400736690E+02  0.00000000000E+00 0.  1.
         11    1    3    3    0    0 -0.35147393437E+01  0.52840420834E+01 -0.11193892563E+01  0.64441854381E+01  0.51100000000E-03 0.  1.
        -11    1    3    3    0    0 -0.53902367265E+01  0.14552332562E+02 -0.18520276489E+02  0.24162484898E+02  0.51100000000E-03 0. -1.
         12    1    3    3    0    0 -0.12188070494E+02  0.97834708083E+00 -0.12069239808E+02  0.17180592973E+02  0.00000000000E+00 0. -1.
</event>
<event>
 7    1  0.3742599E-009  0.4778727E+02  0.7816164E-02  0.1312668E+00
        -11   -1    0    0    0    0  0.00000000000E+00  0.00000000000E+00  0.45593999997E+02  0.45594000000E+02  0.51100000000E-03 0. -1.
         11   -1    0    0    0    0 -0.00000000000E+00 -0.00000000000E+00 -0.45593999997E+02  0.45594000000E+02  0.51100000000E-03 0.  1.
    9900012    2    1    2    0    0  0.39124555503E+02  0.18358749822E+02 -0.39810767713E+01  0.47787268317E+02  0.19999987566E+02 0.  0.
        -12    1    1    2    0    0 -0.39124555503E+02 -0.18358749822E+02  0.39810767713E+01  0.43400731683E+02  0.00000000000E+00 0.  1.
         11    1    3    3    0    0  0.18985715931E+02  0.10540858042E+02 -0.84798699970E+01  0.23312556554E+02  0.51100000000E-03 0. -1.
        -11    1    3    3    0    0  0.34987301489E+01  0.64321940174E+01  0.74258290178E+00  0.73597324788E+01  0.51100000000E-03 0.  1.
        -12    1    3    3    0    0  0.16640109423E+02  0.13856977622E+01  0.37562103239E+01  0.17114979284E+02  0.00000000000E+00 0.  1.
</event>
<event>
 7    1  0.4858058E-009  0.4778727E+02  0.7816164E-02  0.1312668E+00
        -11   -1    0    0    0    0  0.00000000000E+00  0.00000000000E+00  0.45593999997E+02  0.45594000000E+02  0.51100000000E-03 0.  1.
         11   -1    0    0    0    0 -0.00000000000E+00 -0.00000000000E+00 -0.45593999997E+02  0.45594000000E+02  0.51100000000E-03 0. -1.
    9900012    2    1    2    0    0  0.38552540388E+02 -0.18856130568E+01 -0.19843625881E+02  0.47787269648E+02  0.19999993633E+02 0.  0.
        -12    1    1    2    0    0 -0.38552540388E+02  0.18856130568E+01  0.19843625881E+02  0.43400730352E+02  0.00000000000E+00 0.  1.
         11    1    3    3    0    0  0.25854657425E+02 -0.24097045998E+00 -0.97518449576E+01  0.27633672533E+02  0.51100000000E-03 0. -1.
        -11    1    3    3    0    0  0.97087295414E+01  0.29970980554E+01 -0.10507839239E+02  0.14617000780E+02  0.51100000000E-03 0.  1.
        -12    1    3    3    0    0  0.29891534221E+01 -0.46417406522E+01  0.41605831536E+00  0.55365963358E+01  0.00000000000E+00 0.  1.
</event>
<event>
 7    1  0.3742599E-009  0.4778727E+02  0.7816164E-02  0.1312668E+00
        -11   -1    0    0    0    0  0.00000000000E+00  0.00000000000E+00  0.45593999997E+02  0.45594000000E+02  0.51100000000E-03 0. -1.
         11   -1    0    0    0    0 -0.00000000000E+00 -0.00000000000E+00 -0.45593999997E+02  0.45594000000E+02  0.51100000000E-03 0.  1.
    9900012    2    1    2    0    0 -0.26827920696E+02  0.12545136236E+02  0.31725471083E+02  0.47787270888E+02  0.19999999285E+02 0.  0.
        -12    1    1    2    0    0  0.26827920696E+02 -0.12545136236E+02 -0.31725471083E+02  0.43400729112E+02  0.00000000000E+00 0.  1.
         11    1    3    3    0    0  0.32958823093E-01  0.27745284134E+01  0.91623591269E+01  0.95732919746E+01  0.51100000000E-03 0. -1.
        -11    1    3    3    0    0 -0.62805282425E+01 -0.22376957062E+01  0.74499778921E+01  0.99977241376E+01  0.51100000000E-03 0.  1.
         12    1    3    3    0    0 -0.20580351277E+02  0.12008303529E+02  0.15113134064E+02  0.28216254775E+02  0.00000000000E+00 0. -1.
</event>
<event>
 7    1  0.3742599E-009  0.4778727E+02  0.7816164E-02  0.1312668E+00
        -11   -1    0    0    0    0  0.00000000000E+00  0.00000000000E+00  0.45593999997E+02  0.45594000000E+02  0.51100000000E-03 0. -1.
         11   -1    0    0    0    0 -0.00000000000E+00 -0.00000000000E+00 -0.45593999997E+02  0.45594000000E+02  0.51100000000E-03 0.  1.
    9900012    2    1    2    0    0  0.18421560379E+02  0.35583960152E+02  0.16674865693E+02  0.47787271288E+02  0.20000001109E+02 0.  0.
        -12    1    1    2    0    0 -0.18421560379E+02 -0.35583960152E+02 -0.16674865693E+02  0.43400728712E+02  0.00000000000E+00 0.  1.
         11    1    3    3    0    0  0.98335864840E+01  0.81245264041E+01  0.51343040967E+01  0.13750215680E+02  0.51100000000E-03 0. -1.
        -11    1    3    3    0    0  0.27609898356E+01 -0.31910046642E+00 -0.10705119993E+01  0.29784032940E+01  0.51100000000E-03 0.  1.
         12    1    3    3    0    0  0.58269840597E+01  0.27778534214E+02  0.12611073595E+02  0.31058652314E+02  0.00000000000E+00 0. -1.
</event>
<event>
 7    1  0.3742599E-009  0.4778727E+02  0.7816164E-02  0.1312668E+00
        -11   -1    0    0    0    0  0.00000000000E+00  0.00000000000E+00  0.45593999997E+02  0.45594000000E+02  0.51100000000E-03 0.  1.
         11   -1    0    0    0    0 -0.00000000000E+00 -0.00000000000E+00 -0.45593999997E+02  0.45594000000E+02  0.51100000000E-03 0. -1.
    9900012    2    1    2    0    0  0.33752303288E+02  0.20857962550E+02 -0.17588376158E+02  0.47787267808E+02  0.19999985242E+02 0.  0.
        -12    1    1    2    0    0 -0.33752303288E+02 -0.20857962550E+02  0.17588376158E+02  0.43400732192E+02  0.00000000000E+00 0.  1.
         11    1    3    3    0    0  0.21426928817E+02  0.15824344137E+02 -0.12144399223E+02  0.29274725937E+02  0.51100000000E-03 0. -1.
        -11    1    3    3    0    0 -0.17358799711E+01 -0.11412930691E+01 -0.17520910332E+01  0.27176556796E+01  0.51100000000E-03 0.  1.
         12    1    3    3    0    0  0.14061254442E+02  0.61749114813E+01 -0.36918859018E+01  0.15794886191E+02  0.00000000000E+00 0. -1.
</event>
<event>
 7    1  0.3742599E-009  0.4778727E+02  0.7816164E-02  0.1312668E+00
        -11   -1    0    0    0    0  0.00000000000E+00  0.00000000000E+00  0.45593999997E+02  0.45594000000E+02  0.51100000000E-03 0.  1.
         11   -1    0    0    0    0 -0.00000000000E+00 -0.00000000000E+00 -0.45593999997E+02  0.45594000000E+02  0.51100000000E-03 0. -1.
    9900012    2    1    2    0    0  0.40972600607E+02  0.93795944658E+01  0.10811683246E+02  0.47787270888E+02  0.19999999287E+02 0.  0.
        -12    1    1    2    0    0 -0.40972600607E+02 -0.93795944658E+01 -0.10811683246E+02  0.43400729112E+02  0.00000000000E+00 0.  1.
         11    1    3    3    0    0  0.10343567024E+02  0.34827169149E+01  0.75454550761E+01  0.13268481015E+02  0.51100000000E-03 0. -1.
        -11    1    3    3    0    0 -0.41689680553E+00  0.28945888702E+01 -0.87920369926E+00  0.30537594994E+01  0.51100000000E-03 0.  1.
         12    1    3    3    0    0  0.31045930389E+02  0.30022886807E+01  0.41454318696E+01  0.31465030373E+02  0.00000000000E+00 0. -1.
</event>
<event>
 7    1  0.3742599E-009  0.4778727E+02  0.7816164E-02  0.1312668E+00
        -11   -1    0    0    0    0  0.00000000000E+00  0.00000000000E+00  0.45593999997E+02  0.45594000000E+02  0.51100000000E-03 0.  1.
         11   -1    0    0    0    0 -0.00000000000E+00 -0.00000000000E+00 -0.45593999997E+02  0.45594000000E+02  0.51100000000E-03 0. -1.
    9900012    2    1    2    0    0  0.29046422104E+02 -0.21554895563E+02 -0.23985726990E+02  0.47787271216E+02  0.20000000780E+02 0.  0.
        -12    1    1    2    0    0 -0.29046422104E+02  0.21554895563E+02  0.23985726990E+02  0.43400728784E+02  0.00000000000E+00 0.  1.
         11    1    3    3    0    0 -0.48410544440E+00  0.17364212973E+01 -0.95683499294E+00  0.20408455277E+01  0.51100000000E-03 0. -1.
        -11    1    3    3    0    0  0.16532139001E+02 -0.55867356623E+01 -0.84876648179E+01  0.19405249022E+02  0.51100000000E-03 0.  1.
         12    1    3    3    0    0  0.12998388547E+02 -0.17704581199E+02 -0.14541227179E+02  0.26341176666E+02  0.00000000000E+00 0. -1.
</event>
<event>
 7    1  0.3742599E-009  0.4778727E+02  0.7816164E-02  0.1312668E+00
        -11   -1    0    0    0    0  0.00000000000E+00  0.00000000000E+00  0.45593999997E+02  0.45594000000E+02  0.51100000000E-03 0.  1.
         11   -1    0    0    0    0 -0.00000000000E+00 -0.00000000000E+00 -0.45593999997E+02  0.45594000000E+02  0.51100000000E-03 0. -1.
    9900012    2    1    2    0    0  0.32295745147E+02  0.14989971321E+02 -0.24817515080E+02  0.47787269021E+02  0.19999990772E+02 0.  0.
        -12    1    1    2    0    0 -0.32295745147E+02 -0.14989971321E+02  0.24817515080E+02  0.43400730979E+02  0.00000000000E+00 0.  1.
         11    1    3    3    0    0  0.10298935912E+02  0.72389053309E+01 -0.12976775419E+01  0.12655188603E+02  0.51100000000E-03 0. -1.
        -11    1    3    3    0    0  0.10369336018E+01  0.74255645785E+00  0.13527971500E+01  0.18592153661E+01  0.51100000000E-03 0.  1.
         12    1    3    3    0    0  0.20959875634E+02  0.70085095326E+01 -0.24872634688E+02  0.33272865052E+02  0.00000000000E+00 0. -1.
</event>
<event>
 7    1  0.3742599E-009  0.4778727E+02  0.7816164E-02  0.1312668E+00
        -11   -1    0    0    0    0  0.00000000000E+00  0.00000000000E+00  0.45593999997E+02  0.45594000000E+02  0.51100000000E-03 0. -1.
         11   -1    0    0    0    0 -0.00000000000E+00 -0.00000000000E+00 -0.45593999997E+02  0.45594000000E+02  0.51100000000E-03 0.  1.
    9900012    2    1    2    0    0  0.31875606090E+02 -0.25933687191E+02  0.13964701234E+02  0.47787271026E+02  0.19999999917E+02 0.  0.
        -12    1    1    2    0    0 -0.31875606090E+02  0.25933687191E+02 -0.13964701234E+02  0.43400728974E+02  0.00000000000E+00 0.  1.
         11    1    3    3    0    0  0.11205123391E+02 -0.11782442663E+02  0.41983879287E+01  0.16793070201E+02  0.51100000000E-03 0. -1.
        -11    1    3    3    0    0  0.22870164761E+02 -0.12515655286E+02  0.67746267167E+01  0.26936622484E+02  0.51100000000E-03 0.  1.
        -12    1    3    3    0    0 -0.21996820629E+01 -0.16355892420E+01  0.29916865884E+01  0.40575783406E+01  0.00000000000E+00 0.  1.
</event>
<event>
 7    1  0.3742599E-009  0.4778727E+02  0.7816164E-02  0.1312668E+00
        -11   -1    0    0    0    0  0.00000000000E+00  0.00000000000E+00  0.45593999997E+02  0.45594000000E+02  0.51100000000E-03 0. -1.
         11   -1    0    0    0    0 -0.00000000000E+00 -0.00000000000E+00 -0.45593999997E+02  0.45594000000E+02  0.51100000000E-03 0.  1.
    9900012    2    1    2    0    0 -0.38562717734E+02 -0.56606721441E+01 -0.19091801162E+02  0.47787270976E+02  0.19999999690E+02 0.  0.
        -12    1    1    2    0    0  0.38562717734E+02  0.56606721441E+01  0.19091801162E+02  0.43400729024E+02  0.00000000000E+00 0.  1.
         11    1    3    3    0    0 -0.15335444651E+02 -0.79034650101E+01 -0.12955987645E+02  0.21575408175E+02  0.51100000000E-03 0. -1.
        -11    1    3    3    0    0 -0.18201540455E+02  0.43071309682E+00 -0.88228307448E+01  0.20231755517E+02  0.51100000000E-03 0.  1.
        -12    1    3    3    0    0 -0.50257326286E+01  0.18120797691E+01  0.26870172282E+01  0.59801072840E+01  0.00000000000E+00 0.  1.
</event>
<event>
 7    1  0.3742599E-009  0.4778728E+02  0.7816164E-02  0.1312668E+00
        -11   -1    0    0    0    0  0.00000000000E+00  0.00000000000E+00  0.45593999997E+02  0.45594000000E+02  0.51100000000E-03 0.  1.
         11   -1    0    0    0    0 -0.00000000000E+00 -0.00000000000E+00 -0.45593999997E+02  0.45594000000E+02  0.51100000000E-03 0. -1.
    9900012    2    1    2    0    0  0.37373612453E+02 -0.21321243541E+02 -0.56780461393E+01  0.47787279477E+02  0.20000038448E+02 0.  0.
        -12    1    1    2    0    0 -0.37373612453E+02  0.21321243541E+02  0.56780461393E+01  0.43400720523E+02  0.00000000000E+00 0.  1.
         11    1    3    3    0    0  0.55743287143E+01 -0.97927312069E+01  0.31292154003E+00  0.11272472899E+02  0.51100000000E-03 0. -1.
        -11    1    3    3    0    0  0.60209670179E+01 -0.39730840155E+01  0.35088065088E+01  0.80217930541E+01  0.51100000000E-03 0.  1.
         12    1    3    3    0    0  0.25778316721E+02 -0.75554283186E+01 -0.94997741882E+01  0.28493013524E+02  0.00000000000E+00 0. -1.
</event>
<event>
 7    1  0.3742599E-009  0.4778727E+02  0.7816164E-02  0.1312668E+00
        -11   -1    0    0    0    0  0.00000000000E+00  0.00000000000E+00  0.45593999997E+02  0.45594000000E+02  0.51100000000E-03 0.  1.
         11   -1    0    0    0    0 -0.00000000000E+00 -0.00000000000E+00 -0.45593999997E+02  0.45594000000E+02  0.51100000000E-03 0. -1.
    9900012    2    1    2    0    0  0.14817196192E+02  0.40486676534E+02  0.49902888052E+01  0.47787271180E+02  0.20000000619E+02 0.  0.
        -12    1    1    2    0    0 -0.14817196192E+02 -0.40486676534E+02 -0.49902888052E+01  0.43400728820E+02  0.00000000000E+00 0.  1.
         11    1    3    3    0    0  0.35739331665E+01  0.29053201076E+01  0.51482222541E+01  0.69078271435E+01  0.51100000000E-03 0.  1.
        -11    1    3    3    0    0  0.59768699394E+01  0.50932370924E+01 -0.12374396132E+01  0.79495468682E+01  0.51100000000E-03 0. -1.
         12    1    3    3    0    0  0.52663930864E+01  0.32488119333E+02  0.10795061643E+01  0.32929897168E+02  0.00000000000E+00 0. -1.
</event>
<event>
 7    1  0.3742599E-009  0.4778727E+02  0.7816164E-02  0.1312668E+00
        -11   -1    0    0    0    0  0.00000000000E+00  0.00000000000E+00  0.45593999997E+02  0.45594000000E+02  0.51100000000E-03 0.  1.
         11   -1    0    0    0    0 -0.00000000000E+00 -0.00000000000E+00 -0.45593999997E+02  0.45594000000E+02  0.51100000000E-03 0. -1.
    9900012    2    1    2    0    0 -0.85600214790E+01  0.10140251037E+02 -0.41322205061E+02  0.47787270859E+02  0.19999999156E+02 0.  0.
        -12    1    1    2    0    0  0.85600214790E+01 -0.10140251037E+02  0.41322205061E+02  0.43400729141E+02  0.00000000000E+00 0.  1.
         11    1    3    3    0    0 -0.40677503631E+01  0.15583577861E+02 -0.29478966635E+02  0.33591724667E+02  0.51100000000E-03 0. -1.
        -11    1    3    3    0    0  0.46757306115E+00 -0.81202073379E+00 -0.23184983638E+01  0.25006873382E+01  0.51100000000E-03 0.  1.
        -12    1    3    3    0    0 -0.49598441770E+01 -0.46313060905E+01 -0.95247400626E+01  0.11694858854E+02  0.00000000000E+00 0.  1.
</event>
<event>
 7    1  0.3742599E-009  0.4778727E+02  0.7816164E-02  0.1312668E+00
        -11   -1    0    0    0    0  0.00000000000E+00  0.00000000000E+00  0.45593999997E+02  0.45594000000E+02  0.51100000000E-03 0.  1.
         11   -1    0    0    0    0 -0.00000000000E+00 -0.00000000000E+00 -0.45593999997E+02  0.45594000000E+02  0.51100000000E-03 0. -1.
    9900012    2    1    2    0    0 -0.81958294239E+01 -0.42393233152E+02 -0.43892514878E+01  0.47787269987E+02  0.19999995178E+02 0.  0.
        -12    1    1    2    0    0  0.81958294239E+01  0.42393233152E+02  0.43892514878E+01  0.43400730013E+02  0.00000000000E+00 0.  1.
         11    1    3    3    0    0 -0.49662252376E+01 -0.18983304087E+02 -0.35228900973E+01  0.19935896821E+02  0.51100000000E-03 0. -1.
        -11    1    3    3    0    0 -0.31696592278E+01 -0.69399151587E+01 -0.69236343759E+01  0.10302712034E+02  0.51100000000E-03 0.  1.
         12    1    3    3    0    0 -0.59944958391E-01 -0.16470013907E+02  0.60572729854E+01  0.17548661131E+02  0.00000000000E+00 0. -1.
</event>
<event>
 7    1  0.3742599E-009  0.4778727E+02  0.7816164E-02  0.1312668E+00
        -11   -1    0    0    0    0  0.00000000000E+00  0.00000000000E+00  0.45593999997E+02  0.45594000000E+02  0.51100000000E-03 0. -1.
         11   -1    0    0    0    0 -0.00000000000E+00 -0.00000000000E+00 -0.45593999997E+02  0.45594000000E+02  0.51100000000E-03 0.  1.
    9900012    2    1    2    0    0 -0.10729564805E+01 -0.26569905714E+01  0.43306031850E+02  0.47787271560E+02  0.20000002351E+02 0.  0.
        -12    1    1    2    0    0  0.10729564805E+01  0.26569905714E+01 -0.43306031850E+02  0.43400728440E+02  0.00000000000E+00 0.  1.
         11    1    3    3    0    0  0.82462397559E+01 -0.24912426429E+01  0.15553303966E+02  0.17779539492E+02  0.51100000000E-03 0. -1.
        -11    1    3    3    0    0 -0.92634977886E+00  0.24487966175E+01  0.60440213603E+01  0.65867232560E+01  0.51100000000E-03 0.  1.
         12    1    3    3    0    0 -0.83928464575E+01 -0.26145445460E+01  0.21708706524E+02  0.23421008812E+02  0.00000000000E+00 0. -1.
</event>
<event>
 7    1  0.3742599E-009  0.4778727E+02  0.7816164E-02  0.1312668E+00
        -11   -1    0    0    0    0  0.00000000000E+00  0.00000000000E+00  0.45593999997E+02  0.45594000000E+02  0.51100000000E-03 0.  1.
         11   -1    0    0    0    0 -0.00000000000E+00 -0.00000000000E+00 -0.45593999997E+02  0.45594000000E+02  0.51100000000E-03 0. -1.
    9900012    2    1    2    0    0 -0.10170484399E+02 -0.19090382941E+02 -0.37626346330E+02  0.47787269454E+02  0.19999992751E+02 0.  0.
        -12    1    1    2    0    0  0.10170484399E+02  0.19090382941E+02  0.37626346330E+02  0.43400730546E+02  0.00000000000E+00 0.  1.
         11    1    3    3    0    0  0.69895151670E+00 -0.16827624697E+01 -0.15189664166E+02  0.15298565962E+02  0.51100000000E-03 0. -1.
        -11    1    3    3    0    0  0.11290809961E+01 -0.79597124922E+01 -0.97328192310E+01  0.12623771913E+02  0.51100000000E-03 0.  1.
        -12    1    3    3    0    0 -0.11998516912E+02 -0.94479079787E+01 -0.12703862933E+02  0.19864931580E+02  0.00000000000E+00 0.  1.
</event>
<event>
 7    1  0.3742599E-009  0.4778727E+02  0.7816164E-02  0.1312668E+00
        -11   -1    0    0    0    0  0.00000000000E+00  0.00000000000E+00  0.45593999997E+02  0.45594000000E+02  0.51100000000E-03 0.  1.
         11   -1    0    0    0    0 -0.00000000000E+00 -0.00000000000E+00 -0.45593999997E+02  0.45594000000E+02  0.51100000000E-03 0. -1.
    9900012    2    1    2    0    0  0.17692193100E+02  0.12251162814E+02 -0.37689771209E+02  0.47787267970E+02  0.19999985980E+02 0.  0.
        -12    1    1    2    0    0 -0.17692193100E+02 -0.12251162814E+02  0.37689771209E+02  0.43400732030E+02  0.00000000000E+00 0.  1.
         11    1    3    3    0    0  0.14994434420E+01  0.77050318461E+01 -0.54234527432E+01  0.95409478724E+01  0.51100000000E-03 0. -1.
        -11    1    3    3    0    0  0.69819916178E+01  0.38371631287E+01 -0.48772779010E+01  0.93412990431E+01  0.51100000000E-03 0.  1.
         12    1    3    3    0    0  0.92107580406E+01  0.70896783950E+00 -0.27389040565E+02  0.28905021054E+02  0.00000000000E+00 0. -1.
</event>
<event>
 7    1  0.3742599E-009  0.4778727E+02  0.7816164E-02  0.1312668E+00
        -11   -1    0    0    0    0  0.00000000000E+00  0.00000000000E+00  0.45593999997E+02  0.45594000000E+02  0.51100000000E-03 0. -1.
         11   -1    0    0    0    0 -0.00000000000E+00 -0.00000000000E+00 -0.45593999997E+02  0.45594000000E+02  0.51100000000E-03 0.  1.
    9900012    2    1    2    0    0  0.24994188120E+02 -0.33305381853E+02  0.12233783316E+02  0.47787270117E+02  0.19999995770E+02 0.  0.
        -12    1    1    2    0    0 -0.24994188120E+02  0.33305381853E+02 -0.12233783316E+02  0.43400729883E+02  0.00000000000E+00 0.  1.
         11    1    3    3    0    0  0.34943858704E+01 -0.26600720662E+01  0.63349004641E+01  0.77082864607E+01  0.51100000000E-03 0. -1.
        -11    1    3    3    0    0  0.12822201355E+01 -0.48673923928E+01  0.53052452907E+01  0.73130858765E+01  0.51100000000E-03 0.  1.
         12    1    3    3    0    0  0.20217582114E+02 -0.25777917394E+02  0.59363756165E+00  0.32765897779E+02  0.00000000000E+00 0. -1.
</event>
<event>
 7    1  0.3742599E-009  0.4778727E+02  0.7816164E-02  0.1312668E+00
        -11   -1    0    0    0    0  0.00000000000E+00  0.00000000000E+00  0.45593999997E+02  0.45594000000E+02  0.51100000000E-03 0.  1.
         11   -1    0    0    0    0 -0.00000000000E+00 -0.00000000000E+00 -0.45593999997E+02  0.45594000000E+02  0.51100000000E-03 0. -1.
    9900012    2    1    2    0    0 -0.72481778493E+00  0.32326168101E+02 -0.28950250105E+02  0.47787268600E+02  0.19999988855E+02 0.  0.
        -12    1    1    2    0    0  0.72481778493E+00 -0.32326168101E+02  0.28950250105E+02  0.43400731400E+02  0.00000000000E+00 0.  1.
         11    1    3    3    0    0 -0.50605812991E+01  0.28211935434E+02 -0.21738008439E+02  0.35973098214E+02  0.51100000000E-03 0. -1.
        -11    1    3    3    0    0 -0.16905263722E+01 -0.30430712774E-01 -0.23701543237E+00  0.17073318423E+01  0.51100000000E-03 0.  1.
         12    1    3    3    0    0  0.60262898864E+01  0.41446633798E+01 -0.69752262340E+01  0.10106838543E+02  0.00000000000E+00 0. -1.
</event>
<event>
 7    1  0.3742599E-009  0.4778727E+02  0.7816164E-02  0.1312668E+00
        -11   -1    0    0    0    0  0.00000000000E+00  0.00000000000E+00  0.45593999997E+02  0.45594000000E+02  0.51100000000E-03 0.  1.
         11   -1    0    0    0    0 -0.00000000000E+00 -0.00000000000E+00 -0.45593999997E+02  0.45594000000E+02  0.51100000000E-03 0. -1.
    9900012    2    1    2    0    0 -0.67564262887E+01 -0.20451400176E+02 -0.37679100800E+02  0.47787266107E+02  0.19999977486E+02 0.  0.
        -12    1    1    2    0    0  0.67564262887E+01  0.20451400176E+02  0.37679100800E+02  0.43400733893E+02  0.00000000000E+00 0.  1.
         11    1    3    3    0    0 -0.44278878739E+01 -0.78868449385E+00 -0.59403303913E+01  0.74508885157E+01  0.51100000000E-03 0.  1.
        -11    1    3    3    0    0 -0.10043824487E+00 -0.12056598068E+01  0.16943513021E+01  0.20819534113E+01  0.51100000000E-03 0. -1.
         12    1    3    3    0    0 -0.22281001700E+01 -0.18457055875E+02 -0.33433121711E+02  0.38254424180E+02  0.00000000000E+00 0. -1.
</event>
<event>
 7    1  0.3742599E-009  0.4778730E+02  0.7816164E-02  0.1312668E+00
        -11   -1    0    0    0    0  0.00000000000E+00  0.00000000000E+00  0.45593999997E+02  0.45594000000E+02  0.51100000000E-03 0. -1.
         11   -1    0    0    0    0 -0.00000000000E+00 -0.00000000000E+00 -0.45593999997E+02  0.45594000000E+02  0.51100000000E-03 0.  1.
    9900012    2    1    2    0    0 -0.31265556150E+02  0.30099017042E+02  0.36743632170E+00  0.47787299111E+02  0.20000127965E+02 0.  0.
        -12    1    1    2    0    0  0.31265556150E+02 -0.30099017042E+02 -0.36743632170E+00  0.43400700889E+02  0.00000000000E+00 0.  1.
         11    1    3    3    0    0 -0.20570959497E+02  0.19397499083E+02 -0.70790130090E+01  0.29146865539E+02  0.51100000000E-03 0. -1.
        -11    1    3    3    0    0 -0.72950006557E+00  0.60376754962E+01  0.24485091504E+01  0.65559814722E+01  0.51100000000E-03 0.  1.
        -12    1    3    3    0    0 -0.99650965870E+01  0.46638424627E+01  0.49979401803E+01  0.12084452100E+02  0.00000000000E+00 0.  1.
</event>
<event>
 7    1  0.3742599E-009  0.4778726E+02  0.7816164E-02  0.1312668E+00
        -11   -1    0    0    0    0  0.00000000000E+00  0.00000000000E+00  0.45593999997E+02  0.45594000000E+02  0.51100000000E-03 0.  1.
         11   -1    0    0    0    0 -0.00000000000E+00 -0.00000000000E+00 -0.45593999997E+02  0.45594000000E+02  0.51100000000E-03 0. -1.
    9900012    2    1    2    0    0  0.29997098403E+02 -0.15869234064E+02 -0.27054861904E+02  0.47787262045E+02  0.19999958969E+02 0.  0.
        -12    1    1    2    0    0 -0.29997098403E+02  0.15869234064E+02  0.27054861904E+02  0.43400737955E+02  0.00000000000E+00 0.  1.
         11    1    3    3    0    0  0.77789068569E+01 -0.14720733359E+02 -0.11249470152E+02  0.20093828940E+02  0.51100000000E-03 0. -1.
        -11    1    3    3    0    0  0.19624123395E+00  0.59700629276E+00 -0.25544949024E+00  0.67836703832E+00  0.51100000000E-03 0.  1.
         12    1    3    3    0    0  0.22021950313E+02 -0.17455069975E+01 -0.15549942261E+02  0.27015066066E+02  0.00000000000E+00 0. -1.
</event>
<event>
 7    1  0.3742599E-009  0.4778727E+02  0.7816164E-02  0.1312668E+00
        -11   -1    0    0    0    0  0.00000000000E+00  0.00000000000E+00  0.45593999997E+02  0.45594000000E+02  0.51100000000E-03 0. -1.
         11   -1    0    0    0    0 -0.00000000000E+00 -0.00000000000E+00 -0.45593999997E+02  0.45594000000E+02  0.51100000000E-03 0.  1.
    9900012    2    1    2    0    0  0.12357451312E+02 -0.39297100802E+02  0.13662163155E+02  0.47787269172E+02  0.19999991462E+02 0.  0.
        -12    1    1    2    0    0 -0.12357451312E+02  0.39297100802E+02 -0.13662163155E+02  0.43400730828E+02  0.00000000000E+00 0.  1.
         11    1    3    3    0    0  0.27809096634E+01 -0.93323000645E-01  0.22140732192E+01  0.35558807938E+01  0.51100000000E-03 0. -1.
        -11    1    3    3    0    0  0.70464499711E+01 -0.64875758240E+01  0.32550001104E+00  0.95836865446E+01  0.51100000000E-03 0.  1.
         12    1    3    3    0    0  0.25300916770E+01 -0.32716201977E+02  0.11122589925E+02  0.34647701833E+02  0.00000000000E+00 0. -1.
</event>
<event>
 7    1  0.3742599E-009  0.4778727E+02  0.7816164E-02  0.1312668E+00
        -11   -1    0    0    0    0  0.00000000000E+00  0.00000000000E+00  0.45593999997E+02  0.45594000000E+02  0.51100000000E-03 0.  1.
         11   -1    0    0    0    0 -0.00000000000E+00 -0.00000000000E+00 -0.45593999997E+02  0.45594000000E+02  0.51100000000E-03 0. -1.
    9900012    2    1    2    0    0  0.23851940620E+02 -0.34371518969E+02 -0.11545879777E+02  0.47787265820E+02  0.19999976179E+02 0.  0.
        -12    1    1    2    0    0 -0.23851940620E+02  0.34371518969E+02  0.11545879777E+02  0.43400734180E+02  0.00000000000E+00 0.  1.
         11    1    3    3    0    0  0.59702641182E+00 -0.28672801733E+01  0.15572336759E+01  0.33170337820E+01  0.51100000000E-03 0. -1.
        -11    1    3    3    0    0  0.24490103341E+02 -0.32629231955E+02 -0.12893700255E+02  0.42786439981E+02  0.51100000000E-03 0.  1.
        -12    1    3    3    0    0 -0.12351891331E+01  0.11249931600E+01 -0.20941319735E+00  0.16837920572E+01  0.00000000000E+00 0.  1.
</event>
<event>
 7    1  0.3742599E-009  0.4778727E+02  0.7816164E-02  0.1312668E+00
        -11   -1    0    0    0    0  0.00000000000E+00  0.00000000000E+00  0.45593999997E+02  0.45594000000E+02  0.51100000000E-03 0.  1.
         11   -1    0    0    0    0 -0.00000000000E+00 -0.00000000000E+00 -0.45593999997E+02  0.45594000000E+02  0.51100000000E-03 0. -1.
    9900012    2    1    2    0    0  0.11001916822E+02  0.61923884703E+01 -0.41523919109E+02  0.47787266056E+02  0.19999977254E+02 0.  0.
        -12    1    1    2    0    0 -0.11001916822E+02 -0.61923884703E+01  0.41523919109E+02  0.43400733944E+02  0.00000000000E+00 0.  1.
         11    1    3    3    0    0  0.25895023423E+01 -0.18157991426E+01 -0.34775060030E+01  0.47006060427E+01  0.51100000000E-03 0. -1.
        -11    1    3    3    0    0 -0.39670963061E+01 -0.14728132906E+01 -0.12061070781E+02  0.12781880172E+02  0.51100000000E-03 0.  1.
         12    1    3    3    0    0  0.12379510786E+02  0.94810009035E+01 -0.25985342326E+02  0.30304779841E+02  0.00000000000E+00 0. -1.
</event>
<event>
 7    1  0.3742599E-009  0.4778728E+02  0.7816164E-02  0.1312668E+00
        -11   -1    0    0    0    0  0.00000000000E+00  0.00000000000E+00  0.45593999997E+02  0.45594000000E+02  0.51100000000E-03 0.  1.
         11   -1    0    0    0    0 -0.00000000000E+00 -0.00000000000E+00 -0.45593999997E+02  0.45594000000E+02  0.51100000000E-03 0. -1.
    9900012    2    1    2    0    0 -0.69440598096E+01  0.26288241368E+02 -0.33827958282E+02  0.47787281545E+02  0.20000047876E+02 0.  0.
        -12    1    1    2    0    0  0.69440598096E+01 -0.26288241368E+02  0.33827958282E+02  0.43400718455E+02  0.00000000000E+00 0.  1.
         11    1    3    3    0    0 -0.55715329799E+00  0.26279989017E+00  0.18569030622E+01  0.19564183661E+01  0.51100000000E-03 0. -1.
        -11    1    3    3    0    0 -0.57977226831E+01  0.10081436947E+02 -0.88614225892E+01  0.14621004405E+02  0.51100000000E-03 0.  1.
         12    1    3    3    0    0 -0.58918382846E+00  0.15944004530E+02 -0.26823438755E+02  0.31209858774E+02  0.00000000000E+00 0. -1.
</event>
<event>
 7    1  0.3742599E-009  0.4778727E+02  0.7816164E-02  0.1312668E+00
        -11   -1    0    0    0    0  0.00000000000E+00  0.00000000000E+00  0.45593999997E+02  0.45594000000E+02  0.51100000000E-03 0.  1.
         11   -1    0    0    0    0 -0.00000000000E+00 -0.00000000000E+00 -0.45593999997E+02  0.45594000000E+02  0.51100000000E-03 0. -1.
    9900012    2    1    2    0    0  0.44341783204E+01  0.22173450691E+02 -0.37044557426E+02  0.47787273188E+02  0.20000009773E+02 0.  0.
        -12    1    1    2    0    0 -0.44341783204E+01 -0.22173450691E+02  0.37044557426E+02  0.43400726812E+02  0.00000000000E+00 0.  1.
         11    1    3    3    0    0  0.12497036037E+01  0.68645851343E+01 -0.96173523892E+01  0.11881824582E+02  0.51100000000E-03 0.  1.
        -11    1    3    3    0    0  0.51578101279E+01  0.13175514790E+02 -0.79840180745E+01  0.16246283888E+02  0.51100000000E-03 0. -1.
         12    1    3    3    0    0 -0.19733354112E+01  0.21333507666E+01 -0.19443186962E+02  0.19659164718E+02  0.00000000000E+00 0. -1.
</event>
<event>
 7    1  0.3742599E-009  0.4778727E+02  0.7816164E-02  0.1312668E+00
        -11   -1    0    0    0    0  0.00000000000E+00  0.00000000000E+00  0.45593999997E+02  0.45594000000E+02  0.51100000000E-03 0.  1.
         11   -1    0    0    0    0 -0.00000000000E+00 -0.00000000000E+00 -0.45593999997E+02  0.45594000000E+02  0.51100000000E-03 0. -1.
    9900012    2    1    2    0    0 -0.11234440763E+02  0.17120120196E+02 -0.38266332086E+02  0.47787270212E+02  0.19999996207E+02 0.  0.
        -12    1    1    2    0    0  0.11234440763E+02 -0.17120120196E+02  0.38266332086E+02  0.43400729788E+02  0.00000000000E+00 0.  1.
         11    1    3    3    0    0 -0.57024388919E+01  0.13491688685E+02 -0.28810857899E+02  0.32320411600E+02  0.51100000000E-03 0. -1.
        -11    1    3    3    0    0 -0.76392069718E+00  0.60420685195E+01 -0.77511195011E+01  0.98574855114E+01  0.51100000000E-03 0.  1.
        -12    1    3    3    0    0 -0.47680811740E+01 -0.24136370082E+01 -0.17043546858E+01  0.56093731008E+01  0.00000000000E+00 0.  1.
</event>
<event>
 7    1  0.3742599E-009  0.4778728E+02  0.7816164E-02  0.1312668E+00
        -11   -1    0    0    0    0  0.00000000000E+00  0.00000000000E+00  0.45593999997E+02  0.45594000000E+02  0.51100000000E-03 0.  1.
         11   -1    0    0    0    0 -0.00000000000E+00 -0.00000000000E+00 -0.45593999997E+02  0.45594000000E+02  0.51100000000E-03 0. -1.
    9900012    2    1    2    0    0 -0.22349531209E+02  0.34464637495E+02 -0.14011056384E+02  0.47787280145E+02  0.20000041493E+02 0.  0.
        -12    1    1    2    0    0  0.22349531209E+02 -0.34464637495E+02  0.14011056384E+02  0.43400719855E+02  0.00000000000E+00 0.  1.
         11    1    3    3    0    0 -0.57690293893E+01  0.11392538459E+02 -0.33843035410E+01  0.13210796469E+02  0.51100000000E-03 0. -1.
        -11    1    3    3    0    0 -0.79593893180E+01  0.21868835587E+01  0.22693415714E+01  0.85606220244E+01  0.51100000000E-03 0.  1.
        -12    1    3    3    0    0 -0.86211125014E+01  0.20885215478E+02 -0.12896094415E+02  0.26015861651E+02  0.00000000000E+00 0.  1.
</event>
<event>
 7    1  0.3742599E-009  0.4778728E+02  0.7816164E-02  0.1312668E+00
        -11   -1    0    0    0    0  0.00000000000E+00  0.00000000000E+00  0.45593999997E+02  0.45594000000E+02  0.51100000000E-03 0.  1.
         11   -1    0    0    0    0 -0.00000000000E+00 -0.00000000000E+00 -0.45593999997E+02  0.45594000000E+02  0.51100000000E-03 0. -1.
    9900012    2    1    2    0    0 -0.10717821886E+02  0.71764788070E+01 -0.41439702567E+02  0.47787279926E+02  0.20000040495E+02 0.  0.
        -12    1    1    2    0    0  0.10717821886E+02 -0.71764788070E+01  0.41439702567E+02  0.43400720074E+02  0.00000000000E+00 0.  1.
         11    1    3    3    0    0 -0.27059678246E+01  0.12910633167E+01 -0.14403544502E+01  0.33262182068E+01  0.51100000000E-03 0. -1.
        -11    1    3    3    0    0 -0.80136528564E+01  0.54084670048E+01 -0.82540440339E+01  0.12712174897E+02  0.51100000000E-03 0.  1.
         12    1    3    3    0    0  0.17987948948E-02  0.47694848549E+00 -0.31745304083E+02  0.31748886822E+02  0.00000000000E+00 0. -1.
</event>
<event>
 7    1  0.3742599E-009  0.4778727E+02  0.7816164E-02  0.1312668E+00
        -11   -1    0    0    0    0  0.00000000000E+00  0.00000000000E+00  0.45593999997E+02  0.45594000000E+02  0.51100000000E-03 0. -1.
         11   -1    0    0    0    0 -0.00000000000E+00 -0.00000000000E+00 -0.45593999997E+02  0.45594000000E+02  0.51100000000E-03 0.  1.
    9900012    2    1    2    0    0  0.42920334256E+02  0.64256701025E+01 -0.42314920661E+00  0.47787269774E+02  0.19999994209E+02 0.  0.
        -12    1    1    2    0    0 -0.42920334256E+02 -0.64256701025E+01  0.42314920661E+00  0.43400730226E+02  0.00000000000E+00 0.  1.
         11    1    3    3    0    0  0.62915205767E+01  0.32898912034E+01  0.30579226468E+01  0.77302979549E+01  0.51100000000E-03 0. -1.
        -11    1    3    3    0    0  0.89459742559E+01  0.25794990244E+01 -0.76580051638E+01  0.12055260841E+02  0.51100000000E-03 0.  1.
        -12    1    3    3    0    0  0.27682839423E+02  0.55627987468E+00  0.41769333104E+01  0.28001710978E+02  0.00000000000E+00 0.  1.
</event>
<event>
 7    1  0.3742599E-009  0.4778728E+02  0.7816164E-02  0.1312668E+00
        -11   -1    0    0    0    0  0.00000000000E+00  0.00000000000E+00  0.45593999997E+02  0.45594000000E+02  0.51100000000E-03 0.  1.
         11   -1    0    0    0    0 -0.00000000000E+00 -0.00000000000E+00 -0.45593999997E+02  0.45594000000E+02  0.51100000000E-03 0. -1.
    9900012    2    1    2    0    0  0.77235976130E+01 -0.12192138661E+02 -0.40930679963E+02  0.47787276878E+02  0.20000026600E+02 0.  0.
        -12    1    1    2    0    0 -0.77235976130E+01  0.12192138661E+02  0.40930679963E+02  0.43400723122E+02  0.00000000000E+00 0.  1.
         11    1    3    3    0    0 -0.11997603991E+01  0.57557597073E+00  0.84692231270E-01  0.13333738217E+01  0.51100000000E-03 0. -1.
        -11    1    3    3    0    0 -0.14822392392E+01 -0.30079997617E+01 -0.36544828735E+00  0.33732252283E+01  0.51100000000E-03 0.  1.
         12    1    3    3    0    0  0.10405597251E+02 -0.97597148701E+01 -0.40649923907E+02  0.43080677828E+02  0.00000000000E+00 0. -1.
</event>
<event>
 7    1  0.3742599E-009  0.4778726E+02  0.7816164E-02  0.1312668E+00
        -11   -1    0    0    0    0  0.00000000000E+00  0.00000000000E+00  0.45593999997E+02  0.45594000000E+02  0.51100000000E-03 0.  1.
         11   -1    0    0    0    0 -0.00000000000E+00 -0.00000000000E+00 -0.45593999997E+02  0.45594000000E+02  0.51100000000E-03 0. -1.
    9900012    2    1    2    0    0  0.13813833765E+02  0.39537702907E+02 -0.11382992276E+02  0.47787257292E+02  0.19999937297E+02 0.  0.
        -12    1    1    2    0    0 -0.13813833765E+02 -0.39537702907E+02  0.11382992276E+02  0.43400742708E+02  0.00000000000E+00 0.  1.
         11    1    3    3    0    0  0.94020049574E+01  0.74060816254E+01 -0.29349429371E+01  0.12323215188E+02  0.51100000000E-03 0. -1.
        -11    1    3    3    0    0  0.26534689486E+01  0.13569730739E+02 -0.95217604582E+01  0.16788162861E+02  0.51100000000E-03 0.  1.
        -12    1    3    3    0    0  0.17583598594E+01  0.18561890543E+02  0.10737111196E+01  0.18675879243E+02  0.00000000000E+00 0.  1.
</event>
<event>
 7    1  0.3742599E-009  0.4778727E+02  0.7816164E-02  0.1312668E+00
        -11   -1    0    0    0    0  0.00000000000E+00  0.00000000000E+00  0.45593999997E+02  0.45594000000E+02  0.51100000000E-03 0.  1.
         11   -1    0    0    0    0 -0.00000000000E+00 -0.00000000000E+00 -0.45593999997E+02  0.45594000000E+02  0.51100000000E-03 0. -1.
    9900012    2    1    2    0    0  0.11367825007E+02 -0.39691075548E+02 -0.13379613911E+02  0.47787274293E+02  0.20000014810E+02 0.  0.
        -12    1    1    2    0    0 -0.11367825007E+02  0.39691075548E+02  0.13379613911E+02  0.43400725707E+02  0.00000000000E+00 0.  1.
         11    1    3    3    0    0  0.68210270099E+00 -0.76062872038E+01 -0.79491720973E+01  0.11023166805E+02  0.51100000000E-03 0. -1.
        -11    1    3    3    0    0  0.12121601324E+02 -0.20033646658E+02 -0.72046678800E+01  0.24498723571E+02  0.51100000000E-03 0.  1.
        -12    1    3    3    0    0 -0.14358790186E+01 -0.12051141686E+02  0.17742260663E+01  0.12265383916E+02  0.00000000000E+00 0.  1.
</event>
<event>
 7    1  0.3742599E-009  0.4778727E+02  0.7816164E-02  0.1312668E+00
        -11   -1    0    0    0    0  0.00000000000E+00  0.00000000000E+00  0.45593999997E+02  0.45594000000E+02  0.51100000000E-03 0.  1.
         11   -1    0    0    0    0 -0.00000000000E+00 -0.00000000000E+00 -0.45593999997E+02  0.45594000000E+02  0.51100000000E-03 0. -1.
    9900012    2    1    2    0    0  0.22892655011E+01  0.38339323349E+02 -0.20210859217E+02  0.47787270955E+02  0.19999999590E+02 0.  0.
        -12    1    1    2    0    0 -0.22892655011E+01 -0.38339323349E+02  0.20210859217E+02  0.43400729045E+02  0.00000000000E+00 0.  1.
         11    1    3    3    0    0  0.50586947770E+00  0.21290429023E+02 -0.16768173278E+02  0.27105532779E+02  0.51100000000E-03 0. -1.
        -11    1    3    3    0    0 -0.33153505193E+01  0.11038998089E+02 -0.51390662430E+01  0.12619866480E+02  0.51100000000E-03 0.  1.
         12    1    3    3    0    0  0.50987465427E+01  0.60098962375E+01  0.16963803041E+01  0.80618716951E+01  0.00000000000E+00 0. -1.
</event>
<event>
 7    1  0.3742599E-009  0.4778727E+02  0.7816164E-02  0.1312668E+00
        -11   -1    0    0    0    0  0.00000000000E+00  0.00000000000E+00  0.45593999997E+02  0.45594000000E+02  0.51100000000E-03 0.  1.
         11   -1    0    0    0    0 -0.00000000000E+00 -0.00000000000E+00 -0.45593999997E+02  0.45594000000E+02  0.51100000000E-03 0. -1.
    9900012    2    1    2    0    0 -0.16671116172E+02  0.18816121837E+02 -0.35378676582E+02  0.47787270604E+02  0.19999997994E+02 0.  0.
        -12    1    1    2    0    0  0.16671116172E+02 -0.18816121837E+02  0.35378676582E+02  0.43400729396E+02  0.00000000000E+00 0.  1.
         11    1    3    3    0    0 -0.63558013425E+01 -0.42738700505E+00 -0.55824798035E+01  0.84701210956E+01  0.51100000000E-03 0. -1.
        -11    1    3    3    0    0 -0.28956868236E+01 -0.34966290754E+00 -0.29827006726E-01  0.29168743957E+01  0.51100000000E-03 0.  1.
         12    1    3    3    0    0 -0.74196280061E+01  0.19593171749E+02 -0.29766369771E+02  0.36400275113E+02  0.00000000000E+00 0. -1.
</event>
<event>
 7    1  0.3742599E-009  0.4778728E+02  0.7816164E-02  0.1312668E+00
        -11   -1    0    0    0    0  0.00000000000E+00  0.00000000000E+00  0.45593999997E+02  0.45594000000E+02  0.51100000000E-03 0.  1.
         11   -1    0    0    0    0 -0.00000000000E+00 -0.00000000000E+00 -0.45593999997E+02  0.45594000000E+02  0.51100000000E-03 0. -1.
    9900012    2    1    2    0    0 -0.33142820064E+02  0.25647786328E+02  0.11285715611E+02  0.47787276018E+02  0.20000022675E+02 0.  0.
        -12    1    1    2    0    0  0.33142820064E+02 -0.25647786328E+02 -0.11285715611E+02  0.43400723982E+02  0.00000000000E+00 0.  1.
         11    1    3    3    0    0 -0.77974957364E+01  0.71817755290E+00  0.35716881991E+01  0.86066065095E+01  0.51100000000E-03 0. -1.
        -11    1    3    3    0    0 -0.27231188558E+01 -0.13362348286E+01 -0.13952822755E+01  0.33388190591E+01  0.51100000000E-03 0.  1.
        -12    1    3    3    0    0 -0.22622205472E+02  0.26265843604E+02  0.91093096870E+01  0.35841850449E+02  0.00000000000E+00 0.  1.
</event>
<event>
 7    1  0.3742599E-009  0.4778727E+02  0.7816164E-02  0.1312668E+00
        -11   -1    0    0    0    0  0.00000000000E+00  0.00000000000E+00  0.45593999997E+02  0.45594000000E+02  0.51100000000E-03 0. -1.
         11   -1    0    0    0    0 -0.00000000000E+00 -0.00000000000E+00 -0.45593999997E+02  0.45594000000E+02  0.51100000000E-03 0.  1.
    9900012    2    1    2    0    0 -0.16522718069E+02  0.31971106277E+02  0.24258428783E+02  0.47787271711E+02  0.20000003040E+02 0.  0.
        -12    1    1    2    0    0  0.16522718069E+02 -0.31971106277E+02 -0.24258428783E+02  0.43400728289E+02  0.00000000000E+00 0.  1.
         11    1    3    3    0    0 -0.18419235160E+02  0.24886548494E+02  0.15589875683E+02  0.34664863247E+02  0.51100000000E-03 0. -1.
        -11    1    3    3    0    0 -0.15956037123E+01  0.23464208019E+01  0.60456955984E+01  0.66784786677E+01  0.51100000000E-03 0.  1.
         12    1    3    3    0    0  0.34921208031E+01  0.47381369812E+01  0.26228575013E+01  0.64439297969E+01  0.00000000000E+00 0. -1.
</event>
<event>
 7    1  0.3742599E-009  0.4778727E+02  0.7816164E-02  0.1312668E+00
        -11   -1    0    0    0    0  0.00000000000E+00  0.00000000000E+00  0.45593999997E+02  0.45594000000E+02  0.51100000000E-03 0. -1.
         11   -1    0    0    0    0 -0.00000000000E+00 -0.00000000000E+00 -0.45593999997E+02  0.45594000000E+02  0.51100000000E-03 0.  1.
    9900012    2    1    2    0    0 -0.10682736370E+02  0.10821066912E+02  0.40649810509E+02  0.47787269132E+02  0.19999991282E+02 0.  0.
        -12    1    1    2    0    0  0.10682736370E+02 -0.10821066912E+02 -0.40649810509E+02  0.43400730868E+02  0.00000000000E+00 0.  1.
         11    1    3    3    0    0 -0.32925861728E+01  0.32820351461E+00  0.60856282922E+01  0.69270277338E+01  0.51100000000E-03 0. -1.
        -11    1    3    3    0    0 -0.84251684036E+00 -0.10931589541E+01 -0.17241930708E+01  0.22085454788E+01  0.51100000000E-03 0.  1.
         12    1    3    3    0    0 -0.65476333567E+01  0.11586022351E+02  0.36288375287E+02  0.38651695920E+02  0.00000000000E+00 0. -1.
</event>
<event>
 7    1  0.3742599E-009  0.4778727E+02  0.7816164E-02  0.1312668E+00
        -11   -1    0    0    0    0  0.00000000000E+00  0.00000000000E+00  0.45593999997E+02  0.45594000000E+02  0.51100000000E-03 0.  1.
         11   -1    0    0    0    0 -0.00000000000E+00 -0.00000000000E+00 -0.45593999997E+02  0.45594000000E+02  0.51100000000E-03 0. -1.
    9900012    2    1    2    0    0  0.38145154519E+02 -0.20689008441E+02  0.73178650600E+00  0.47787269648E+02  0.19999993634E+02 0.  0.
        -12    1    1    2    0    0 -0.38145154519E+02  0.20689008441E+02 -0.73178650600E+00  0.43400730352E+02  0.00000000000E+00 0.  1.
         11    1    3    3    0    0  0.35646738601E+01 -0.52981714917E+01  0.61319602069E+01  0.88531608550E+01  0.51100000000E-03 0. -1.
        -11    1    3    3    0    0  0.56264637400E+00 -0.73878088882E+00 -0.13994848389E+01  0.16795613175E+01  0.51100000000E-03 0.  1.
         12    1    3    3    0    0  0.34017834285E+02 -0.14652056060E+02 -0.40006888621E+01  0.37254547476E+02  0.00000000000E+00 0. -1.
</event>
<event>
 7    1  0.3742599E-009  0.4778727E+02  0.7816164E-02  0.1312668E+00
        -11   -1    0    0    0    0  0.00000000000E+00  0.00000000000E+00  0.45593999997E+02  0.45594000000E+02  0.51100000000E-03 0.  1.
         11   -1    0    0    0    0 -0.00000000000E+00 -0.00000000000E+00 -0.45593999997E+02  0.45594000000E+02  0.51100000000E-03 0. -1.
    9900012    2    1    2    0    0  0.35862562205E+02 -0.68821351497E+01 -0.23454980243E+02  0.47787271315E+02  0.20000001236E+02 0.  0.
        -12    1    1    2    0    0 -0.35862562205E+02  0.68821351497E+01  0.23454980243E+02  0.43400728685E+02  0.00000000000E+00 0.  1.
         11    1    3    3    0    0  0.15939723725E+02 -0.50200520851E+01 -0.13193725667E+02  0.21292019928E+02  0.51100000000E-03 0. -1.
        -11    1    3    3    0    0  0.42190170669E+00 -0.41723652819E+01 -0.42207290827E+01  0.59498896920E+01  0.51100000000E-03 0.  1.
         12    1    3    3    0    0  0.19500936773E+02  0.23102822173E+01 -0.60405254934E+01  0.20545361696E+02  0.00000000000E+00 0. -1.
</event>
<event>
 7    1  0.3742599E-009  0.4778727E+02  0.7816164E-02  0.1312668E+00
        -11   -1    0    0    0    0  0.00000000000E+00  0.00000000000E+00  0.45593999997E+02  0.45594000000E+02  0.51100000000E-03 0.  1.
         11   -1    0    0    0    0 -0.00000000000E+00 -0.00000000000E+00 -0.45593999997E+02  0.45594000000E+02  0.51100000000E-03 0. -1.
    9900012    2    1    2    0    0 -0.14693332832E+02 -0.11154290385E+02 -0.39285000629E+02  0.47787268461E+02  0.19999988220E+02 0.  0.
        -12    1    1    2    0    0  0.14693332832E+02  0.11154290385E+02  0.39285000629E+02  0.43400731539E+02  0.00000000000E+00 0.  1.
         11    1    3    3    0    0 -0.10135499327E+02 -0.10455576450E+02 -0.21005854207E+02  0.25559603611E+02  0.51100000000E-03 0. -1.
        -11    1    3    3    0    0 -0.84230173625E+01  0.52976698507E+00 -0.10661378665E+02  0.13597531756E+02  0.51100000000E-03 0.  1.
        -12    1    3    3    0    0  0.38651838579E+01 -0.12284809205E+01 -0.76177677572E+01  0.86301330946E+01  0.00000000000E+00 0.  1.
</event>
<event>
 7    1  0.3742599E-009  0.4778726E+02  0.7816164E-02  0.1312668E+00
        -11   -1    0    0    0    0  0.00000000000E+00  0.00000000000E+00  0.45593999997E+02  0.45594000000E+02  0.51100000000E-03 0.  1.
         11   -1    0    0    0    0 -0.00000000000E+00 -0.00000000000E+00 -0.45593999997E+02  0.45594000000E+02  0.51100000000E-03 0. -1.
    9900012    2    1    2    0    0  0.38064936215E+02  0.67140761290E+01 -0.19738439008E+02  0.47787260816E+02  0.19999953363E+02 0.  0.
        -12    1    1    2    0    0 -0.38064936215E+02 -0.67140761290E+01  0.19738439008E+02  0.43400739184E+02  0.00000000000E+00 0.  1.
         11    1    3    3    0    0  0.75292271553E+01  0.24966288670E+01 -0.51030325491E+01  0.94320389478E+01  0.51100000000E-03 0. -1.
        -11    1    3    3    0    0  0.26624813989E+02  0.82948433743E+01 -0.68153112021E+01  0.28707727420E+02  0.51100000000E-03 0.  1.
         12    1    3    3    0    0  0.39108950698E+01 -0.40773961124E+01 -0.78200952564E+01  0.96474944480E+01  0.00000000000E+00 0. -1.
</event>
<event>
 7    1  0.3742599E-009  0.4778727E+02  0.7816164E-02  0.1312668E+00
        -11   -1    0    0    0    0  0.00000000000E+00  0.00000000000E+00  0.45593999997E+02  0.45594000000E+02  0.51100000000E-03 0.  1.
         11   -1    0    0    0    0 -0.00000000000E+00 -0.00000000000E+00 -0.45593999997E+02  0.45594000000E+02  0.51100000000E-03 0. -1.
    9900012    2    1    2    0    0 -0.25374202285E+02  0.22254241164E+02 -0.27285933776E+02  0.47787267594E+02  0.19999984266E+02 0.  0.
        -12    1    1    2    0    0  0.25374202285E+02 -0.22254241164E+02  0.27285933776E+02  0.43400732406E+02  0.00000000000E+00 0.  1.
         11    1    3    3    0    0 -0.26369371566E+01 -0.11661821563E+01 -0.53080379144E+01  0.60405864907E+01  0.51100000000E-03 0. -1.
        -11    1    3    3    0    0 -0.53438378260E+01  0.32606634801E+01  0.12840614635E+01  0.63904102485E+01  0.51100000000E-03 0.  1.
         12    1    3    3    0    0 -0.17393427303E+02  0.20159759840E+02 -0.23261957325E+02  0.35356270854E+02  0.00000000000E+00 0. -1.
</event>
<event>
 7    1  0.3742599E-009  0.4778727E+02  0.7816164E-02  0.1312668E+00
        -11   -1    0    0    0    0  0.00000000000E+00  0.00000000000E+00  0.45593999997E+02  0.45594000000E+02  0.51100000000E-03 0.  1.
         11   -1    0    0    0    0 -0.00000000000E+00 -0.00000000000E+00 -0.45593999997E+02  0.45594000000E+02  0.51100000000E-03 0. -1.
    9900012    2    1    2    0    0  0.37355276462E+02  0.15908140517E+02 -0.15334202194E+02  0.47787269924E+02  0.19999994890E+02 0.  0.
        -12    1    1    2    0    0 -0.37355276462E+02 -0.15908140517E+02  0.15334202194E+02  0.43400730076E+02  0.00000000000E+00 0.  1.
         11    1    3    3    0    0  0.52889040796E+01  0.78988731216E+01 -0.62556810173E+01  0.11379729707E+02  0.51100000000E-03 0. -1.
        -11    1    3    3    0    0  0.23235506153E+01 -0.11758860025E+01 -0.41378203572E+01  0.48890850802E+01  0.51100000000E-03 0.  1.
        -12    1    3    3    0    0  0.29742821767E+02  0.91851533979E+01 -0.49407008198E+01  0.31518455136E+02  0.00000000000E+00 0.  1.
</event>
<event>
 7    1  0.3742599E-009  0.4778727E+02  0.7816164E-02  0.1312668E+00
        -11   -1    0    0    0    0  0.00000000000E+00  0.00000000000E+00  0.45593999997E+02  0.45594000000E+02  0.51100000000E-03 0.  1.
         11   -1    0    0    0    0 -0.00000000000E+00 -0.00000000000E+00 -0.45593999997E+02  0.45594000000E+02  0.51100000000E-03 0. -1.
    9900012    2    1    2    0    0 -0.30062694574E+02  0.14714374164E+02 -0.27628692392E+02  0.47787273562E+02  0.20000011478E+02 0.  0.
        -12    1    1    2    0    0  0.30062694574E+02 -0.14714374164E+02  0.27628692392E+02  0.43400726438E+02  0.00000000000E+00 0.  1.
         11    1    3    3    0    0 -0.87853815257E+00  0.46300681297E+01 -0.50109583098E+01  0.68788853469E+01  0.51100000000E-03 0. -1.
        -11    1    3    3    0    0 -0.38116841454E+01 -0.11704729678E+01  0.13766394336E+01  0.42183029033E+01  0.51100000000E-03 0.  1.
         12    1    3    3    0    0 -0.25372472276E+02  0.11254779002E+02 -0.23994373516E+02  0.36690085312E+02  0.00000000000E+00 0. -1.
</event>
<event>
 7    1  0.3742599E-009  0.4778727E+02  0.7816164E-02  0.1312668E+00
        -11   -1    0    0    0    0  0.00000000000E+00  0.00000000000E+00  0.45593999997E+02  0.45594000000E+02  0.51100000000E-03 0.  1.
         11   -1    0    0    0    0 -0.00000000000E+00 -0.00000000000E+00 -0.45593999997E+02  0.45594000000E+02  0.51100000000E-03 0. -1.
    9900012    2    1    2    0    0 -0.31561740971E+02 -0.29537215434E+02 -0.38771858634E+01  0.47787272369E+02  0.20000006037E+02 0.  0.
        -12    1    1    2    0    0  0.31561740971E+02  0.29537215434E+02  0.38771858634E+01  0.43400727631E+02  0.00000000000E+00 0.  1.
         11    1    3    3    0    0 -0.81132044646E+01 -0.14919056683E+01  0.21838718706E+01  0.85334146633E+01  0.51100000000E-03 0. -1.
        -11    1    3    3    0    0 -0.16254481144E+02 -0.96041731501E+01 -0.44263798766E+01  0.19391780172E+02  0.51100000000E-03 0.  1.
         12    1    3    3    0    0 -0.71940553620E+01 -0.18441136616E+02 -0.16346778574E+01  0.19862077533E+02  0.00000000000E+00 0. -1.
</event>
<event>
 7    1  0.3742599E-009  0.4778727E+02  0.7816164E-02  0.1312668E+00
        -11   -1    0    0    0    0  0.00000000000E+00  0.00000000000E+00  0.45593999997E+02  0.45594000000E+02  0.51100000000E-03 0. -1.
         11   -1    0    0    0    0 -0.00000000000E+00 -0.00000000000E+00 -0.45593999997E+02  0.45594000000E+02  0.51100000000E-03 0.  1.
    9900012    2    1    2    0    0  0.41338473471E+02 -0.18348599774E+01  0.13091497202E+02  0.47787269602E+02  0.19999993423E+02 0.  0.
        -12    1    1    2    0    0 -0.41338473471E+02  0.18348599774E+01 -0.13091497202E+02  0.43400730398E+02  0.00000000000E+00 0.  1.
         11    1    3    3    0    0  0.58284782271E+01 -0.13140107939E+01 -0.20086217853E+01  0.63033597825E+01  0.51100000000E-03 0. -1.
        -11    1    3    3    0    0 -0.97860108329E+00  0.13932912199E+00  0.28046720613E+01  0.29737616443E+01  0.51100000000E-03 0.  1.
         12    1    3    3    0    0  0.36488596328E+02 -0.66017830546E+00  0.12295446926E+02  0.38510148175E+02  0.00000000000E+00 0. -1.
</event>
<event>
 7    1  0.3742599E-009  0.4778727E+02  0.7816164E-02  0.1312668E+00
        -11   -1    0    0    0    0  0.00000000000E+00  0.00000000000E+00  0.45593999997E+02  0.45594000000E+02  0.51100000000E-03 0.  1.
         11   -1    0    0    0    0 -0.00000000000E+00 -0.00000000000E+00 -0.45593999997E+02  0.45594000000E+02  0.51100000000E-03 0. -1.
    9900012    2    1    2    0    0 -0.13105700786E+02  0.87943935320E+01 -0.40429227524E+02  0.47787272023E+02  0.20000004464E+02 0.  0.
        -12    1    1    2    0    0  0.13105700786E+02 -0.87943935320E+01  0.40429227524E+02  0.43400727977E+02  0.00000000000E+00 0.  1.
         11    1    3    3    0    0 -0.22203541177E+01  0.80406274908E+01 -0.98039983234E+01  0.12872453000E+02  0.51100000000E-03 0. -1.
        -11    1    3    3    0    0 -0.28022601751E+01  0.16673440135E+01 -0.34452256765E-01  0.32609638710E+01  0.51100000000E-03 0.  1.
        -12    1    3    3    0    0 -0.80830864931E+01 -0.91357797234E+00 -0.30590776944E+02  0.31653855152E+02  0.00000000000E+00 0.  1.
</event>
<event>
 7    1  0.3742599E-009  0.4778727E+02  0.7816164E-02  0.1312668E+00
        -11   -1    0    0    0    0  0.00000000000E+00  0.00000000000E+00  0.45593999997E+02  0.45594000000E+02  0.51100000000E-03 0.  1.
         11   -1    0    0    0    0 -0.00000000000E+00 -0.00000000000E+00 -0.45593999997E+02  0.45594000000E+02  0.51100000000E-03 0. -1.
    9900012    2    1    2    0    0 -0.43374555237E+01 -0.15846264995E+02 -0.40170954171E+02  0.47787271968E+02  0.20000004209E+02 0.  0.
        -12    1    1    2    0    0  0.43374555237E+01  0.15846264995E+02  0.40170954171E+02  0.43400728032E+02  0.00000000000E+00 0.  1.
         11    1    3    3    0    0  0.12449464627E+00 -0.20428043735E+01 -0.41508224717E+00  0.20882629524E+01  0.51100000000E-03 0. -1.
        -11    1    3    3    0    0  0.44692530920E+01  0.11463470601E+01 -0.48726415397E+01  0.67105119490E+01  0.51100000000E-03 0.  1.
         12    1    3    3    0    0 -0.89312032620E+01 -0.14949807682E+02 -0.34883230384E+02  0.38988497066E+02  0.00000000000E+00 0. -1.
</event>
<event>
 7    1  0.3742599E-009  0.4778728E+02  0.7816164E-02  0.1312668E+00
        -11   -1    0    0    0    0  0.00000000000E+00  0.00000000000E+00  0.45593999997E+02  0.45594000000E+02  0.51100000000E-03 0. -1.
         11   -1    0    0    0    0 -0.00000000000E+00 -0.00000000000E+00 -0.45593999997E+02  0.45594000000E+02  0.51100000000E-03 0.  1.
    9900012    2    1    2    0    0  0.10600964531E+01 -0.35475726897E+02  0.24979427486E+02  0.47787276494E+02  0.20000024847E+02 0.  0.
        -12    1    1    2    0    0 -0.10600964531E+01  0.35475726897E+02 -0.24979427486E+02  0.43400723506E+02  0.00000000000E+00 0.  1.
         11    1    3    3    0    0 -0.67686972941E+00 -0.25579184378E+01  0.29859456185E+01  0.39896078583E+01  0.51100000000E-03 0. -1.
        -11    1    3    3    0    0 -0.72444336401E+01 -0.68174931012E+01  0.33828559876E+01  0.10507318680E+02  0.51100000000E-03 0.  1.
         12    1    3    3    0    0  0.89813998226E+01 -0.26100315358E+02  0.18610625880E+02  0.33290349956E+02  0.00000000000E+00 0. -1.
</event>
<event>
 7    1  0.3742599E-009  0.4778727E+02  0.7816164E-02  0.1312668E+00
        -11   -1    0    0    0    0  0.00000000000E+00  0.00000000000E+00  0.45593999997E+02  0.45594000000E+02  0.51100000000E-03 0. -1.
         11   -1    0    0    0    0 -0.00000000000E+00 -0.00000000000E+00 -0.45593999997E+02  0.45594000000E+02  0.51100000000E-03 0.  1.
    9900012    2    1    2    0    0  0.42410783105E+02 -0.92153369300E+01 -0.16256124543E+00  0.47787269770E+02  0.19999994191E+02 0.  0.
        -12    1    1    2    0    0 -0.42410783105E+02  0.92153369300E+01  0.16256124543E+00  0.43400730230E+02  0.00000000000E+00 0.  1.
         11    1    3    3    0    0  0.13633525045E+01 -0.20895372705E+01 -0.15322523982E+01  0.29279162777E+01  0.51100000000E-03 0. -1.
        -11    1    3    3    0    0  0.22128131863E+02 -0.11123831441E+01 -0.71146288155E+01  0.23270357957E+02  0.51100000000E-03 0.  1.
         12    1    3    3    0    0  0.18919298737E+02 -0.60134165154E+01  0.84843199683E+01  0.21588995535E+02  0.00000000000E+00 0. -1.
</event>
<event>
 7    1  0.3742599E-009  0.4778727E+02  0.7816164E-02  0.1312668E+00
        -11   -1    0    0    0    0  0.00000000000E+00  0.00000000000E+00  0.45593999997E+02  0.45594000000E+02  0.51100000000E-03 0. -1.
         11   -1    0    0    0    0 -0.00000000000E+00 -0.00000000000E+00 -0.45593999997E+02  0.45594000000E+02  0.51100000000E-03 0.  1.
    9900012    2    1    2    0    0 -0.35085273675E+02 -0.24973684538E+02 -0.53816317162E+01  0.47787270649E+02  0.19999998196E+02 0.  0.
        -12    1    1    2    0    0  0.35085273675E+02  0.24973684538E+02  0.53816317162E+01  0.43400729351E+02  0.00000000000E+00 0.  1.
         11    1    3    3    0    0  0.22207370490E+00 -0.33782378673E+00  0.79341947758E+00  0.89048097666E+00  0.51100000000E-03 0. -1.
        -11    1    3    3    0    0 -0.61282935939E+01  0.88203696981E+00  0.32666405849E+01  0.70003508884E+01  0.51100000000E-03 0.  1.
         12    1    3    3    0    0 -0.29179053786E+02 -0.25517897722E+02 -0.94416917787E+01  0.39896438784E+02  0.00000000000E+00 0. -1.
</event>
<event>
 7    1  0.3742599E-009  0.4778727E+02  0.7816164E-02  0.1312668E+00
        -11   -1    0    0    0    0  0.00000000000E+00  0.00000000000E+00  0.45593999997E+02  0.45594000000E+02  0.51100000000E-03 0.  1.
         11   -1    0    0    0    0 -0.00000000000E+00 -0.00000000000E+00 -0.45593999997E+02  0.45594000000E+02  0.51100000000E-03 0. -1.
    9900012    2    1    2    0    0 -0.91945543104E+01  0.36767500708E+02 -0.21147907900E+02  0.47787274824E+02  0.20000017233E+02 0.  0.
        -12    1    1    2    0    0  0.91945543104E+01 -0.36767500708E+02  0.21147907900E+02  0.43400725176E+02  0.00000000000E+00 0.  1.
         11    1    3    3    0    0 -0.24563306160E+01 -0.52362088906E+00  0.76274595603E+00  0.26247896268E+01  0.51100000000E-03 0. -1.
        -11    1    3    3    0    0 -0.33292695055E+01  0.16611017167E+02 -0.35738649597E+01  0.17314226456E+02  0.51100000000E-03 0.  1.
         12    1    3    3    0    0 -0.34089541889E+01  0.20680104429E+02 -0.18336788896E+02  0.27848258741E+02  0.00000000000E+00 0. -1.
</event>
<event>
 7    1  0.3742599E-009  0.4778727E+02  0.7816164E-02  0.1312668E+00
        -11   -1    0    0    0    0  0.00000000000E+00  0.00000000000E+00  0.45593999997E+02  0.45594000000E+02  0.51100000000E-03 0.  1.
         11   -1    0    0    0    0 -0.00000000000E+00 -0.00000000000E+00 -0.45593999997E+02  0.45594000000E+02  0.51100000000E-03 0. -1.
    9900012    2    1    2    0    0 -0.23207909321E+02 -0.26667212095E+02  0.25176890840E+02  0.47787273182E+02  0.20000009747E+02 0.  0.
        -12    1    1    2    0    0  0.23207909321E+02  0.26667212095E+02 -0.25176890840E+02  0.43400726818E+02  0.00000000000E+00 0.  1.
         11    1    3    3    0    0  0.84002831939E+00  0.79187360139E+00  0.10614935101E+01  0.15682729708E+01  0.51100000000E-03 0. -1.
        -11    1    3    3    0    0 -0.44040191728E+01  0.56625333216E+00  0.60934203141E+01  0.75396153148E+01  0.51100000000E-03 0.  1.
         12    1    3    3    0    0 -0.19643918468E+02 -0.28025339028E+02  0.18021977016E+02  0.38679384896E+02  0.00000000000E+00 0. -1.
</event>
<event>
 7    1  0.3742599E-009  0.4778727E+02  0.7816164E-02  0.1312668E+00
        -11   -1    0    0    0    0  0.00000000000E+00  0.00000000000E+00  0.45593999997E+02  0.45594000000E+02  0.51100000000E-03 0.  1.
         11   -1    0    0    0    0 -0.00000000000E+00 -0.00000000000E+00 -0.45593999997E+02  0.45594000000E+02  0.51100000000E-03 0. -1.
    9900012    2    1    2    0    0 -0.39721775292E+02 -0.62714373515E+01 -0.16323999694E+02  0.47787270458E+02  0.19999997326E+02 0.  0.
        -12    1    1    2    0    0  0.39721775292E+02  0.62714373515E+01  0.16323999694E+02  0.43400729542E+02  0.00000000000E+00 0.  1.
         11    1    3    3    0    0 -0.15012608514E+02 -0.34348724472E+01 -0.28535658738E+00  0.15403187714E+02  0.51100000000E-03 0. -1.
        -11    1    3    3    0    0 -0.89271611380E+01 -0.75120357760E+01 -0.69879947849E+01  0.13599888193E+02  0.51100000000E-03 0.  1.
         12    1    3    3    0    0 -0.15782005640E+02  0.46754708717E+01 -0.90506483214E+01  0.18784194551E+02  0.00000000000E+00 0. -1.
</event>
<event>
 7    1  0.3742599E-009  0.4778727E+02  0.7816164E-02  0.1312668E+00
        -11   -1    0    0    0    0  0.00000000000E+00  0.00000000000E+00  0.45593999997E+02  0.45594000000E+02  0.51100000000E-03 0.  1.
         11   -1    0    0    0    0 -0.00000000000E+00 -0.00000000000E+00 -0.45593999997E+02  0.45594000000E+02  0.51100000000E-03 0. -1.
    9900012    2    1    2    0    0 -0.24131005982E+02 -0.10571393420E+02 -0.34490049458E+02  0.47787270511E+02  0.19999997568E+02 0.  0.
        -12    1    1    2    0    0  0.24131005982E+02  0.10571393420E+02  0.34490049458E+02  0.43400729489E+02  0.00000000000E+00 0.  1.
         11    1    3    3    0    0 -0.69718767750E+01 -0.34680901355E+01 -0.21415695739E+02  0.22787425023E+02  0.51100000000E-03 0. -1.
        -11    1    3    3    0    0 -0.81468996137E+01  0.15585318941E+01 -0.79534047108E+01  0.11491633554E+02  0.51100000000E-03 0.  1.
        -12    1    3    3    0    0 -0.90122295935E+01 -0.86618351782E+01 -0.51209490086E+01  0.13508211934E+02  0.00000000000E+00 0.  1.
</event>
<event>
 7    1  0.3742599E-009  0.4778727E+02  0.7816164E-02  0.1312668E+00
        -11   -1    0    0    0    0  0.00000000000E+00  0.00000000000E+00  0.45593999997E+02  0.45594000000E+02  0.51100000000E-03 0. -1.
         11   -1    0    0    0    0 -0.00000000000E+00 -0.00000000000E+00 -0.45593999997E+02  0.45594000000E+02  0.51100000000E-03 0.  1.
    9900012    2    1    2    0    0 -0.36519124510E+02  0.67080501860E+01 -0.22471740204E+02  0.47787268439E+02  0.19999988119E+02 0.  0.
        -12    1    1    2    0    0  0.36519124510E+02 -0.67080501860E+01  0.22471740204E+02  0.43400731561E+02  0.00000000000E+00 0.  1.
         11    1    3    3    0    0 -0.22099111555E+02  0.46306318195E-01 -0.11046982064E+02  0.24706450348E+02  0.51100000000E-03 0. -1.
        -11    1    3    3    0    0 -0.12816358096E+02  0.46154667438E+00 -0.10571239851E+02  0.16619963069E+02  0.51100000000E-03 0.  1.
        -12    1    3    3    0    0 -0.16036548596E+01  0.62001971934E+01 -0.85351828851E+00  0.64608550219E+01  0.00000000000E+00 0.  1.
</event>
<event>
 7    1  0.3742599E-009  0.4778728E+02  0.7816164E-02  0.1312668E+00
        -11   -1    0    0    0    0  0.00000000000E+00  0.00000000000E+00  0.45593999997E+02  0.45594000000E+02  0.51100000000E-03 0.  1.
         11   -1    0    0    0    0 -0.00000000000E+00 -0.00000000000E+00 -0.45593999997E+02  0.45594000000E+02  0.51100000000E-03 0. -1.
    9900012    2    1    2    0    0  0.43544616133E+01  0.26936841359E+02 -0.33750077858E+02  0.47787279801E+02  0.20000039926E+02 0.  0.
        -12    1    1    2    0    0 -0.43544616133E+01 -0.26936841359E+02  0.33750077858E+02  0.43400720199E+02  0.00000000000E+00 0.  1.
         11    1    3    3    0    0  0.53262571230E+01  0.87755530326E+01 -0.18147349020E+02  0.20849595264E+02  0.51100000000E-03 0. -1.
        -11    1    3    3    0    0  0.18512784686E+01 -0.11609308849E+01 -0.47515410271E+00  0.22362388446E+01  0.51100000000E-03 0.  1.
        -12    1    3    3    0    0 -0.28230739783E+01  0.19322219211E+02 -0.15127574736E+02  0.24701445693E+02  0.00000000000E+00 0.  1.
</event>
<event>
 7    1  0.3742599E-009  0.4778727E+02  0.7816164E-02  0.1312668E+00
        -11   -1    0    0    0    0  0.00000000000E+00  0.00000000000E+00  0.45593999997E+02  0.45594000000E+02  0.51100000000E-03 0.  1.
         11   -1    0    0    0    0 -0.00000000000E+00 -0.00000000000E+00 -0.45593999997E+02  0.45594000000E+02  0.51100000000E-03 0. -1.
    9900012    2    1    2    0    0 -0.10543042837E+02  0.40399528867E+02 -0.11846759926E+02  0.47787269526E+02  0.19999993077E+02 0.  0.
        -12    1    1    2    0    0  0.10543042837E+02 -0.40399528867E+02  0.11846759926E+02  0.43400730474E+02  0.00000000000E+00 0.  1.
         11    1    3    3    0    0  0.87226329567E-01  0.29295131409E+01  0.10805787054E+01  0.31236687204E+01  0.51100000000E-03 0.  1.
        -11    1    3    3    0    0 -0.11237629615E+02  0.34232433724E+02 -0.16651624309E+02  0.39691566238E+02  0.51100000000E-03 0. -1.
         12    1    3    3    0    0  0.60736044823E+00  0.32375820016E+01  0.37242856777E+01  0.49720345675E+01  0.00000000000E+00 0. -1.
</event>
<event>
 7    1  0.3742599E-009  0.4778727E+02  0.7816164E-02  0.1312668E+00
        -11   -1    0    0    0    0  0.00000000000E+00  0.00000000000E+00  0.45593999997E+02  0.45594000000E+02  0.51100000000E-03 0.  1.
         11   -1    0    0    0    0 -0.00000000000E+00 -0.00000000000E+00 -0.45593999997E+02  0.45594000000E+02  0.51100000000E-03 0. -1.
    9900012    2    1    2    0    0 -0.18720808988E+02  0.39120900480E+02 -0.16462085916E+01  0.47787267906E+02  0.19999985692E+02 0.  0.
        -12    1    1    2    0    0  0.18720808988E+02 -0.39120900480E+02  0.16462085916E+01  0.43400732094E+02  0.00000000000E+00 0.  1.
         11    1    3    3    0    0  0.25616482454E+01  0.26694592264E+01 -0.89720725306E+00  0.38069719477E+01  0.51100000000E-03 0. -1.
        -11    1    3    3    0    0  0.13197754974E+01  0.27788121829E+01  0.13752691049E+01  0.33697136203E+01  0.51100000000E-03 0.  1.
        -12    1    3    3    0    0 -0.22602232730E+02  0.33672629071E+02 -0.21242704434E+01  0.40610582338E+02  0.00000000000E+00 0.  1.
</event>
<event>
 7    1  0.3742599E-009  0.4778727E+02  0.7816164E-02  0.1312668E+00
        -11   -1    0    0    0    0  0.00000000000E+00  0.00000000000E+00  0.45593999997E+02  0.45594000000E+02  0.51100000000E-03 0. -1.
         11   -1    0    0    0    0 -0.00000000000E+00 -0.00000000000E+00 -0.45593999997E+02  0.45594000000E+02  0.51100000000E-03 0.  1.
    9900012    2    1    2    0    0 -0.12693185297E+02 -0.32192067128E+02  0.26194977655E+02  0.47787274277E+02  0.20000014739E+02 0.  0.
        -12    1    1    2    0    0  0.12693185297E+02  0.32192067128E+02 -0.26194977655E+02  0.43400725723E+02  0.00000000000E+00 0.  1.
         11    1    3    3    0    0 -0.48711517301E+01 -0.20395378549E+01  0.56211937423E+01  0.77126942886E+01  0.51100000000E-03 0. -1.
        -11    1    3    3    0    0 -0.94772593486E+01 -0.14802652038E+02  0.53027714090E+01  0.18359094122E+02  0.51100000000E-03 0.  1.
        -12    1    3    3    0    0  0.16552257817E+01 -0.15349877235E+02  0.15271012504E+02  0.21715485866E+02  0.00000000000E+00 0.  1.
</event>
<event>
 7    1  0.3742599E-009  0.4778727E+02  0.7816164E-02  0.1312668E+00
        -11   -1    0    0    0    0  0.00000000000E+00  0.00000000000E+00  0.45593999997E+02  0.45594000000E+02  0.51100000000E-03 0.  1.
         11   -1    0    0    0    0 -0.00000000000E+00 -0.00000000000E+00 -0.45593999997E+02  0.45594000000E+02  0.51100000000E-03 0. -1.
    9900012    2    1    2    0    0 -0.29054953916E+02 -0.36238118329E+00 -0.32238198985E+02  0.47787272575E+02  0.20000006979E+02 0.  0.
        -12    1    1    2    0    0  0.29054953916E+02  0.36238118329E+00  0.32238198985E+02  0.43400727425E+02  0.00000000000E+00 0.  1.
         11    1    3    3    0    0  0.65832266396E+00  0.38741864761E+00  0.72846369595E+00  0.10555290407E+01  0.51100000000E-03 0. -1.
        -11    1    3    3    0    0 -0.11522245990E+02 -0.39732540736E+01 -0.22262120546E+02  0.25380128291E+02  0.51100000000E-03 0.  1.
         12    1    3    3    0    0 -0.18191030590E+02  0.32234542427E+01 -0.10704542135E+02  0.21351615243E+02  0.00000000000E+00 0. -1.
</event>
<event>
 7    1  0.3742599E-009  0.4778727E+02  0.7816164E-02  0.1312668E+00
        -11   -1    0    0    0    0  0.00000000000E+00  0.00000000000E+00  0.45593999997E+02  0.45594000000E+02  0.51100000000E-03 0.  1.
         11   -1    0    0    0    0 -0.00000000000E+00 -0.00000000000E+00 -0.45593999997E+02  0.45594000000E+02  0.51100000000E-03 0. -1.
    9900012    2    1    2    0    0  0.80383197091E+01 -0.19989346149E+02 -0.37675391616E+02  0.47787266405E+02  0.19999978846E+02 0.  0.
        -12    1    1    2    0    0 -0.80383197091E+01  0.19989346149E+02  0.37675391616E+02  0.43400733595E+02  0.00000000000E+00 0.  1.
         11    1    3    3    0    0  0.23286163313E+01 -0.35176278040E+01 -0.10537212708E+01  0.43481591695E+01  0.51100000000E-03 0.  1.
        -11    1    3    3    0    0  0.68729764504E+01 -0.11910011975E+02 -0.36186794312E+02  0.38711371370E+02  0.51100000000E-03 0. -1.
         12    1    3    3    0    0 -0.11632730726E+01 -0.45617063699E+01 -0.43487603320E+00  0.47277358652E+01  0.00000000000E+00 0. -1.
</event>
<event>
 7    1  0.3742599E-009  0.4778727E+02  0.7816164E-02  0.1312668E+00
        -11   -1    0    0    0    0  0.00000000000E+00  0.00000000000E+00  0.45593999997E+02  0.45594000000E+02  0.51100000000E-03 0.  1.
         11   -1    0    0    0    0 -0.00000000000E+00 -0.00000000000E+00 -0.45593999997E+02  0.45594000000E+02  0.51100000000E-03 0. -1.
    9900012    2    1    2    0    0  0.24788866320E+02 -0.33178844791E+02 -0.12973044258E+02  0.47787268297E+02  0.19999987472E+02 0.  0.
        -12    1    1    2    0    0 -0.24788866320E+02  0.33178844791E+02  0.12973044258E+02  0.43400731703E+02  0.00000000000E+00 0.  1.
         11    1    3    3    0    0  0.32465654643E+01 -0.12023933795E+02 -0.17523416236E+01  0.12577196534E+02  0.51100000000E-03 0. -1.
        -11    1    3    3    0    0  0.10563075218E+02 -0.17458074118E+02 -0.21919303602E+01  0.20522365091E+02  0.51100000000E-03 0.  1.
         12    1    3    3    0    0  0.10979225637E+02 -0.36968368774E+01 -0.90287722744E+01  0.14687706672E+02  0.00000000000E+00 0. -1.
</event>
<event>
 7    1  0.3742599E-009  0.4778727E+02  0.7816164E-02  0.1312668E+00
        -11   -1    0    0    0    0  0.00000000000E+00  0.00000000000E+00  0.45593999997E+02  0.45594000000E+02  0.51100000000E-03 0. -1.
         11   -1    0    0    0    0 -0.00000000000E+00 -0.00000000000E+00 -0.45593999997E+02  0.45594000000E+02  0.51100000000E-03 0.  1.
    9900012    2    1    2    0    0 -0.38118997058E+01 -0.11859637126E+02  0.41574531187E+02  0.47787271716E+02  0.20000003064E+02 0.  0.
        -12    1    1    2    0    0  0.38118997058E+01  0.11859637126E+02 -0.41574531187E+02  0.43400728284E+02  0.00000000000E+00 0.  1.
         11    1    3    3    0    0  0.40640466352E+01  0.11258458030E+01  0.10350477748E+02  0.11176600275E+02  0.51100000000E-03 0.  1.
        -11    1    3    3    0    0 -0.44351114632E+01 -0.26895647909E+00  0.15360603336E+02  0.15990331028E+02  0.51100000000E-03 0. -1.
         12    1    3    3    0    0 -0.34408348777E+01 -0.12716526450E+02  0.15863450103E+02  0.20620340414E+02  0.00000000000E+00 0. -1.
</event>
<event>
 7    1  0.3742599E-009  0.4778727E+02  0.7816164E-02  0.1312668E+00
        -11   -1    0    0    0    0  0.00000000000E+00  0.00000000000E+00  0.45593999997E+02  0.45594000000E+02  0.51100000000E-03 0.  1.
         11   -1    0    0    0    0 -0.00000000000E+00 -0.00000000000E+00 -0.45593999997E+02  0.45594000000E+02  0.51100000000E-03 0. -1.
    9900012    2    1    2    0    0 -0.16010828939E+02 -0.39921869793E+02 -0.57897372453E+01  0.47787269724E+02  0.19999993982E+02 0.  0.
        -12    1    1    2    0    0  0.16010828939E+02  0.39921869793E+02  0.57897372453E+01  0.43400730276E+02  0.00000000000E+00 0.  1.
         11    1    3    3    0    0  0.65076404434E+00 -0.47841609908E+01  0.16500817221E+01  0.51023974931E+01  0.51100000000E-03 0. -1.
        -11    1    3    3    0    0 -0.46017132568E+01 -0.73476894807E+01  0.49177363146E+01  0.99673685757E+01  0.51100000000E-03 0.  1.
         12    1    3    3    0    0 -0.12059879727E+02 -0.27790019321E+02 -0.12357555282E+02  0.32717503656E+02  0.00000000000E+00 0. -1.
</event>
<event>
 7    1  0.3742599E-009  0.4778727E+02  0.7816164E-02  0.1312668E+00
        -11   -1    0    0    0    0  0.00000000000E+00  0.00000000000E+00  0.45593999997E+02  0.45594000000E+02  0.51100000000E-03 0.  1.
         11   -1    0    0    0    0 -0.00000000000E+00 -0.00000000000E+00 -0.45593999997E+02  0.45594000000E+02  0.51100000000E-03 0. -1.
    9900012    2    1    2    0    0  0.16689576811E+02  0.40027726175E+02 -0.16918826847E+01  0.47787270698E+02  0.19999998421E+02 0.  0.
        -12    1    1    2    0    0 -0.16689576811E+02 -0.40027726175E+02  0.16918826847E+01  0.43400729302E+02  0.00000000000E+00 0.  1.
         11    1    3    3    0    0  0.21963236449E+01  0.81893623670E+01  0.14419537033E+01  0.86005072103E+01  0.51100000000E-03 0. -1.
        -11    1    3    3    0    0  0.72810913819E+01  0.19918889312E+02  0.65774311445E+01  0.22204482518E+02  0.51100000000E-03 0.  1.
         12    1    3    3    0    0  0.72121617843E+01  0.11919474496E+02 -0.97112675324E+01  0.16982280970E+02  0.00000000000E+00 0. -1.
</event>
<event>
 7    1  0.3742599E-009  0.4778727E+02  0.7816164E-02  0.1312668E+00
        -11   -1    0    0    0    0  0.00000000000E+00  0.00000000000E+00  0.45593999997E+02  0.45594000000E+02  0.51100000000E-03 0.  1.
         11   -1    0    0    0    0 -0.00000000000E+00 -0.00000000000E+00 -0.45593999997E+02  0.45594000000E+02  0.51100000000E-03 0. -1.
    9900012    2    1    2    0    0 -0.32951869332E+02  0.18051330557E+02 -0.21724336367E+02  0.47787273993E+02  0.20000013446E+02 0.  0.
        -12    1    1    2    0    0  0.32951869332E+02 -0.18051330557E+02  0.21724336367E+02  0.43400726007E+02  0.00000000000E+00 0.  1.
         11    1    3    3    0    0 -0.18400599599E+02  0.18700498929E+02 -0.13651752052E+02  0.29574669231E+02  0.51100000000E-03 0. -1.
        -11    1    3    3    0    0 -0.29293050736E+01  0.28024527918E+01 -0.99517782917E+00  0.41743201887E+01  0.51100000000E-03 0.  1.
        -12    1    3    3    0    0 -0.11621964659E+02 -0.34516211642E+01 -0.70774064851E+01  0.14038284573E+02  0.00000000000E+00 0.  1.
</event>
<event>
 7    1  0.3742599E-009  0.4778727E+02  0.7816164E-02  0.1312668E+00
        -11   -1    0    0    0    0  0.00000000000E+00  0.00000000000E+00  0.45593999997E+02  0.45594000000E+02  0.51100000000E-03 0. -1.
         11   -1    0    0    0    0 -0.00000000000E+00 -0.00000000000E+00 -0.45593999997E+02  0.45594000000E+02  0.51100000000E-03 0.  1.
    9900012    2    1    2    0    0 -0.39980373520E+02  0.16887576268E+02  0.51340113908E-01  0.47787272647E+02  0.20000007306E+02 0.  0.
        -12    1    1    2    0    0  0.39980373520E+02 -0.16887576268E+02 -0.51340113908E-01  0.43400727353E+02  0.00000000000E+00 0.  1.
         11    1    3    3    0    0 -0.95519866096E+01  0.95555825690E+00  0.37942953760E+01  0.10322316476E+02  0.51100000000E-03 0. -1.
        -11    1    3    3    0    0 -0.13046094219E+02  0.58097810251E+01  0.55314360259E+01  0.15315055165E+02  0.51100000000E-03 0.  1.
        -12    1    3    3    0    0 -0.17382292691E+02  0.10122236986E+02 -0.92743912880E+01  0.22149901006E+02  0.00000000000E+00 0.  1.
</event>
<event>
 7    1  0.3742599E-009  0.4778727E+02  0.7816164E-02  0.1312668E+00
        -11   -1    0    0    0    0  0.00000000000E+00  0.00000000000E+00  0.45593999997E+02  0.45594000000E+02  0.51100000000E-03 0. -1.
         11   -1    0    0    0    0 -0.00000000000E+00 -0.00000000000E+00 -0.45593999997E+02  0.45594000000E+02  0.51100000000E-03 0.  1.
    9900012    2    1    2    0    0  0.42697360735E+02  0.57314534039E+01  0.52639640069E+01  0.47787268567E+02  0.19999988705E+02 0.  0.
        -12    1    1    2    0    0 -0.42697360735E+02 -0.57314534039E+01 -0.52639640069E+01  0.43400731433E+02  0.00000000000E+00 0.  1.
         11    1    3    3    0    0  0.21921861552E+01 -0.64498951207E+00 -0.25063652085E+01  0.33916896128E+01  0.51100000000E-03 0. -1.
        -11    1    3    3    0    0  0.32509025609E+01 -0.38376304304E+01  0.21192408633E+00  0.50339534027E+01  0.51100000000E-03 0.  1.
         12    1    3    3    0    0  0.37254272019E+02  0.10214073346E+02  0.75584051291E+01  0.39361625552E+02  0.00000000000E+00 0. -1.
</event>
<event>
 7    1  0.3742599E-009  0.4778727E+02  0.7816164E-02  0.1312668E+00
        -11   -1    0    0    0    0  0.00000000000E+00  0.00000000000E+00  0.45593999997E+02  0.45594000000E+02  0.51100000000E-03 0.  1.
         11   -1    0    0    0    0 -0.00000000000E+00 -0.00000000000E+00 -0.45593999997E+02  0.45594000000E+02  0.51100000000E-03 0. -1.
    9900012    2    1    2    0    0  0.10838719187E+02  0.37946212601E+02 -0.18061846077E+02  0.47787272264E+02  0.20000005559E+02 0.  0.
        -12    1    1    2    0    0 -0.10838719187E+02 -0.37946212601E+02  0.18061846077E+02  0.43400727736E+02  0.00000000000E+00 0.  1.
         11    1    3    3    0    0  0.14770805656E+01  0.74821798985E+00  0.17396122319E+01  0.24016344718E+01  0.51100000000E-03 0. -1.
        -11    1    3    3    0    0  0.11701410261E+02  0.19461617234E+02 -0.86245312628E+01  0.24291152447E+02  0.51100000000E-03 0.  1.
         12    1    3    3    0    0 -0.23397716394E+01  0.17736377377E+02 -0.11176927046E+02  0.21094485345E+02  0.00000000000E+00 0. -1.
</event>
<event>
 7    1  0.3742599E-009  0.4778725E+02  0.7816164E-02  0.1312668E+00
        -11   -1    0    0    0    0  0.00000000000E+00  0.00000000000E+00  0.45593999997E+02  0.45594000000E+02  0.51100000000E-03 0.  1.
         11   -1    0    0    0    0 -0.00000000000E+00 -0.00000000000E+00 -0.45593999997E+02  0.45594000000E+02  0.51100000000E-03 0. -1.
    9900012    2    1    2    0    0  0.27285211954E+02  0.79311617159E+01 -0.32806076796E+02  0.47787253552E+02  0.19999920244E+02 0.  0.
        -12    1    1    2    0    0 -0.27285211954E+02 -0.79311617159E+01  0.32806076796E+02  0.43400746448E+02  0.00000000000E+00 0.  1.
         11    1    3    3    0    0  0.11481942650E+02  0.45551589813E+01 -0.16681303714E+02  0.20756935569E+02  0.51100000000E-03 0. -1.
        -11    1    3    3    0    0  0.43789565070E+01 -0.35720400611E+01 -0.11618908054E+02  0.12920284630E+02  0.51100000000E-03 0.  1.
         12    1    3    3    0    0  0.11424312797E+02  0.69480427957E+01 -0.45058650281E+01  0.14110033353E+02  0.00000000000E+00 0. -1.
</event>
<event>
 7    1  0.4180648E-009  0.4778727E+02  0.7816164E-02  0.1312668E+00
        -11   -1    0    0    0    0  0.00000000000E+00  0.00000000000E+00  0.45593999997E+02  0.45594000000E+02  0.51100000000E-03 0. -1.
         11   -1    0    0    0    0 -0.00000000000E+00 -0.00000000000E+00 -0.45593999997E+02  0.45594000000E+02  0.51100000000E-03 0.  1.
    9900012    2    1    2    0    0 -0.61015848723E+01 -0.38940761839E+02  0.18166204609E+02  0.47787271199E+02  0.20000000706E+02 0.  0.
        -12    1    1    2    0    0  0.61015848723E+01  0.38940761839E+02 -0.18166204609E+02  0.43400728801E+02  0.00000000000E+00 0.  1.
         11    1    3    3    0    0 -0.71647477814E+00 -0.20067370698E+02  0.10476465608E+02  0.22648819721E+02  0.51100000000E-03 0. -1.
        -11    1    3    3    0    0  0.41252975026E+01 -0.35929418763E+01  0.39711704758E+01  0.67599930488E+01  0.51100000000E-03 0.  1.
        -12    1    3    3    0    0 -0.95104075968E+01 -0.15280449264E+02  0.37185685249E+01  0.18378458429E+02  0.00000000000E+00 0.  1.
</event>
<event>
 7    1  0.3742599E-009  0.4778729E+02  0.7816164E-02  0.1312668E+00
        -11   -1    0    0    0    0  0.00000000000E+00  0.00000000000E+00  0.45593999997E+02  0.45594000000E+02  0.51100000000E-03 0. -1.
         11   -1    0    0    0    0 -0.00000000000E+00 -0.00000000000E+00 -0.45593999997E+02  0.45594000000E+02  0.51100000000E-03 0.  1.
    9900012    2    1    2    0    0 -0.30344026968E+02  0.12739105761E+02  0.28294459300E+02  0.47787294761E+02  0.20000108132E+02 0.  0.
        -12    1    1    2    0    0  0.30344026968E+02 -0.12739105761E+02 -0.28294459300E+02  0.43400705239E+02  0.00000000000E+00 0.  1.
         11    1    3    3    0    0 -0.15247089178E+02  0.58355619155E+01  0.35693357555E+01  0.16711303637E+02  0.51100000000E-03 0. -1.
        -11    1    3    3    0    0 -0.47870235673E+01 -0.19117994639E+01  0.53999679746E+01  0.74652679933E+01  0.51100000000E-03 0.  1.
        -12    1    3    3    0    0 -0.10309914223E+02  0.88153433094E+01  0.19325155569E+02  0.23610723130E+02  0.00000000000E+00 0.  1.
</event>
<event>
 7    1  0.3742599E-009  0.4778727E+02  0.7816164E-02  0.1312668E+00
        -11   -1    0    0    0    0  0.00000000000E+00  0.00000000000E+00  0.45593999997E+02  0.45594000000E+02  0.51100000000E-03 0.  1.
         11   -1    0    0    0    0 -0.00000000000E+00 -0.00000000000E+00 -0.45593999997E+02  0.45594000000E+02  0.51100000000E-03 0. -1.
    9900012    2    1    2    0    0 -0.37701608984E+02 -0.31583119590E+01 -0.21265862405E+02  0.47787272376E+02  0.20000006072E+02 0.  0.
        -12    1    1    2    0    0  0.37701608984E+02  0.31583119590E+01  0.21265862405E+02  0.43400727624E+02  0.00000000000E+00 0.  1.
         11    1    3    3    0    0 -0.91266326031E+01 -0.77122292030E+00 -0.38685258276E+01  0.99426203691E+01  0.51100000000E-03 0. -1.
        -11    1    3    3    0    0 -0.73554788926E+01  0.54200312199E+01  0.28517527806E+00  0.91411778981E+01  0.51100000000E-03 0.  1.
         12    1    3    3    0    0 -0.21219497489E+02 -0.78071202586E+01 -0.17682511856E+02  0.28703474109E+02  0.00000000000E+00 0. -1.
</event>
<event>
 7    1  0.3742599E-009  0.4778727E+02  0.7816164E-02  0.1312668E+00
        -11   -1    0    0    0    0  0.00000000000E+00  0.00000000000E+00  0.45593999997E+02  0.45594000000E+02  0.51100000000E-03 0.  1.
         11   -1    0    0    0    0 -0.00000000000E+00 -0.00000000000E+00 -0.45593999997E+02  0.45594000000E+02  0.51100000000E-03 0. -1.
    9900012    2    1    2    0    0  0.53547083523E+01  0.59955889702E+01 -0.42649772485E+02  0.47787273259E+02  0.20000010095E+02 0.  0.
        -12    1    1    2    0    0 -0.53547083523E+01 -0.59955889702E+01  0.42649772485E+02  0.43400726741E+02  0.00000000000E+00 0.  1.
         11    1    3    3    0    0  0.30615850336E+01  0.62296067502E+01 -0.15211138118E+02  0.16720048633E+02  0.51100000000E-03 0. -1.
        -11    1    3    3    0    0  0.68961576349E+01  0.41833616655E+01 -0.13278726609E+02  0.15536475970E+02  0.51100000000E-03 0.  1.
        -12    1    3    3    0    0 -0.46030343162E+01 -0.44173794455E+01 -0.14159907759E+02  0.15530748656E+02  0.00000000000E+00 0.  1.
</event>
<event>
 7    1  0.3742599E-009  0.4778727E+02  0.7816164E-02  0.1312668E+00
        -11   -1    0    0    0    0  0.00000000000E+00  0.00000000000E+00  0.45593999997E+02  0.45594000000E+02  0.51100000000E-03 0. -1.
         11   -1    0    0    0    0 -0.00000000000E+00 -0.00000000000E+00 -0.45593999997E+02  0.45594000000E+02  0.51100000000E-03 0.  1.
    9900012    2    1    2    0    0  0.14969443427E+02  0.28272581160E+02  0.29329168549E+02  0.47787271784E+02  0.20000003371E+02 0.  0.
        -12    1    1    2    0    0 -0.14969443427E+02 -0.28272581160E+02 -0.29329168549E+02  0.43400728216E+02  0.00000000000E+00 0.  1.
         11    1    3    3    0    0  0.45712224206E+01  0.21481301871E+00  0.25496478847E+01  0.52385993976E+01  0.51100000000E-03 0. -1.
        -11    1    3    3    0    0 -0.50249011346E+00 -0.73182402877E+00  0.44018596270E+01  0.44904822859E+01  0.51100000000E-03 0.  1.
         12    1    3    3    0    0  0.10900711120E+02  0.28789592170E+02  0.22377661037E+02  0.38058190100E+02  0.00000000000E+00 0. -1.
</event>
<event>
 7    1  0.3742599E-009  0.4778727E+02  0.7816164E-02  0.1312668E+00
        -11   -1    0    0    0    0  0.00000000000E+00  0.00000000000E+00  0.45593999997E+02  0.45594000000E+02  0.51100000000E-03 0.  1.
         11   -1    0    0    0    0 -0.00000000000E+00 -0.00000000000E+00 -0.45593999997E+02  0.45594000000E+02  0.51100000000E-03 0. -1.
    9900012    2    1    2    0    0  0.62944260759E+01 -0.17535246915E+01 -0.42906041360E+02  0.47787273811E+02  0.20000012616E+02 0.  0.
        -12    1    1    2    0    0 -0.62944260759E+01  0.17535246915E+01  0.42906041360E+02  0.43400726189E+02  0.00000000000E+00 0.  1.
         11    1    3    3    0    0  0.41959006142E+01  0.40746848198E+00 -0.25212281255E+02  0.25562291346E+02  0.51100000000E-03 0. -1.
        -11    1    3    3    0    0 -0.58162718296E+00  0.45932496947E+01 -0.12395492661E+02  0.13231948893E+02  0.51100000000E-03 0.  1.
        -12    1    3    3    0    0  0.26801526446E+01 -0.67542428682E+01 -0.52982674448E+01  0.89930335726E+01  0.00000000000E+00 0.  1.
</event>
<event>
 7    1  0.3742599E-009  0.4778727E+02  0.7816164E-02  0.1312668E+00
        -11   -1    0    0    0    0  0.00000000000E+00  0.00000000000E+00  0.45593999997E+02  0.45594000000E+02  0.51100000000E-03 0.  1.
         11   -1    0    0    0    0 -0.00000000000E+00 -0.00000000000E+00 -0.45593999997E+02  0.45594000000E+02  0.51100000000E-03 0. -1.
    9900012    2    1    2    0    0  0.37121495453E+02 -0.51897297227E+01 -0.21878869814E+02  0.47787266554E+02  0.19999979528E+02 0.  0.
        -12    1    1    2    0    0 -0.37121495453E+02  0.51897297227E+01  0.21878869814E+02  0.43400733446E+02  0.00000000000E+00 0.  1.
         11    1    3    3    0    0  0.79152429431E+01 -0.19094452655E+00 -0.11855919104E+02  0.14256589659E+02  0.51100000000E-03 0. -1.
        -11    1    3    3    0    0  0.37177861865E+01 -0.53168593247E+01 -0.25067338494E+01  0.69551881398E+01  0.51100000000E-03 0.  1.
        -12    1    3    3    0    0  0.25488466324E+02  0.31807412855E+00 -0.75162168608E+01  0.26575488755E+02  0.00000000000E+00 0.  1.
</event>
<event>
 7    1  0.3742599E-009  0.4778730E+02  0.7816164E-02  0.1312668E+00
        -11   -1    0    0    0    0  0.00000000000E+00  0.00000000000E+00  0.45593999997E+02  0.45594000000E+02  0.51100000000E-03 0.  1.
         11   -1    0    0    0    0 -0.00000000000E+00 -0.00000000000E+00 -0.45593999997E+02  0.45594000000E+02  0.51100000000E-03 0. -1.
    9900012    2    1    2    0    0 -0.23740390101E+02  0.23106800728E+02 -0.28037296246E+02  0.47787304812E+02  0.20000153957E+02 0.  0.
        -12    1    1    2    0    0  0.23740390101E+02 -0.23106800728E+02  0.28037296246E+02  0.43400695188E+02  0.00000000000E+00 0.  1.
         11    1    3    3    0    0 -0.78564509061E+01  0.18078814489E+02 -0.18860992078E+02  0.27281942317E+02  0.51100000000E-03 0. -1.
        -11    1    3    3    0    0 -0.80057010720E+01  0.62325906569E+01 -0.67052123452E+01  0.12161262632E+02  0.51100000000E-03 0.  1.
        -12    1    3    3    0    0 -0.78782381225E+01 -0.12046044171E+01 -0.24710918228E+01  0.83440998624E+01  0.00000000000E+00 0.  1.
</event>
<event>
 7    1  0.3742599E-009  0.4778726E+02  0.7816164E-02  0.1312668E+00
        -11   -1    0    0    0    0  0.00000000000E+00  0.00000000000E+00  0.45593999997E+02  0.45594000000E+02  0.51100000000E-03 0.  1.
         11   -1    0    0    0    0 -0.00000000000E+00 -0.00000000000E+00 -0.45593999997E+02  0.45594000000E+02  0.51100000000E-03 0. -1.
    9900012    2    1    2    0    0  0.32723513252E+02 -0.13022101558E+02 -0.25361803792E+02  0.47787256457E+02  0.19999933488E+02 0.  0.
        -12    1    1    2    0    0 -0.32723513252E+02  0.13022101558E+02  0.25361803792E+02  0.43400743543E+02  0.00000000000E+00 0.  1.
         11    1    3    3    0    0  0.35438142472E+01 -0.49823560667E+01 -0.33737739596E+01  0.69831828263E+01  0.51100000000E-03 0.  1.
        -11    1    3    3    0    0  0.24190340872E+01 -0.49199521806E+01  0.77039821933E+00  0.55363497949E+01  0.51100000000E-03 0. -1.
        -12    1    3    3    0    0  0.26760664918E+02 -0.31197933104E+01 -0.22758428052E+02  0.35267723835E+02  0.00000000000E+00 0.  1.
</event>
<event>
 7    1  0.3742599E-009  0.4778728E+02  0.7816164E-02  0.1312668E+00
        -11   -1    0    0    0    0  0.00000000000E+00  0.00000000000E+00  0.45593999997E+02  0.45594000000E+02  0.51100000000E-03 0.  1.
         11   -1    0    0    0    0 -0.00000000000E+00 -0.00000000000E+00 -0.45593999997E+02  0.45594000000E+02  0.51100000000E-03 0. -1.
    9900012    2    1    2    0    0  0.28847242128E+02  0.51140672615E+01 -0.32020388224E+02  0.47787281984E+02  0.20000049876E+02 0.  0.
        -12    1    1    2    0    0 -0.28847242128E+02 -0.51140672615E+01  0.32020388224E+02  0.43400718016E+02  0.00000000000E+00 0.  1.
         11    1    3    3    0    0  0.36766478874E+01  0.61084390103E+01 -0.58042447655E+00  0.71531573214E+01  0.51100000000E-03 0. -1.
        -11    1    3    3    0    0 -0.69436663685E-01  0.16300091761E+00 -0.12666371046E+01  0.12789685553E+01  0.51100000000E-03 0.  1.
         12    1    3    3    0    0  0.25240030904E+02 -0.11573726664E+01 -0.30173326642E+02  0.39355156107E+02  0.00000000000E+00 0. -1.
</event>
<event>
 7    1  0.3742599E-009  0.4778727E+02  0.7816164E-02  0.1312668E+00
        -11   -1    0    0    0    0  0.00000000000E+00  0.00000000000E+00  0.45593999997E+02  0.45594000000E+02  0.51100000000E-03 0.  1.
         11   -1    0    0    0    0 -0.00000000000E+00 -0.00000000000E+00 -0.45593999997E+02  0.45594000000E+02  0.51100000000E-03 0. -1.
    9900012    2    1    2    0    0 -0.28995401481E+02  0.18159426093E+02 -0.26704405724E+02  0.47787270189E+02  0.19999996099E+02 0.  0.
        -12    1    1    2    0    0  0.28995401481E+02 -0.18159426093E+02  0.26704405724E+02  0.43400729811E+02  0.00000000000E+00 0.  1.
         11    1    3    3    0    0 -0.15717316459E+02  0.27249656646E+01 -0.17016739145E+02  0.23324426808E+02  0.51100000000E-03 0. -1.
        -11    1    3    3    0    0 -0.42116608869E+01 -0.37725152350E+00 -0.20767151679E+01  0.47109608667E+01  0.51100000000E-03 0.  1.
         12    1    3    3    0    0 -0.90664241350E+01  0.15811711952E+02 -0.76109514110E+01  0.19751882514E+02  0.00000000000E+00 0. -1.
</event>
<event>
 7    1  0.3742599E-009  0.4778727E+02  0.7816164E-02  0.1312668E+00
        -11   -1    0    0    0    0  0.00000000000E+00  0.00000000000E+00  0.45593999997E+02  0.45594000000E+02  0.51100000000E-03 0.  1.
         11   -1    0    0    0    0 -0.00000000000E+00 -0.00000000000E+00 -0.45593999997E+02  0.45594000000E+02  0.51100000000E-03 0. -1.
    9900012    2    1    2    0    0 -0.32881391240E+02  0.20094535138E+02  0.19966139123E+02  0.47787274847E+02  0.20000017339E+02 0.  0.
        -12    1    1    2    0    0  0.32881391240E+02 -0.20094535138E+02 -0.19966139123E+02  0.43400725153E+02  0.00000000000E+00 0.  1.
         11    1    3    3    0    0 -0.11696432768E+02  0.53790266545E+01  0.29324502538E+01  0.13203777187E+02  0.51100000000E-03 0. -1.
        -11    1    3    3    0    0 -0.21661687531E+02  0.76093851407E+01  0.13479266184E+02  0.26623712476E+02  0.51100000000E-03 0.  1.
        -12    1    3    3    0    0  0.47672905886E+00  0.71061233424E+01  0.35544226860E+01  0.79597851845E+01  0.00000000000E+00 0.  1.
</event>
<event>
 7    1  0.3742599E-009  0.4778727E+02  0.7816164E-02  0.1312668E+00
        -11   -1    0    0    0    0  0.00000000000E+00  0.00000000000E+00  0.45593999997E+02  0.45594000000E+02  0.51100000000E-03 0.  1.
         11   -1    0    0    0    0 -0.00000000000E+00 -0.00000000000E+00 -0.45593999997E+02  0.45594000000E+02  0.51100000000E-03 0. -1.
    9900012    2    1    2    0    0  0.14366200464E+02  0.33721880867E+02  0.23239408013E+02  0.47787273626E+02  0.20000011770E+02 0.  0.
        -12    1    1    2    0    0 -0.14366200464E+02 -0.33721880867E+02 -0.23239408013E+02  0.43400726374E+02  0.00000000000E+00 0.  1.
         11    1    3    3    0    0  0.86580194733E+01  0.75122001201E+01  0.34590238123E+01  0.11973274316E+02  0.51100000000E-03 0. -1.
        -11    1    3    3    0    0 -0.30586668353E+01  0.19813810991E+01  0.60083549188E+00  0.36935507873E+01  0.51100000000E-03 0.  1.
        -12    1    3    3    0    0  0.87668478262E+01  0.24228299648E+02  0.19179548709E+02  0.32120448523E+02  0.00000000000E+00 0.  1.
</event>
<event>
 7    1  0.4353882E-009  0.4778727E+02  0.7816164E-02  0.1312668E+00
        -11   -1    0    0    0    0  0.00000000000E+00  0.00000000000E+00  0.45593999997E+02  0.45594000000E+02  0.51100000000E-03 0. -1.
         11   -1    0    0    0    0 -0.00000000000E+00 -0.00000000000E+00 -0.45593999997E+02  0.45594000000E+02  0.51100000000E-03 0.  1.
    9900012    2    1    2    0    0 -0.39796752048E+02 -0.42917616904E+01  0.16775653159E+02  0.47787271540E+02  0.20000002259E+02 0.  0.
        -12    1    1    2    0    0  0.39796752048E+02  0.42917616904E+01 -0.16775653159E+02  0.43400728460E+02  0.00000000000E+00 0.  1.
         11    1    3    3    0    0 -0.14678038459E+02  0.30468572490E+01  0.44468342644E+01  0.15636575307E+02  0.51100000000E-03 0.  1.
        -11    1    3    3    0    0 -0.87457795531E+01  0.37983704396E+00  0.10918900580E+02  0.13994832129E+02  0.51100000000E-03 0. -1.
        -12    1    3    3    0    0 -0.16372934036E+02 -0.77184559833E+01  0.14099183139E+01  0.18155864104E+02  0.00000000000E+00 0.  1.
</event>
<event>
 7    1  0.3742599E-009  0.4778727E+02  0.7816164E-02  0.1312668E+00
        -11   -1    0    0    0    0  0.00000000000E+00  0.00000000000E+00  0.45593999997E+02  0.45594000000E+02  0.51100000000E-03 0. -1.
         11   -1    0    0    0    0 -0.00000000000E+00 -0.00000000000E+00 -0.45593999997E+02  0.45594000000E+02  0.51100000000E-03 0.  1.
    9900012    2    1    2    0    0 -0.39322808318E+02 -0.76057535845E+01 -0.16718023355E+02  0.47787273664E+02  0.20000011944E+02 0.  0.
        -12    1    1    2    0    0  0.39322808318E+02  0.76057535845E+01  0.16718023355E+02  0.43400726336E+02  0.00000000000E+00 0.  1.
         11    1    3    3    0    0  0.95868302787E+00  0.73336958336E+00 -0.65452460052E+00  0.13730647499E+01  0.51100000000E-03 0. -1.
        -11    1    3    3    0    0 -0.12855763768E+02 -0.26171425699E+01 -0.12590434005E+02  0.18183484979E+02  0.51100000000E-03 0.  1.
         12    1    3    3    0    0 -0.27425727578E+02 -0.57219805980E+01 -0.34730647493E+01  0.28230723936E+02  0.00000000000E+00 0. -1.
</event>
<event>
 7    1  0.3742599E-009  0.4778728E+02  0.7816164E-02  0.1312668E+00
        -11   -1    0    0    0    0  0.00000000000E+00  0.00000000000E+00  0.45593999997E+02  0.45594000000E+02  0.51100000000E-03 0.  1.
         11   -1    0    0    0    0 -0.00000000000E+00 -0.00000000000E+00 -0.45593999997E+02  0.45594000000E+02  0.51100000000E-03 0. -1.
    9900012    2    1    2    0    0 -0.15489377807E+02  0.96996781538E+01 -0.39365191858E+02  0.47787275223E+02  0.20000019053E+02 0.  0.
        -12    1    1    2    0    0  0.15489377807E+02 -0.96996781538E+01  0.39365191858E+02  0.43400724777E+02  0.00000000000E+00 0.  1.
         11    1    3    3    0    0  0.46087539510E+01  0.32936412943E+01 -0.76096822612E+01  0.94866195419E+01  0.51100000000E-03 0. -1.
        -11    1    3    3    0    0 -0.40652174912E+01 -0.17771763510E+00 -0.55434412012E+01  0.68765774496E+01  0.51100000000E-03 0.  1.
         12    1    3    3    0    0 -0.16032914267E+02  0.65837544946E+01 -0.26212068395E+02  0.31424078232E+02  0.00000000000E+00 0. -1.
</event>
<event>
 7    1  0.3742599E-009  0.4778727E+02  0.7816164E-02  0.1312668E+00
        -11   -1    0    0    0    0  0.00000000000E+00  0.00000000000E+00  0.45593999997E+02  0.45594000000E+02  0.51100000000E-03 0.  1.
         11   -1    0    0    0    0 -0.00000000000E+00 -0.00000000000E+00 -0.45593999997E+02  0.45594000000E+02  0.51100000000E-03 0. -1.
    9900012    2    1    2    0    0 -0.32565091978E+02  0.17403644203E+02 -0.22809022202E+02  0.47787267968E+02  0.19999985975E+02 0.  0.
        -12    1    1    2    0    0  0.32565091978E+02 -0.17403644203E+02  0.22809022202E+02  0.43400732032E+02  0.00000000000E+00 0.  1.
         11    1    3    3    0    0 -0.13305259438E+02  0.63604975917E+01 -0.11837869934E+02  0.18910870502E+02  0.51100000000E-03 0. -1.
        -11    1    3    3    0    0 -0.13261785067E+02  0.25026203534E+01 -0.12418661849E+02  0.18340153057E+02  0.51100000000E-03 0.  1.
        -12    1    3    3    0    0 -0.59980474738E+01  0.85405262576E+01  0.14475095813E+01  0.10536244409E+02  0.00000000000E+00 0.  1.
</event>
<event>
 7    1  0.3742599E-009  0.4778728E+02  0.7816164E-02  0.1312668E+00
        -11   -1    0    0    0    0  0.00000000000E+00  0.00000000000E+00  0.45593999997E+02  0.45594000000E+02  0.51100000000E-03 0. -1.
         11   -1    0    0    0    0 -0.00000000000E+00 -0.00000000000E+00 -0.45593999997E+02  0.45594000000E+02  0.51100000000E-03 0.  1.
    9900012    2    1    2    0    0  0.28701294950E+02  0.11375305957E+02  0.30503456077E+02  0.47787277080E+02  0.20000027517E+02 0.  0.
        -12    1    1    2    0    0 -0.28701294950E+02 -0.11375305957E+02 -0.30503456077E+02  0.43400722920E+02  0.00000000000E+00 0.  1.
         11    1    3    3    0    0  0.16820413635E+02  0.28122773447E+01  0.14425842164E+02  0.22336968037E+02  0.51100000000E-03 0. -1.
        -11    1    3    3    0    0  0.43531629091E+01 -0.30101582718E+01  0.75592745499E+01  0.92278769019E+01  0.51100000000E-03 0.  1.
        -12    1    3    3    0    0  0.75277184059E+01  0.11573186884E+02  0.85183393629E+01  0.16222432140E+02  0.00000000000E+00 0.  1.
</event>
<event>
 7    1  0.3742599E-009  0.4778727E+02  0.7816164E-02  0.1312668E+00
        -11   -1    0    0    0    0  0.00000000000E+00  0.00000000000E+00  0.45593999997E+02  0.45594000000E+02  0.51100000000E-03 0. -1.
         11   -1    0    0    0    0 -0.00000000000E+00 -0.00000000000E+00 -0.45593999997E+02  0.45594000000E+02  0.51100000000E-03 0.  1.
    9900012    2    1    2    0    0  0.34047224212E+02 -0.54837836518E+01  0.26350292285E+02  0.47787271168E+02  0.20000000561E+02 0.  0.
        -12    1    1    2    0    0 -0.34047224212E+02  0.54837836518E+01 -0.26350292285E+02  0.43400728832E+02  0.00000000000E+00 0.  1.
         11    1    3    3    0    0  0.85309343170E+01 -0.38633910486E+00  0.40878075147E+00  0.85494561341E+01  0.51100000000E-03 0. -1.
        -11    1    3    3    0    0  0.18819038727E+02  0.25631393547E+01  0.14287489380E+02  0.23766746833E+02  0.51100000000E-03 0.  1.
         12    1    3    3    0    0  0.66972511680E+01 -0.76605839017E+01  0.11654022153E+02  0.15471068201E+02  0.00000000000E+00 0. -1.
</event>
<event>
 7    1  0.3742599E-009  0.4778727E+02  0.7816164E-02  0.1312668E+00
        -11   -1    0    0    0    0  0.00000000000E+00  0.00000000000E+00  0.45593999997E+02  0.45594000000E+02  0.51100000000E-03 0.  1.
         11   -1    0    0    0    0 -0.00000000000E+00 -0.00000000000E+00 -0.45593999997E+02  0.45594000000E+02  0.51100000000E-03 0. -1.
    9900012    2    1    2    0    0 -0.15311408674E+02 -0.19397295580E+02 -0.35678126590E+02  0.47787273872E+02  0.20000012894E+02 0.  0.
        -12    1    1    2    0    0  0.15311408674E+02  0.19397295580E+02  0.35678126590E+02  0.43400726128E+02  0.00000000000E+00 0.  1.
         11    1    3    3    0    0 -0.78467693702E+01 -0.56830489717E+01 -0.79799610482E+01  0.12551837067E+02  0.51100000000E-03 0. -1.
        -11    1    3    3    0    0 -0.39215067552E+01 -0.49371389345E+01 -0.37155689521E+00  0.63159805951E+01  0.51100000000E-03 0.  1.
        -12    1    3    3    0    0 -0.35431325491E+01 -0.87771076743E+01 -0.27326608647E+02  0.28919456210E+02  0.00000000000E+00 0.  1.
</event>
<event>
 7    1  0.3742599E-009  0.4778728E+02  0.7816164E-02  0.1312668E+00
        -11   -1    0    0    0    0  0.00000000000E+00  0.00000000000E+00  0.45593999997E+02  0.45594000000E+02  0.51100000000E-03 0. -1.
         11   -1    0    0    0    0 -0.00000000000E+00 -0.00000000000E+00 -0.45593999997E+02  0.45594000000E+02  0.51100000000E-03 0.  1.
    9900012    2    1    2    0    0 -0.10458723585E+02  0.41030771868E+02  0.95243784494E+01  0.47787275076E+02  0.20000018381E+02 0.  0.
        -12    1    1    2    0    0  0.10458723585E+02 -0.41030771868E+02 -0.95243784494E+01  0.43400724924E+02  0.00000000000E+00 0.  1.
         11    1    3    3    0    0 -0.42228311324E+01  0.13986141490E+02 -0.10201774488E+01  0.14645313887E+02  0.51100000000E-03 0.  1.
        -11    1    3    3    0    0 -0.63149753448E+01  0.14193652713E+02 -0.13986334548E+01  0.15597912256E+02  0.51100000000E-03 0. -1.
         12    1    3    3    0    0  0.79082892500E-01  0.12850977664E+02  0.11943189353E+02  0.17544048933E+02  0.00000000000E+00 0. -1.
</event>
<event>
 7    1  0.3742599E-009  0.4778727E+02  0.7816164E-02  0.1312668E+00
        -11   -1    0    0    0    0  0.00000000000E+00  0.00000000000E+00  0.45593999997E+02  0.45594000000E+02  0.51100000000E-03 0.  1.
         11   -1    0    0    0    0 -0.00000000000E+00 -0.00000000000E+00 -0.45593999997E+02  0.45594000000E+02  0.51100000000E-03 0. -1.
    9900012    2    1    2    0    0 -0.21731541108E+02 -0.11573301710E+02 -0.35741040181E+02  0.47787272534E+02  0.20000006790E+02 0.  0.
        -12    1    1    2    0    0  0.21731541108E+02  0.11573301710E+02  0.35741040181E+02  0.43400727466E+02  0.00000000000E+00 0.  1.
         11    1    3    3    0    0 -0.65211263849E+01 -0.10347234175E+02 -0.26080253491E+02  0.28805728021E+02  0.51100000000E-03 0. -1.
        -11    1    3    3    0    0 -0.24654179195E+01  0.64386887850E+00  0.47314599626E+00  0.25916635672E+01  0.51100000000E-03 0.  1.
         12    1    3    3    0    0 -0.12744996804E+02 -0.18699364131E+01 -0.10133932686E+02  0.16389880945E+02  0.00000000000E+00 0. -1.
</event>
<event>
 7    1  0.4303035E-009  0.4778727E+02  0.7816164E-02  0.1312668E+00
        -11   -1    0    0    0    0  0.00000000000E+00  0.00000000000E+00  0.45593999997E+02  0.45594000000E+02  0.51100000000E-03 0. -1.
         11   -1    0    0    0    0 -0.00000000000E+00 -0.00000000000E+00 -0.45593999997E+02  0.45594000000E+02  0.51100000000E-03 0.  1.
    9900012    2    1    2    0    0 -0.23428780015E+02 -0.24027270950E+02  0.27521003804E+02  0.47787272671E+02  0.20000007417E+02 0.  0.
        -12    1    1    2    0    0  0.23428780015E+02  0.24027270950E+02 -0.27521003804E+02  0.43400727329E+02  0.00000000000E+00 0.  1.
         11    1    3    3    0    0 -0.15818491176E+02 -0.13127316825E+02  0.20161049764E+02  0.28792690704E+02  0.51100000000E-03 0. -1.
        -11    1    3    3    0    0 -0.47558546665E+01 -0.12810431405E+02  0.74399673479E+01  0.15558869521E+02  0.51100000000E-03 0.  1.
        -12    1    3    3    0    0 -0.28544341725E+01  0.19104772798E+01 -0.80013308274E-01  0.34357124460E+01  0.00000000000E+00 0.  1.
</event>
<event>
 7    1  0.3742599E-009  0.4778728E+02  0.7816164E-02  0.1312668E+00
        -11   -1    0    0    0    0  0.00000000000E+00  0.00000000000E+00  0.45593999997E+02  0.45594000000E+02  0.51100000000E-03 0.  1.
         11   -1    0    0    0    0 -0.00000000000E+00 -0.00000000000E+00 -0.45593999997E+02  0.45594000000E+02  0.51100000000E-03 0. -1.
    9900012    2    1    2    0    0  0.26888360521E+02  0.33047886244E+02 -0.82750348461E+01  0.47787275140E+02  0.20000018673E+02 0.  0.
        -12    1    1    2    0    0 -0.26888360521E+02 -0.33047886244E+02  0.82750348461E+01  0.43400724860E+02  0.00000000000E+00 0.  1.
         11    1    3    3    0    0  0.33087825737E+01  0.11301296776E+02 -0.27420368615E+01  0.12090745111E+02  0.51100000000E-03 0. -1.
        -11    1    3    3    0    0  0.30965924341E+01  0.12279730346E+02 -0.12159243812E+01  0.12722387136E+02  0.51100000000E-03 0.  1.
        -12    1    3    3    0    0  0.20482985513E+02  0.94668591219E+01 -0.43170736034E+01  0.22974142893E+02  0.00000000000E+00 0.  1.
</event>
<event>
 7    1  0.3742599E-009  0.4778727E+02  0.7816164E-02  0.1312668E+00
        -11   -1    0    0    0    0  0.00000000000E+00  0.00000000000E+00  0.45593999997E+02  0.45594000000E+02  0.51100000000E-03 0. -1.
         11   -1    0    0    0    0 -0.00000000000E+00 -0.00000000000E+00 -0.45593999997E+02  0.45594000000E+02  0.51100000000E-03 0.  1.
    9900012    2    1    2    0    0 -0.26985366387E+02 -0.32948752532E+02 -0.83542013191E+01  0.47787274521E+02  0.20000015850E+02 0.  0.
        -12    1    1    2    0    0  0.26985366387E+02  0.32948752532E+02  0.83542013191E+01  0.43400725479E+02  0.00000000000E+00 0.  1.
         11    1    3    3    0    0 -0.23359980589E+02 -0.24511608688E+02 -0.42867218189E+01  0.34130391703E+02  0.51100000000E-03 0. -1.
        -11    1    3    3    0    0 -0.46127184794E+01 -0.95528666458E+01 -0.15350550669E+01  0.10718713880E+02  0.51100000000E-03 0.  1.
        -12    1    3    3    0    0  0.98733268194E+00  0.11157228016E+01 -0.25324244332E+01  0.29381689375E+01  0.00000000000E+00 0.  1.
</event>
<event>
 7    1  0.3742599E-009  0.4778726E+02  0.7816164E-02  0.1312668E+00
        -11   -1    0    0    0    0  0.00000000000E+00  0.00000000000E+00  0.45593999997E+02  0.45594000000E+02  0.51100000000E-03 0. -1.
         11   -1    0    0    0    0 -0.00000000000E+00 -0.00000000000E+00 -0.45593999997E+02  0.45594000000E+02  0.51100000000E-03 0.  1.
    9900012    2    1    2    0    0  0.88853217718E+01  0.36606598774E+02  0.21555323823E+02  0.47787262657E+02  0.19999961759E+02 0.  0.
        -12    1    1    2    0    0 -0.88853217718E+01 -0.36606598774E+02 -0.21555323823E+02  0.43400737343E+02  0.00000000000E+00 0.  1.
         11    1    3    3    0    0  0.52862485428E+01  0.18461778863E+02  0.11330620390E+02  0.22297189535E+02  0.51100000000E-03 0. -1.
        -11    1    3    3    0    0 -0.85572615558E+00  0.17840948965E+02  0.48611286778E+01  0.18511139876E+02  0.51100000000E-03 0.  1.
         12    1    3    3    0    0  0.44547993846E+01  0.30387094572E+00  0.53635747551E+01  0.69789332467E+01  0.00000000000E+00 0. -1.
</event>
<event>
 7    1  0.3742599E-009  0.4778727E+02  0.7816164E-02  0.1312668E+00
        -11   -1    0    0    0    0  0.00000000000E+00  0.00000000000E+00  0.45593999997E+02  0.45594000000E+02  0.51100000000E-03 0. -1.
         11   -1    0    0    0    0 -0.00000000000E+00 -0.00000000000E+00 -0.45593999997E+02  0.45594000000E+02  0.51100000000E-03 0.  1.
    9900012    2    1    2    0    0 -0.25584369487E+02 -0.22661643905E+02  0.26749081039E+02  0.47787269557E+02  0.19999993218E+02 0.  0.
        -12    1    1    2    0    0  0.25584369487E+02  0.22661643905E+02 -0.26749081039E+02  0.43400730443E+02  0.00000000000E+00 0.  1.
         11    1    3    3    0    0 -0.69076215946E+01 -0.38194014305E+01  0.46659566253E+01  0.91691992492E+01  0.51100000000E-03 0. -1.
        -11    1    3    3    0    0 -0.19487673253E+01 -0.13442494638E+02  0.13128923358E+02  0.18890923350E+02  0.51100000000E-03 0.  1.
        -12    1    3    3    0    0 -0.16727980567E+02 -0.53997478361E+01  0.89542010557E+01  0.19727146958E+02  0.00000000000E+00 0.  1.
</event>
<event>
 7    1  0.3742599E-009  0.4778727E+02  0.7816164E-02  0.1312668E+00
        -11   -1    0    0    0    0  0.00000000000E+00  0.00000000000E+00  0.45593999997E+02  0.45594000000E+02  0.51100000000E-03 0. -1.
         11   -1    0    0    0    0 -0.00000000000E+00 -0.00000000000E+00 -0.45593999997E+02  0.45594000000E+02  0.51100000000E-03 0.  1.
    9900012    2    1    2    0    0 -0.30006251859E+02  0.23343060931E+02  0.20936804327E+02  0.47787269365E+02  0.19999992343E+02 0.  0.
        -12    1    1    2    0    0  0.30006251859E+02 -0.23343060931E+02 -0.20936804327E+02  0.43400730635E+02  0.00000000000E+00 0.  1.
         11    1    3    3    0    0  0.60127842885E+00  0.55832824246E+01  0.24625198372E+01  0.61317683087E+01  0.51100000000E-03 0. -1.
        -11    1    3    3    0    0 -0.24816506111E+02  0.16285093623E+02  0.10072237250E+02  0.31345066810E+02  0.51100000000E-03 0.  1.
         12    1    3    3    0    0 -0.57910241768E+01  0.14746848829E+01  0.84020472401E+01  0.10310434246E+02  0.00000000000E+00 0. -1.
</event>
<event>
 7    1  0.3742599E-009  0.4778727E+02  0.7816164E-02  0.1312668E+00
        -11   -1    0    0    0    0  0.00000000000E+00  0.00000000000E+00  0.45593999997E+02  0.45594000000E+02  0.51100000000E-03 0. -1.
         11   -1    0    0    0    0 -0.00000000000E+00 -0.00000000000E+00 -0.45593999997E+02  0.45594000000E+02  0.51100000000E-03 0.  1.
    9900012    2    1    2    0    0 -0.28612438677E+02 -0.23791890520E+02  0.22336012398E+02  0.47787272455E+02  0.20000006431E+02 0.  0.
        -12    1    1    2    0    0  0.28612438677E+02  0.23791890520E+02 -0.22336012398E+02  0.43400727545E+02  0.00000000000E+00 0.  1.
         11    1    3    3    0    0 -0.20452137319E+01 -0.74880345145E+01  0.10462623270E+02  0.13027664643E+02  0.51100000000E-03 0. -1.
        -11    1    3    3    0    0 -0.11007275872E+01  0.12158772238E+01 -0.18242946543E-01  0.16402108739E+01  0.51100000000E-03 0.  1.
        -12    1    3    3    0    0 -0.25466497358E+02 -0.17519733230E+02  0.11891632074E+02  0.33119396938E+02  0.00000000000E+00 0.  1.
</event>
<event>
 7    1  0.3742599E-009  0.4778726E+02  0.7816164E-02  0.1312668E+00
        -11   -1    0    0    0    0  0.00000000000E+00  0.00000000000E+00  0.45593999997E+02  0.45594000000E+02  0.51100000000E-03 0.  1.
         11   -1    0    0    0    0 -0.00000000000E+00 -0.00000000000E+00 -0.45593999997E+02  0.45594000000E+02  0.51100000000E-03 0. -1.
    9900012    2    1    2    0    0  0.36828411942E+02  0.11916045936E+02 -0.19629062910E+02  0.47787260517E+02  0.19999952003E+02 0.  0.
        -12    1    1    2    0    0 -0.36828411942E+02 -0.11916045936E+02  0.19629062910E+02  0.43400739483E+02  0.00000000000E+00 0.  1.
         11    1    3    3    0    0  0.17339460837E+02  0.55661938225E+01 -0.32160882680E+01  0.18492772637E+02  0.51100000000E-03 0. -1.
        -11    1    3    3    0    0  0.21271289703E+01 -0.20749570919E+01  0.11642027536E+01  0.31914719021E+01  0.51100000000E-03 0.  1.
        -12    1    3    3    0    0  0.17361822135E+02  0.84248092057E+01 -0.17577177395E+02  0.26103015978E+02  0.00000000000E+00 0.  1.
</event>
<event>
 7    1  0.3742599E-009  0.4778725E+02  0.7816164E-02  0.1312668E+00
        -11   -1    0    0    0    0  0.00000000000E+00  0.00000000000E+00  0.45593999997E+02  0.45594000000E+02  0.51100000000E-03 0.  1.
         11   -1    0    0    0    0 -0.00000000000E+00 -0.00000000000E+00 -0.45593999997E+02  0.45594000000E+02  0.51100000000E-03 0. -1.
    9900012    2    1    2    0    0  0.34839310197E+02  0.19406711026E+02  0.17123882465E+02  0.47787247489E+02  0.19999892601E+02 0.  0.
        -12    1    1    2    0    0 -0.34839310197E+02 -0.19406711026E+02 -0.17123882465E+02  0.43400752511E+02  0.00000000000E+00 0.  1.
         11    1    3    3    0    0  0.62509138792E+01  0.55476651753E+01  0.53122177482E+01  0.99030384675E+01  0.51100000000E-03 0. -1.
        -11    1    3    3    0    0  0.27417761961E+00 -0.29346400478E+01  0.18911192179E+01  0.35019448503E+01  0.51100000000E-03 0.  1.
        -12    1    3    3    0    0  0.28314218698E+02  0.16793685899E+02  0.99205454984E+01  0.34382264171E+02  0.00000000000E+00 0.  1.
</event>
<event>
 7    1  0.3742599E-009  0.4778727E+02  0.7816164E-02  0.1312668E+00
        -11   -1    0    0    0    0  0.00000000000E+00  0.00000000000E+00  0.45593999997E+02  0.45594000000E+02  0.51100000000E-03 0.  1.
         11   -1    0    0    0    0 -0.00000000000E+00 -0.00000000000E+00 -0.45593999997E+02  0.45594000000E+02  0.51100000000E-03 0. -1.
    9900012    2    1    2    0    0 -0.29320200243E+02 -0.23921904579E+02 -0.21253037352E+02  0.47787271232E+02  0.20000000854E+02 0.  0.
        -12    1    1    2    0    0  0.29320200243E+02  0.23921904579E+02  0.21253037352E+02  0.43400728768E+02  0.00000000000E+00 0.  1.
         11    1    3    3    0    0 -0.47016575667E+01 -0.64361067461E+01 -0.85020294494E+01  0.11653907454E+02  0.51100000000E-03 0. -1.
        -11    1    3    3    0    0 -0.39809827863E+01 -0.10353081747E+02 -0.51669170258E+00  0.11104120685E+02  0.51100000000E-03 0.  1.
        -12    1    3    3    0    0 -0.20637559890E+02 -0.71327160858E+01 -0.12234316200E+02  0.25029243093E+02  0.00000000000E+00 0.  1.
</event>
<event>
 7    1  0.3742599E-009  0.4778727E+02  0.7816164E-02  0.1312668E+00
        -11   -1    0    0    0    0  0.00000000000E+00  0.00000000000E+00  0.45593999997E+02  0.45594000000E+02  0.51100000000E-03 0.  1.
         11   -1    0    0    0    0 -0.00000000000E+00 -0.00000000000E+00 -0.45593999997E+02  0.45594000000E+02  0.51100000000E-03 0. -1.
    9900012    2    1    2    0    0  0.40651652980E+02 -0.10295372399E+02 -0.11183548958E+02  0.47787270165E+02  0.19999995992E+02 0.  0.
        -12    1    1    2    0    0 -0.40651652980E+02  0.10295372399E+02  0.11183548958E+02  0.43400729835E+02  0.00000000000E+00 0.  1.
         11    1    3    3    0    0  0.14889176158E+02 -0.45157843345E+01 -0.10560145039E+02  0.18804162793E+02  0.51100000000E-03 0. -1.
        -11    1    3    3    0    0  0.55731014542E+01  0.20707414754E+01 -0.38487444035E+01  0.70823911091E+01  0.51100000000E-03 0.  1.
         12    1    3    3    0    0  0.20189375368E+02 -0.78503295395E+01  0.32253404841E+01  0.21900716264E+02  0.00000000000E+00 0. -1.
</event>
<event>
 7    1  0.3742599E-009  0.4778727E+02  0.7816164E-02  0.1312668E+00
        -11   -1    0    0    0    0  0.00000000000E+00  0.00000000000E+00  0.45593999997E+02  0.45594000000E+02  0.51100000000E-03 0. -1.
         11   -1    0    0    0    0 -0.00000000000E+00 -0.00000000000E+00 -0.45593999997E+02  0.45594000000E+02  0.51100000000E-03 0.  1.
    9900012    2    1    2    0    0 -0.19413114237E+02 -0.36051239253E+02 -0.14389661689E+02  0.47787271670E+02  0.20000002850E+02 0.  0.
        -12    1    1    2    0    0  0.19413114237E+02  0.36051239253E+02  0.14389661689E+02  0.43400728330E+02  0.00000000000E+00 0.  1.
         11    1    3    3    0    0 -0.37371405685E+01 -0.13795191891E+02 -0.58429032917E+01  0.15440630106E+02  0.51100000000E-03 0. -1.
        -11    1    3    3    0    0  0.18722884290E+01 -0.55513126642E+00 -0.34679862284E+01  0.39800205308E+01  0.51100000000E-03 0.  1.
         12    1    3    3    0    0 -0.17548262098E+02 -0.21700916096E+02 -0.50787721687E+01  0.28366621032E+02  0.00000000000E+00 0. -1.
</event>
<event>
 7    1  0.3742599E-009  0.4778728E+02  0.7816164E-02  0.1312668E+00
        -11   -1    0    0    0    0  0.00000000000E+00  0.00000000000E+00  0.45593999997E+02  0.45594000000E+02  0.51100000000E-03 0. -1.
         11   -1    0    0    0    0 -0.00000000000E+00 -0.00000000000E+00 -0.45593999997E+02  0.45594000000E+02  0.51100000000E-03 0.  1.
    9900012    2    1    2    0    0 -0.41227658376E+02  0.34627966745E+00  0.13556649762E+02  0.47787280218E+02  0.20000041828E+02 0.  0.
        -12    1    1    2    0    0  0.41227658376E+02 -0.34627966745E+00 -0.13556649762E+02  0.43400719782E+02  0.00000000000E+00 0.  1.
         11    1    3    3    0    0 -0.19277659964E+01 -0.42239797388E+00  0.14579436724E+01  0.24536303304E+01  0.51100000000E-03 0. -1.
        -11    1    3    3    0    0 -0.55308254967E+01 -0.31777037193E+00  0.10061372894E+02  0.11485740440E+02  0.51100000000E-03 0.  1.
        -12    1    3    3    0    0 -0.33769066883E+02  0.10864480133E+01  0.20373331954E+01  0.33847909448E+02  0.00000000000E+00 0.  1.
</event>
<event>
 7    1  0.3742599E-009  0.4778727E+02  0.7816164E-02  0.1312668E+00
        -11   -1    0    0    0    0  0.00000000000E+00  0.00000000000E+00  0.45593999997E+02  0.45594000000E+02  0.51100000000E-03 0.  1.
         11   -1    0    0    0    0 -0.00000000000E+00 -0.00000000000E+00 -0.45593999997E+02  0.45594000000E+02  0.51100000000E-03 0. -1.
    9900012    2    1    2    0    0 -0.43325897592E+02 -0.22593441349E+01  0.11768913621E+01  0.47787272917E+02  0.20000008537E+02 0.  0.
        -12    1    1    2    0    0  0.43325897592E+02  0.22593441349E+01 -0.11768913621E+01  0.43400727083E+02  0.00000000000E+00 0.  1.
         11    1    3    3    0    0 -0.49518116200E+01 -0.40941725926E+01 -0.60897307737E+00  0.64539550671E+01  0.51100000000E-03 0. -1.
        -11    1    3    3    0    0 -0.23679368551E+01 -0.21615048137E+01 -0.34727054747E+01  0.47264057787E+01  0.51100000000E-03 0.  1.
        -12    1    3    3    0    0 -0.36006149117E+02  0.39963332714E+01  0.52585699142E+01  0.36606912071E+02  0.00000000000E+00 0.  1.
</event>
<event>
 7    1  0.3742599E-009  0.4778727E+02  0.7816164E-02  0.1312668E+00
        -11   -1    0    0    0    0  0.00000000000E+00  0.00000000000E+00  0.45593999997E+02  0.45594000000E+02  0.51100000000E-03 0.  1.
         11   -1    0    0    0    0 -0.00000000000E+00 -0.00000000000E+00 -0.45593999997E+02  0.45594000000E+02  0.51100000000E-03 0. -1.
    9900012    2    1    2    0    0 -0.22682042627E+02  0.34074787791E+02 -0.14424181997E+02  0.47787271354E+02  0.20000001411E+02 0.  0.
        -12    1    1    2    0    0  0.22682042627E+02 -0.34074787791E+02  0.14424181997E+02  0.43400728646E+02  0.00000000000E+00 0.  1.
         11    1    3    3    0    0 -0.23473698578E+01  0.10128561074E+02  0.12337538237E+01  0.10469959094E+02  0.51100000000E-03 0. -1.
        -11    1    3    3    0    0 -0.82125417024E+01  0.19119481687E+02 -0.90455993683E+01  0.22689717701E+02  0.51100000000E-03 0.  1.
        -12    1    3    3    0    0 -0.12122131067E+02  0.48267450302E+01 -0.66123364521E+01  0.14627594558E+02  0.00000000000E+00 0.  1.
</event>
<event>
 7    1  0.3742599E-009  0.4778727E+02  0.7816164E-02  0.1312668E+00
        -11   -1    0    0    0    0  0.00000000000E+00  0.00000000000E+00  0.45593999997E+02  0.45594000000E+02  0.51100000000E-03 0.  1.
         11   -1    0    0    0    0 -0.00000000000E+00 -0.00000000000E+00 -0.45593999997E+02  0.45594000000E+02  0.51100000000E-03 0. -1.
    9900012    2    1    2    0    0  0.10810397660E+02 -0.16280983819E+02 -0.38751626566E+02  0.47787266213E+02  0.19999977974E+02 0.  0.
        -12    1    1    2    0    0 -0.10810397660E+02  0.16280983819E+02  0.38751626566E+02  0.43400733787E+02  0.00000000000E+00 0.  1.
         11    1    3    3    0    0  0.51459107919E+00 -0.99679387198E+01 -0.20543572297E+02  0.22839942410E+02  0.51100000000E-03 0. -1.
        -11    1    3    3    0    0  0.34458220370E+00 -0.68792325282E+01 -0.56117423648E+01  0.88844937786E+01  0.51100000000E-03 0.  1.
         12    1    3    3    0    0  0.99512243775E+01  0.56618742940E+00 -0.12596311905E+02  0.16062830025E+02  0.00000000000E+00 0. -1.
</event>
<event>
 7    1  0.3742599E-009  0.4778727E+02  0.7816164E-02  0.1312668E+00
        -11   -1    0    0    0    0  0.00000000000E+00  0.00000000000E+00  0.45593999997E+02  0.45594000000E+02  0.51100000000E-03 0. -1.
         11   -1    0    0    0    0 -0.00000000000E+00 -0.00000000000E+00 -0.45593999997E+02  0.45594000000E+02  0.51100000000E-03 0.  1.
    9900012    2    1    2    0    0  0.38194072817E+02 -0.12036070536E+02 -0.16732277420E+02  0.47787270744E+02  0.19999998631E+02 0.  0.
        -12    1    1    2    0    0 -0.38194072817E+02  0.12036070536E+02  0.16732277420E+02  0.43400729256E+02  0.00000000000E+00 0.  1.
         11    1    3    3    0    0  0.87317645624E+00 -0.31362080593E+01 -0.23161283556E+01  0.39953333948E+01  0.51100000000E-03 0. -1.
        -11    1    3    3    0    0  0.21390521105E+02 -0.65909039468E+01 -0.16151385874E+02  0.27601841856E+02  0.51100000000E-03 0.  1.
         12    1    3    3    0    0  0.15930375256E+02 -0.23089585300E+01  0.17352368096E+01  0.16190095493E+02  0.00000000000E+00 0. -1.
</event>
<event>
 7    1  0.3742599E-009  0.4778730E+02  0.7816164E-02  0.1312668E+00
        -11   -1    0    0    0    0  0.00000000000E+00  0.00000000000E+00  0.45593999997E+02  0.45594000000E+02  0.51100000000E-03 0.  1.
         11   -1    0    0    0    0 -0.00000000000E+00 -0.00000000000E+00 -0.45593999997E+02  0.45594000000E+02  0.51100000000E-03 0. -1.
    9900012    2    1    2    0    0 -0.17759035811E+02  0.28927972721E+02 -0.27044587112E+02  0.47787301264E+02  0.20000137784E+02 0.  0.
        -12    1    1    2    0    0  0.17759035811E+02 -0.28927972721E+02  0.27044587112E+02  0.43400698736E+02  0.00000000000E+00 0.  1.
         11    1    3    3    0    0 -0.15505149096E+01  0.92419842141E+01  0.26433802298E+00  0.93748729885E+01  0.51100000000E-03 0. -1.
        -11    1    3    3    0    0 -0.30907257339E+01 -0.25731209536E+00 -0.38529116587E+01  0.49460816398E+01  0.51100000000E-03 0.  1.
        -12    1    3    3    0    0 -0.13117795168E+02  0.19943300602E+02 -0.23456013476E+02  0.33466346636E+02  0.00000000000E+00 0.  1.
</event>
<event>
 7    1  0.3742599E-009  0.4778728E+02  0.7816164E-02  0.1312668E+00
        -11   -1    0    0    0    0  0.00000000000E+00  0.00000000000E+00  0.45593999997E+02  0.45594000000E+02  0.51100000000E-03 0.  1.
         11   -1    0    0    0    0 -0.00000000000E+00 -0.00000000000E+00 -0.45593999997E+02  0.45594000000E+02  0.51100000000E-03 0. -1.
    9900012    2    1    2    0    0  0.34899128514E+02  0.25800653349E+02  0.62084199449E-02  0.47787275089E+02  0.20000018440E+02 0.  0.
        -12    1    1    2    0    0 -0.34899128514E+02 -0.25800653349E+02 -0.62084199449E-02  0.43400724911E+02  0.00000000000E+00 0.  1.
         11    1    3    3    0    0  0.13004948535E+01 -0.19000119793E+00  0.34355337879E+01  0.36783528907E+01  0.51100000000E-03 0. -1.
        -11    1    3    3    0    0  0.12055334483E+02  0.11798245278E+02  0.38535912761E+01  0.17302596543E+02  0.51100000000E-03 0.  1.
         12    1    3    3    0    0  0.21543299177E+02  0.14192409269E+02 -0.72829166441E+01  0.26806325655E+02  0.00000000000E+00 0. -1.
</event>
<event>
 7    1  0.3742599E-009  0.4778727E+02  0.7816164E-02  0.1312668E+00
        -11   -1    0    0    0    0  0.00000000000E+00  0.00000000000E+00  0.45593999997E+02  0.45594000000E+02  0.51100000000E-03 0.  1.
         11   -1    0    0    0    0 -0.00000000000E+00 -0.00000000000E+00 -0.45593999997E+02  0.45594000000E+02  0.51100000000E-03 0. -1.
    9900012    2    1    2    0    0  0.19574107248E+02  0.34105483869E+02 -0.18365547759E+02  0.47787273635E+02  0.20000011812E+02 0.  0.
        -12    1    1    2    0    0 -0.19574107248E+02 -0.34105483869E+02  0.18365547759E+02  0.43400726365E+02  0.00000000000E+00 0.  1.
         11    1    3    3    0    0  0.28408059865E+01  0.74014176229E+01 -0.71635781385E+01  0.10684943308E+02  0.51100000000E-03 0. -1.
        -11    1    3    3    0    0  0.19890275348E+02  0.22379034388E+02 -0.86147281055E+01  0.31155381143E+02  0.51100000000E-03 0.  1.
        -12    1    3    3    0    0 -0.31569740858E+01  0.43250318576E+01 -0.25872415154E+01  0.59469491848E+01  0.00000000000E+00 0.  1.
</event>
<event>
 7    1  0.3742599E-009  0.4778727E+02  0.7816164E-02  0.1312668E+00
        -11   -1    0    0    0    0  0.00000000000E+00  0.00000000000E+00  0.45593999997E+02  0.45594000000E+02  0.51100000000E-03 0. -1.
         11   -1    0    0    0    0 -0.00000000000E+00 -0.00000000000E+00 -0.45593999997E+02  0.45594000000E+02  0.51100000000E-03 0.  1.
    9900012    2    1    2    0    0 -0.26500370621E+02 -0.32863880545E+02 -0.10065733432E+02  0.47787271008E+02  0.19999999834E+02 0.  0.
        -12    1    1    2    0    0  0.26500370621E+02  0.32863880545E+02  0.10065733432E+02  0.43400728992E+02  0.00000000000E+00 0.  1.
         11    1    3    3    0    0 -0.13174478512E+02 -0.19452321220E+02 -0.43269228569E+01  0.23888950303E+02  0.51100000000E-03 0. -1.
        -11    1    3    3    0    0 -0.82775713037E+01 -0.65538656761E+01  0.36984959220E+01  0.11187055660E+02  0.51100000000E-03 0.  1.
        -12    1    3    3    0    0 -0.50483208050E+01 -0.68576936490E+01 -0.94373064967E+01  0.12711265045E+02  0.00000000000E+00 0.  1.
</event>
<event>
 7    1  0.3742599E-009  0.4778727E+02  0.7816164E-02  0.1312668E+00
        -11   -1    0    0    0    0  0.00000000000E+00  0.00000000000E+00  0.45593999997E+02  0.45594000000E+02  0.51100000000E-03 0.  1.
         11   -1    0    0    0    0 -0.00000000000E+00 -0.00000000000E+00 -0.45593999997E+02  0.45594000000E+02  0.51100000000E-03 0. -1.
    9900012    2    1    2    0    0  0.35021375061E+02 -0.22668942915E+02  0.11968518370E+02  0.47787272863E+02  0.20000008292E+02 0.  0.
        -12    1    1    2    0    0 -0.35021375061E+02  0.22668942915E+02 -0.11968518370E+02  0.43400727137E+02  0.00000000000E+00 0.  1.
         11    1    3    3    0    0  0.95125139410E+01 -0.21415406542E+01 -0.36084904126E+01  0.10396889976E+02  0.51100000000E-03 0.  1.
        -11    1    3    3    0    0  0.76497806900E+01 -0.13522399925E+01  0.30407193632E+01  0.83422821883E+01  0.51100000000E-03 0. -1.
        -12    1    3    3    0    0  0.17859080430E+02 -0.19175162268E+02  0.12536289419E+02  0.29048100699E+02  0.00000000000E+00 0.  1.
</event>
<event>
 7    1  0.3742599E-009  0.4778727E+02  0.7816164E-02  0.1312668E+00
        -11   -1    0    0    0    0  0.00000000000E+00  0.00000000000E+00  0.45593999997E+02  0.45594000000E+02  0.51100000000E-03 0.  1.
         11   -1    0    0    0    0 -0.00000000000E+00 -0.00000000000E+00 -0.45593999997E+02  0.45594000000E+02  0.51100000000E-03 0. -1.
    9900012    2    1    2    0    0  0.43135973888E+02  0.35166935875E+01 -0.32471177724E+01  0.47787272461E+02  0.20000006459E+02 0.  0.
        -12    1    1    2    0    0 -0.43135973888E+02 -0.35166935875E+01  0.32471177724E+01  0.43400727539E+02  0.00000000000E+00 0.  1.
         11    1    3    3    0    0 -0.10068379212E+00 -0.76532013922E+00  0.19867243065E+00  0.79707160112E+00  0.51100000000E-03 0. -1.
        -11    1    3    3    0    0  0.44200108872E+02  0.39549616250E+01 -0.10520107173E+01  0.44389166162E+02  0.51100000000E-03 0.  1.
         12    1    3    3    0    0 -0.96345119130E+00  0.32705210170E+00 -0.23937794857E+01  0.26010346983E+01  0.00000000000E+00 0. -1.
</event>
<event>
 7    1  0.3742599E-009  0.4778728E+02  0.7816164E-02  0.1312668E+00
        -11   -1    0    0    0    0  0.00000000000E+00  0.00000000000E+00  0.45593999997E+02  0.45594000000E+02  0.51100000000E-03 0.  1.
         11   -1    0    0    0    0 -0.00000000000E+00 -0.00000000000E+00 -0.45593999997E+02  0.45594000000E+02  0.51100000000E-03 0. -1.
    9900012    2    1    2    0    0 -0.28149888552E+02  0.32809766150E+02  0.38374182949E+01  0.47787276971E+02  0.20000027022E+02 0.  0.
        -12    1    1    2    0    0  0.28149888552E+02 -0.32809766150E+02 -0.38374182949E+01  0.43400723029E+02  0.00000000000E+00 0.  1.
         11    1    3    3    0    0 -0.25864979258E+01  0.11031594335E+02  0.38451323962E+01  0.11965412175E+02  0.51100000000E-03 0. -1.
        -11    1    3    3    0    0 -0.84664436517E+00  0.61070691528E+00 -0.29673248706E+01  0.31455979982E+01  0.51100000000E-03 0.  1.
        -12    1    3    3    0    0 -0.24716746261E+02  0.21167464899E+02  0.29596107693E+01  0.32676266798E+02  0.00000000000E+00 0.  1.
</event>
<event>
 7    1  0.3742599E-009  0.4778726E+02  0.7816164E-02  0.1312668E+00
        -11   -1    0    0    0    0  0.00000000000E+00  0.00000000000E+00  0.45593999997E+02  0.45594000000E+02  0.51100000000E-03 0.  1.
         11   -1    0    0    0    0 -0.00000000000E+00 -0.00000000000E+00 -0.45593999997E+02  0.45594000000E+02  0.51100000000E-03 0. -1.
    9900012    2    1    2    0    0  0.37055835745E+02  0.10511648113E+02 -0.19999858368E+02  0.47787262177E+02  0.19999959572E+02 0.  0.
        -12    1    1    2    0    0 -0.37055835745E+02 -0.10511648113E+02  0.19999858368E+02  0.43400737823E+02  0.00000000000E+00 0.  1.
         11    1    3    3    0    0  0.10146536514E+02  0.90116659205E+01 -0.26581276043E+01  0.13828520113E+02  0.51100000000E-03 0.  1.
        -11    1    3    3    0    0  0.50734889754E+01 -0.20775184660E+01  0.54087376117E+00  0.55089852102E+01  0.51100000000E-03 0. -1.
         12    1    3    3    0    0  0.21835810255E+02  0.35775006590E+01 -0.17882604525E+02  0.28449756854E+02  0.00000000000E+00 0. -1.
</event>
<event>
 7    1  0.3742599E-009  0.4778727E+02  0.7816164E-02  0.1312668E+00
        -11   -1    0    0    0    0  0.00000000000E+00  0.00000000000E+00  0.45593999997E+02  0.45594000000E+02  0.51100000000E-03 0.  1.
         11   -1    0    0    0    0 -0.00000000000E+00 -0.00000000000E+00 -0.45593999997E+02  0.45594000000E+02  0.51100000000E-03 0. -1.
    9900012    2    1    2    0    0  0.37933676602E+02  0.13491908679E+02 -0.16205798842E+02  0.47787270324E+02  0.19999996714E+02 0.  0.
        -12    1    1    2    0    0 -0.37933676602E+02 -0.13491908679E+02  0.16205798842E+02  0.43400729676E+02  0.00000000000E+00 0.  1.
         11    1    3    3    0    0  0.15981928690E+02  0.12461559667E+02 -0.62420450973E+01  0.21205556848E+02  0.51100000000E-03 0.  1.
        -11    1    3    3    0    0  0.59853833509E+01  0.19500155876E+01 -0.84221571448E+01  0.10514756577E+02  0.51100000000E-03 0. -1.
        -12    1    3    3    0    0  0.15966364561E+02 -0.91966657504E+00 -0.15415965997E+01  0.16066956898E+02  0.00000000000E+00 0.  1.
</event>
<event>
 7    1  0.4532261E-009  0.4778726E+02  0.7816164E-02  0.1312668E+00
        -11   -1    0    0    0    0  0.00000000000E+00  0.00000000000E+00  0.45593999997E+02  0.45594000000E+02  0.51100000000E-03 0.  1.
         11   -1    0    0    0    0 -0.00000000000E+00 -0.00000000000E+00 -0.45593999997E+02  0.45594000000E+02  0.51100000000E-03 0. -1.
    9900012    2    1    2    0    0 -0.29167519533E+02  0.21095437758E+02 -0.24245880785E+02  0.47787257783E+02  0.19999939537E+02 0.  0.
        -12    1    1    2    0    0  0.29167519533E+02 -0.21095437758E+02  0.24245880785E+02  0.43400742217E+02  0.00000000000E+00 0.  1.
         11    1    3    3    0    0 -0.18750665081E+02  0.82871819231E+01 -0.96735478856E+01  0.22668091101E+02  0.51100000000E-03 0. -1.
        -11    1    3    3    0    0 -0.10986526125E+02  0.88398029680E+01 -0.15550943256E+02  0.20992325008E+02  0.51100000000E-03 0.  1.
        -12    1    3    3    0    0  0.56967167337E+00  0.39684528673E+01  0.97861035693E+00  0.41268416745E+01  0.00000000000E+00 0.  1.
</event>
<event>
 7    1  0.3742599E-009  0.4778727E+02  0.7816164E-02  0.1312668E+00
        -11   -1    0    0    0    0  0.00000000000E+00  0.00000000000E+00  0.45593999997E+02  0.45594000000E+02  0.51100000000E-03 0. -1.
         11   -1    0    0    0    0 -0.00000000000E+00 -0.00000000000E+00 -0.45593999997E+02  0.45594000000E+02  0.51100000000E-03 0.  1.
    9900012    2    1    2    0    0  0.11054701844E+02 -0.36334607041E+02 -0.21005074313E+02  0.47787271335E+02  0.20000001327E+02 0.  0.
        -12    1    1    2    0    0 -0.11054701844E+02  0.36334607041E+02  0.21005074313E+02  0.43400728665E+02  0.00000000000E+00 0.  1.
         11    1    3    3    0    0  0.11931585292E+01 -0.57028142005E+00 -0.26544172966E+01  0.29655993694E+01  0.51100000000E-03 0. -1.
        -11    1    3    3    0    0  0.10925327841E+02 -0.22344123842E+02 -0.19068039150E+02  0.31340274025E+02  0.51100000000E-03 0.  1.
         12    1    3    3    0    0 -0.10637845255E+01 -0.13420201779E+02  0.71738213369E+00  0.13481397941E+02  0.00000000000E+00 0. -1.
</event>
<event>
 7    1  0.3742599E-009  0.4778727E+02  0.7816164E-02  0.1312668E+00
        -11   -1    0    0    0    0  0.00000000000E+00  0.00000000000E+00  0.45593999997E+02  0.45594000000E+02  0.51100000000E-03 0.  1.
         11   -1    0    0    0    0 -0.00000000000E+00 -0.00000000000E+00 -0.45593999997E+02  0.45594000000E+02  0.51100000000E-03 0. -1.
    9900012    2    1    2    0    0  0.70174670599E+01  0.26375455652E+02 -0.33744834620E+02  0.47787269956E+02  0.19999995038E+02 0.  0.
        -12    1    1    2    0    0 -0.70174670599E+01 -0.26375455652E+02  0.33744834620E+02  0.43400730044E+02  0.00000000000E+00 0.  1.
         11    1    3    3    0    0  0.37108772180E+01  0.99110215319E+01 -0.90346459889E+01  0.13914876426E+02  0.51100000000E-03 0. -1.
        -11    1    3    3    0    0  0.19451175027E+01  0.11021387960E+02 -0.25830565791E+02  0.28150889933E+02  0.51100000000E-03 0.  1.
        -12    1    3    3    0    0  0.13614723391E+01  0.54430461605E+01  0.11203771602E+01  0.57215035976E+01  0.00000000000E+00 0.  1.
</event>
<event>
 7    1  0.3742599E-009  0.4778727E+02  0.7816164E-02  0.1312668E+00
        -11   -1    0    0    0    0  0.00000000000E+00  0.00000000000E+00  0.45593999997E+02  0.45594000000E+02  0.51100000000E-03 0. -1.
         11   -1    0    0    0    0 -0.00000000000E+00 -0.00000000000E+00 -0.45593999997E+02  0.45594000000E+02  0.51100000000E-03 0.  1.
    9900012    2    1    2    0    0  0.30398619862E+02  0.26876353332E+01  0.30859745256E+02  0.47787270162E+02  0.19999995975E+02 0.  0.
        -12    1    1    2    0    0 -0.30398619862E+02 -0.26876353332E+01 -0.30859745256E+02  0.43400729838E+02  0.00000000000E+00 0.  1.
         11    1    3    3    0    0  0.24791958845E+02  0.12826324250E+01  0.27636717589E+02  0.37149354350E+02  0.51100000000E-03 0. -1.
        -11    1    3    3    0    0  0.38691444758E+01 -0.27440386534E+01  0.38330809497E+01  0.60985684332E+01  0.51100000000E-03 0.  1.
        -12    1    3    3    0    0  0.17375165417E+01  0.41490415615E+01 -0.61005328236E+00  0.45393473781E+01  0.00000000000E+00 0.  1.
</event>
<event>
 7    1  0.3742599E-009  0.4778727E+02  0.7816164E-02  0.1312668E+00
        -11   -1    0    0    0    0  0.00000000000E+00  0.00000000000E+00  0.45593999997E+02  0.45594000000E+02  0.51100000000E-03 0.  1.
         11   -1    0    0    0    0 -0.00000000000E+00 -0.00000000000E+00 -0.45593999997E+02  0.45594000000E+02  0.51100000000E-03 0. -1.
    9900012    2    1    2    0    0 -0.19108569982E+02 -0.24153608620E+02 -0.30579227100E+02  0.47787269751E+02  0.19999994101E+02 0.  0.
        -12    1    1    2    0    0  0.19108569982E+02  0.24153608620E+02  0.30579227100E+02  0.43400730249E+02  0.00000000000E+00 0.  1.
         11    1    3    3    0    0 -0.67883179208E+00  0.10063935600E+01  0.25766433902E+00  0.12409801660E+01  0.51100000000E-03 0.  1.
        -11    1    3    3    0    0 -0.16704915714E+02 -0.13611273783E+02 -0.26345730388E+02  0.34035547490E+02  0.51100000000E-03 0. -1.
        -12    1    3    3    0    0 -0.17248224760E+01 -0.11548728397E+02 -0.44911610508E+01  0.12510742094E+02  0.00000000000E+00 0.  1.
</event>
<event>
 7    1  0.3742599E-009  0.4778728E+02  0.7816164E-02  0.1312668E+00
        -11   -1    0    0    0    0  0.00000000000E+00  0.00000000000E+00  0.45593999997E+02  0.45594000000E+02  0.51100000000E-03 0.  1.
         11   -1    0    0    0    0 -0.00000000000E+00 -0.00000000000E+00 -0.45593999997E+02  0.45594000000E+02  0.51100000000E-03 0. -1.
    9900012    2    1    2    0    0  0.36316332904E+02 -0.34496328757E+00 -0.23761898165E+02  0.47787276047E+02  0.20000022807E+02 0.  0.
        -12    1    1    2    0    0 -0.36316332904E+02  0.34496328757E+00  0.23761898165E+02  0.43400723953E+02  0.00000000000E+00 0.  1.
         11    1    3    3    0    0  0.35389416858E+01  0.54257229077E+01 -0.43132404066E+01  0.77824559358E+01  0.51100000000E-03 0.  1.
        -11    1    3    3    0    0  0.24780870224E+01 -0.27917004737E+01  0.25195801705E+00  0.37413887701E+01  0.51100000000E-03 0. -1.
         12    1    3    3    0    0  0.30299304196E+02 -0.29789857216E+01 -0.19700615776E+02  0.36263431341E+02  0.00000000000E+00 0. -1.
</event>
<event>
 7    1  0.3742599E-009  0.4778727E+02  0.7816164E-02  0.1312668E+00
        -11   -1    0    0    0    0  0.00000000000E+00  0.00000000000E+00  0.45593999997E+02  0.45594000000E+02  0.51100000000E-03 0. -1.
         11   -1    0    0    0    0 -0.00000000000E+00 -0.00000000000E+00 -0.45593999997E+02  0.45594000000E+02  0.51100000000E-03 0.  1.
    9900012    2    1    2    0    0  0.35348101259E+02  0.57747441774E+01  0.24510960183E+02  0.47787273024E+02  0.20000009028E+02 0.  0.
        -12    1    1    2    0    0 -0.35348101259E+02 -0.57747441774E+01 -0.24510960183E+02  0.43400726976E+02  0.00000000000E+00 0.  1.
         11    1    3    3    0    0  0.29305004966E+02 -0.23675996148E+01  0.20194193105E+02  0.35667832558E+02  0.51100000000E-03 0. -1.
        -11    1    3    3    0    0 -0.38585146785E+00 -0.35324062917E+00 -0.18301866837E+00  0.55421691731E+00  0.51100000000E-03 0.  1.
        -12    1    3    3    0    0  0.64289477606E+01  0.84955844215E+01  0.44997857465E+01  0.11565223549E+02  0.00000000000E+00 0.  1.
</event>
<event>
 7    1  0.3742599E-009  0.4778727E+02  0.7816164E-02  0.1312668E+00
        -11   -1    0    0    0    0  0.00000000000E+00  0.00000000000E+00  0.45593999997E+02  0.45594000000E+02  0.51100000000E-03 0.  1.
         11   -1    0    0    0    0 -0.00000000000E+00 -0.00000000000E+00 -0.45593999997E+02  0.45594000000E+02  0.51100000000E-03 0. -1.
    9900012    2    1    2    0    0 -0.19061193115E+02 -0.26203841447E+02 -0.28873048725E+02  0.47787270372E+02  0.19999996936E+02 0.  0.
        -12    1    1    2    0    0  0.19061193115E+02  0.26203841447E+02  0.28873048725E+02  0.43400729628E+02  0.00000000000E+00 0.  1.
         11    1    3    3    0    0 -0.21590842094E+01 -0.10808036829E+02 -0.39122690040E+01  0.11695347526E+02  0.51100000000E-03 0. -1.
        -11    1    3    3    0    0  0.89169105062E+00  0.70013789897E+00 -0.42414595314E+01  0.43903627669E+01  0.51100000000E-03 0.  1.
        -12    1    3    3    0    0 -0.17793799956E+02 -0.16095942516E+02 -0.20719320190E+02  0.31701560080E+02  0.00000000000E+00 0.  1.
</event>
<event>
 7    1  0.3742599E-009  0.4778732E+02  0.7816164E-02  0.1312668E+00
        -11   -1    0    0    0    0  0.00000000000E+00  0.00000000000E+00  0.45593999997E+02  0.45594000000E+02  0.51100000000E-03 0.  1.
         11   -1    0    0    0    0 -0.00000000000E+00 -0.00000000000E+00 -0.45593999997E+02  0.45594000000E+02  0.51100000000E-03 0. -1.
    9900012    2    1    2    0    0 -0.33040687179E+02 -0.11538470554E+02 -0.25667012737E+02  0.47787321954E+02  0.20000232115E+02 0.  0.
        -12    1    1    2    0    0  0.33040687179E+02  0.11538470554E+02  0.25667012737E+02  0.43400678046E+02  0.00000000000E+00 0.  1.
         11    1    3    3    0    0 -0.74341724979E+01 -0.70048868061E+01 -0.49056080371E+01  0.11331387840E+02  0.51100000000E-03 0. -1.
        -11    1    3    3    0    0 -0.81571327682E+01 -0.32122753758E+01 -0.16122923068E+02  0.18352279875E+02  0.51100000000E-03 0.  1.
         12    1    3    3    0    0 -0.17449381913E+02 -0.13213083723E+01 -0.46384816319E+01  0.18103654239E+02  0.00000000000E+00 0. -1.
</event>
<event>
 7    1  0.3742599E-009  0.4778727E+02  0.7816164E-02  0.1312668E+00
        -11   -1    0    0    0    0  0.00000000000E+00  0.00000000000E+00  0.45593999997E+02  0.45594000000E+02  0.51100000000E-03 0. -1.
         11   -1    0    0    0    0 -0.00000000000E+00 -0.00000000000E+00 -0.45593999997E+02  0.45594000000E+02  0.51100000000E-03 0.  1.
    9900012    2    1    2    0    0  0.35126310268E+02  0.84084095228E+01  0.24063754251E+02  0.47787270831E+02  0.19999999026E+02 0.  0.
        -12    1    1    2    0    0 -0.35126310268E+02 -0.84084095228E+01 -0.24063754251E+02  0.43400729169E+02  0.00000000000E+00 0.  1.
         11    1    3    3    0    0  0.23393532757E+02  0.38419540191E+01  0.11924900871E+02  0.26537167267E+02  0.51100000000E-03 0. -1.
        -11    1    3    3    0    0  0.82603871266E+01  0.53872520140E+01  0.14331562262E+01  0.99654611922E+01  0.51100000000E-03 0.  1.
         12    1    3    3    0    0  0.34723903847E+01 -0.82079651027E+00  0.10705697154E+02  0.11284642371E+02  0.00000000000E+00 0. -1.
</event>
<event>
 7    1  0.3742599E-009  0.4778727E+02  0.7816164E-02  0.1312668E+00
        -11   -1    0    0    0    0  0.00000000000E+00  0.00000000000E+00  0.45593999997E+02  0.45594000000E+02  0.51100000000E-03 0. -1.
         11   -1    0    0    0    0 -0.00000000000E+00 -0.00000000000E+00 -0.45593999997E+02  0.45594000000E+02  0.51100000000E-03 0.  1.
    9900012    2    1    2    0    0 -0.16901321530E+02 -0.36395387364E+02  0.16533125272E+02  0.47787272793E+02  0.20000007974E+02 0.  0.
        -12    1    1    2    0    0  0.16901321530E+02  0.36395387364E+02 -0.16533125272E+02  0.43400727207E+02  0.00000000000E+00 0.  1.
         11    1    3    3    0    0  0.84751005102E+00 -0.13677699937E+02  0.49159685071E+01  0.14559000497E+02  0.51100000000E-03 0. -1.
        -11    1    3    3    0    0 -0.41448628456E-01 -0.21974978927E+01  0.48011666747E+01  0.52803330081E+01  0.51100000000E-03 0.  1.
        -12    1    3    3    0    0 -0.17707382952E+02 -0.20520189534E+02  0.68159900899E+01  0.27947939288E+02  0.00000000000E+00 0.  1.
</event>
<event>
 7    1  0.3742599E-009  0.4778727E+02  0.7816164E-02  0.1312668E+00
        -11   -1    0    0    0    0  0.00000000000E+00  0.00000000000E+00  0.45593999997E+02  0.45594000000E+02  0.51100000000E-03 0.  1.
         11   -1    0    0    0    0 -0.00000000000E+00 -0.00000000000E+00 -0.45593999997E+02  0.45594000000E+02  0.51100000000E-03 0. -1.
    9900012    2    1    2    0    0 -0.29798524621E+02 -0.89409480153E+01 -0.30261041043E+02  0.47787271596E+02  0.20000002513E+02 0.  0.
        -12    1    1    2    0    0  0.29798524621E+02  0.89409480153E+01  0.30261041043E+02  0.43400728404E+02  0.00000000000E+00 0.  1.
         11    1    3    3    0    0 -0.39574593034E+01 -0.35107237611E+01 -0.13191340057E+02  0.14212604203E+02  0.51100000000E-03 0. -1.
        -11    1    3    3    0    0 -0.10466129792E+01  0.20305890509E+01 -0.39132229238E+01  0.45312255003E+01  0.51100000000E-03 0.  1.
         12    1    3    3    0    0 -0.24794452339E+02 -0.74608133051E+01 -0.13156478062E+02  0.29043441892E+02  0.00000000000E+00 0. -1.
</event>
<event>
 7    1  0.3742599E-009  0.4778727E+02  0.7816164E-02  0.1312668E+00
        -11   -1    0    0    0    0  0.00000000000E+00  0.00000000000E+00  0.45593999997E+02  0.45594000000E+02  0.51100000000E-03 0.  1.
         11   -1    0    0    0    0 -0.00000000000E+00 -0.00000000000E+00 -0.45593999997E+02  0.45594000000E+02  0.51100000000E-03 0. -1.
    9900012    2    1    2    0    0  0.18555784750E+02  0.31896516944E+02 -0.22845530748E+02  0.47787271711E+02  0.20000003038E+02 0.  0.
        -12    1    1    2    0    0 -0.18555784750E+02 -0.31896516944E+02  0.22845530748E+02  0.43400728289E+02  0.00000000000E+00 0.  1.
         11    1    3    3    0    0  0.17723172626E+02  0.31037396142E+02 -0.17474983576E+02  0.39784492688E+02  0.51100000000E-03 0. -1.
        -11    1    3    3    0    0  0.23662427407E+01  0.25730553288E+01 -0.40528586415E+01  0.53521380646E+01  0.51100000000E-03 0.  1.
         12    1    3    3    0    0 -0.15336306160E+01 -0.17139345263E+01 -0.13176885307E+01  0.26506409585E+01  0.00000000000E+00 0. -1.
</event>
<event>
 7    1  0.3742599E-009  0.4778726E+02  0.7816164E-02  0.1312668E+00
        -11   -1    0    0    0    0  0.00000000000E+00  0.00000000000E+00  0.45593999997E+02  0.45594000000E+02  0.51100000000E-03 0. -1.
         11   -1    0    0    0    0 -0.00000000000E+00 -0.00000000000E+00 -0.45593999997E+02  0.45594000000E+02  0.51100000000E-03 0.  1.
    9900012    2    1    2    0    0 -0.40041014992E+02  0.12401859837E+02  0.11248773270E+02  0.47787263727E+02  0.19999966636E+02 0.  0.
        -12    1    1    2    0    0  0.40041014992E+02 -0.12401859837E+02 -0.11248773270E+02  0.43400736273E+02  0.00000000000E+00 0.  1.
         11    1    3    3    0    0 -0.15648648368E+02 -0.22616414825E+01  0.54295183176E+01  0.16717502426E+02  0.51100000000E-03 0. -1.
        -11    1    3    3    0    0 -0.14974436556E+02  0.41362356434E+01  0.66972726448E+01  0.16917318245E+02  0.51100000000E-03 0.  1.
        -12    1    3    3    0    0 -0.94179300677E+01  0.10527265676E+02 -0.87801769281E+00  0.14152443056E+02  0.00000000000E+00 0.  1.
</event>
<event>
 7    1  0.3742599E-009  0.4778733E+02  0.7816164E-02  0.1312668E+00
        -11   -1    0    0    0    0  0.00000000000E+00  0.00000000000E+00  0.45593999997E+02  0.45594000000E+02  0.51100000000E-03 0. -1.
         11   -1    0    0    0    0 -0.00000000000E+00 -0.00000000000E+00 -0.45593999997E+02  0.45594000000E+02  0.51100000000E-03 0.  1.
    9900012    2    1    2    0    0  0.33839576435E+02 -0.11475830353E+02  0.24633450073E+02  0.47787326294E+02  0.20000251904E+02 0.  0.
        -12    1    1    2    0    0 -0.33839576435E+02  0.11475830353E+02 -0.24633450073E+02  0.43400673706E+02  0.00000000000E+00 0.  1.
         11    1    3    3    0    0  0.13408743149E+02 -0.71995413532E+01  0.12241530571E+02  0.19531586200E+02  0.51100000000E-03 0. -1.
        -11    1    3    3    0    0  0.12466765100E+02 -0.96653705082E+01  0.78997465864E+01  0.17642154503E+02  0.51100000000E-03 0.  1.
        -12    1    3    3    0    0  0.79640681872E+01  0.53890815083E+01  0.44921729162E+01  0.10613585591E+02  0.00000000000E+00 0.  1.
</event>
<event>
 7    1  0.3742599E-009  0.4778727E+02  0.7816164E-02  0.1312668E+00
        -11   -1    0    0    0    0  0.00000000000E+00  0.00000000000E+00  0.45593999997E+02  0.45594000000E+02  0.51100000000E-03 0.  1.
         11   -1    0    0    0    0 -0.00000000000E+00 -0.00000000000E+00 -0.45593999997E+02  0.45594000000E+02  0.51100000000E-03 0. -1.
    9900012    2    1    2    0    0  0.48887275563E+01  0.33671007105E+02 -0.26944142441E+02  0.47787272029E+02  0.20000004488E+02 0.  0.
        -12    1    1    2    0    0 -0.48887275563E+01 -0.33671007105E+02  0.26944142441E+02  0.43400727971E+02  0.00000000000E+00 0.  1.
         11    1    3    3    0    0  0.33793703698E+01  0.12866118571E+02 -0.12659393379E+02  0.18363479849E+02  0.51100000000E-03 0. -1.
        -11    1    3    3    0    0 -0.19070469339E+01  0.15268589907E+02 -0.16490506402E+02  0.22554455600E+02  0.51100000000E-03 0.  1.
         12    1    3    3    0    0  0.34164041204E+01  0.55362986267E+01  0.22057573405E+01  0.68693365796E+01  0.00000000000E+00 0. -1.
</event>
<event>
 7    1  0.3742599E-009  0.4778727E+02  0.7816164E-02  0.1312668E+00
        -11   -1    0    0    0    0  0.00000000000E+00  0.00000000000E+00  0.45593999997E+02  0.45594000000E+02  0.51100000000E-03 0. -1.
         11   -1    0    0    0    0 -0.00000000000E+00 -0.00000000000E+00 -0.45593999997E+02  0.45594000000E+02  0.51100000000E-03 0.  1.
    9900012    2    1    2    0    0 -0.17602245133E+02 -0.39425107821E+02  0.44096547373E+01  0.47787271719E+02  0.20000003075E+02 0.  0.
        -12    1    1    2    0    0  0.17602245133E+02  0.39425107821E+02 -0.44096547373E+01  0.43400728281E+02  0.00000000000E+00 0.  1.
         11    1    3    3    0    0  0.14246011581E+01 -0.10508353817E+01  0.21209418807E+01  0.27626324731E+01  0.51100000000E-03 0. -1.
        -11    1    3    3    0    0 -0.10556523990E+02 -0.78039853722E+01 -0.80184130609E+00  0.13152388992E+02  0.51100000000E-03 0.  1.
         12    1    3    3    0    0 -0.84703223013E+01 -0.30570287067E+02  0.30905541627E+01  0.31872250254E+02  0.00000000000E+00 0. -1.
</event>
<event>
 7    1  0.3742599E-009  0.4778728E+02  0.7816164E-02  0.1312668E+00
        -11   -1    0    0    0    0  0.00000000000E+00  0.00000000000E+00  0.45593999997E+02  0.45594000000E+02  0.51100000000E-03 0. -1.
         11   -1    0    0    0    0 -0.00000000000E+00 -0.00000000000E+00 -0.45593999997E+02  0.45594000000E+02  0.51100000000E-03 0.  1.
    9900012    2    1    2    0    0  0.26164982906E+02  0.33814486481E+02  0.74563421574E+01  0.47787275757E+02  0.20000021488E+02 0.  0.
        -12    1    1    2    0    0 -0.26164982906E+02 -0.33814486481E+02 -0.74563421574E+01  0.43400724243E+02  0.00000000000E+00 0.  1.
         11    1    3    3    0    0  0.15421293102E+01  0.39487340034E+01 -0.13367409215E+01  0.44449453980E+01  0.51100000000E-03 0. -1.
        -11    1    3    3    0    0  0.11156232579E+02  0.26115003903E+02  0.70039330619E+01  0.29249103111E+02  0.51100000000E-03 0.  1.
         12    1    3    3    0    0  0.13466621017E+02  0.37507485743E+01  0.17891500170E+01  0.14093227248E+02  0.00000000000E+00 0. -1.
</event>
<event>
 7    1  0.3742599E-009  0.4778727E+02  0.7816164E-02  0.1312668E+00
        -11   -1    0    0    0    0  0.00000000000E+00  0.00000000000E+00  0.45593999997E+02  0.45594000000E+02  0.51100000000E-03 0.  1.
         11   -1    0    0    0    0 -0.00000000000E+00 -0.00000000000E+00 -0.45593999997E+02  0.45594000000E+02  0.51100000000E-03 0. -1.
    9900012    2    1    2    0    0  0.29484042406E+02 -0.30895834449E+02  0.77305733992E+01  0.47787272956E+02  0.20000008715E+02 0.  0.
        -12    1    1    2    0    0 -0.29484042406E+02  0.30895834449E+02 -0.77305733992E+01  0.43400727044E+02  0.00000000000E+00 0.  1.
         11    1    3    3    0    0  0.12977998764E+02 -0.73936401711E+01 -0.30550451904E+01  0.15245578647E+02  0.51100000000E-03 0. -1.
        -11    1    3    3    0    0  0.13256902338E+02 -0.11309202161E+02  0.29086473910E+01  0.17666458135E+02  0.51100000000E-03 0.  1.
        -12    1    3    3    0    0  0.32491413035E+01 -0.12192992117E+02  0.78769711985E+01  0.14875236174E+02  0.00000000000E+00 0.  1.
</event>
<event>
 7    1  0.3742599E-009  0.4778727E+02  0.7816164E-02  0.1312668E+00
        -11   -1    0    0    0    0  0.00000000000E+00  0.00000000000E+00  0.45593999997E+02  0.45594000000E+02  0.51100000000E-03 0. -1.
         11   -1    0    0    0    0 -0.00000000000E+00 -0.00000000000E+00 -0.45593999997E+02  0.45594000000E+02  0.51100000000E-03 0.  1.
    9900012    2    1    2    0    0  0.12630701046E+02  0.41219440584E+02 -0.50046549378E+01  0.47787268877E+02  0.19999990116E+02 0.  0.
        -12    1    1    2    0    0 -0.12630701046E+02 -0.41219440584E+02  0.50046549378E+01  0.43400731123E+02  0.00000000000E+00 0.  1.
         11    1    3    3    0    0  0.44452450288E+01  0.19919944080E+02 -0.68344754262E+01  0.21523810772E+02  0.51100000000E-03 0. -1.
        -11    1    3    3    0    0  0.40727003029E+01  0.94451677648E+01 -0.55693211794E+01  0.11696812409E+02  0.51100000000E-03 0.  1.
         12    1    3    3    0    0  0.41127557138E+01  0.11854328739E+02  0.73991416678E+01  0.14566645696E+02  0.00000000000E+00 0. -1.
</event>
<event>
 7    1  0.3742599E-009  0.4778728E+02  0.7816164E-02  0.1312668E+00
        -11   -1    0    0    0    0  0.00000000000E+00  0.00000000000E+00  0.45593999997E+02  0.45594000000E+02  0.51100000000E-03 0.  1.
         11   -1    0    0    0    0 -0.00000000000E+00 -0.00000000000E+00 -0.45593999997E+02  0.45594000000E+02  0.51100000000E-03 0. -1.
    9900012    2    1    2    0    0  0.23306287653E+02  0.28899485922E+02 -0.22477979712E+02  0.47787275321E+02  0.20000019499E+02 0.  0.
        -12    1    1    2    0    0 -0.23306287653E+02 -0.28899485922E+02  0.22477979712E+02  0.43400724679E+02  0.00000000000E+00 0.  1.
         11    1    3    3    0    0  0.14825679828E+02  0.18272154442E+02 -0.75352287659E+01  0.24707328531E+02  0.51100000000E-03 0. -1.
        -11    1    3    3    0    0  0.63210470284E+01  0.19045315098E+00 -0.27793294162E+01  0.69077188856E+01  0.51100000000E-03 0.  1.
         12    1    3    3    0    0  0.21595607971E+01  0.10436878329E+02 -0.12163421530E+02  0.16172227905E+02  0.00000000000E+00 0. -1.
</event>
<event>
 7    1  0.3742599E-009  0.4778723E+02  0.7816164E-02  0.1312668E+00
        -11   -1    0    0    0    0  0.00000000000E+00  0.00000000000E+00  0.45593999997E+02  0.45594000000E+02  0.51100000000E-03 0.  1.
         11   -1    0    0    0    0 -0.00000000000E+00 -0.00000000000E+00 -0.45593999997E+02  0.45594000000E+02  0.51100000000E-03 0. -1.
    9900012    2    1    2    0    0 -0.37970111435E+01  0.11608289573E+02 -0.41646812637E+02  0.47787231767E+02  0.19999820915E+02 0.  0.
        -12    1    1    2    0    0  0.37970111435E+01 -0.11608289573E+02  0.41646812637E+02  0.43400768233E+02  0.00000000000E+00 0.  1.
         11    1    3    3    0    0 -0.12182943274E+01  0.80087684655E+01 -0.29085092794E+02  0.30192171775E+02  0.51100000000E-03 0. -1.
        -11    1    3    3    0    0  0.35735555951E+01 -0.23661681796E+00 -0.86383281337E+01  0.93513100855E+01  0.51100000000E-03 0.  1.
         12    1    3    3    0    0 -0.61522724113E+01  0.38361379253E+01 -0.39233917094E+01  0.82437499058E+01  0.00000000000E+00 0. -1.
</event>
<event>
 7    1  0.3742599E-009  0.4778728E+02  0.7816164E-02  0.1312668E+00
        -11   -1    0    0    0    0  0.00000000000E+00  0.00000000000E+00  0.45593999997E+02  0.45594000000E+02  0.51100000000E-03 0. -1.
         11   -1    0    0    0    0 -0.00000000000E+00 -0.00000000000E+00 -0.45593999997E+02  0.45594000000E+02  0.51100000000E-03 0.  1.
    9900012    2    1    2    0    0  0.37931191535E+02 -0.80002224876E+01  0.19515215948E+02  0.47787279907E+02  0.20000040407E+02 0.  0.
        -12    1    1    2    0    0 -0.37931191535E+02  0.80002224876E+01 -0.19515215948E+02  0.43400720093E+02  0.00000000000E+00 0.  1.
         11    1    3    3    0    0  0.10308083454E+02 -0.51547033598E+01  0.13672069365E+02  0.17881639528E+02  0.51100000000E-03 0.  1.
        -11    1    3    3    0    0  0.73505629667E+01  0.32441956157E+01  0.28626951433E+01  0.85293965124E+01  0.51100000000E-03 0. -1.
        -12    1    3    3    0    0  0.20272545114E+02 -0.60897147435E+01  0.29804514396E+01  0.21376243867E+02  0.00000000000E+00 0.  1.
</event>
<event>
 7    1  0.3742599E-009  0.4778722E+02  0.7816164E-02  0.1312668E+00
        -11   -1    0    0    0    0  0.00000000000E+00  0.00000000000E+00  0.45593999997E+02  0.45594000000E+02  0.51100000000E-03 0.  1.
         11   -1    0    0    0    0 -0.00000000000E+00 -0.00000000000E+00 -0.45593999997E+02  0.45594000000E+02  0.51100000000E-03 0. -1.
    9900012    2    1    2    0    0  0.16687848413E+02  0.30001457770E+02 -0.26552884496E+02  0.47787223186E+02  0.19999781793E+02 0.  0.
        -12    1    1    2    0    0 -0.16687848413E+02 -0.30001457770E+02  0.26552884496E+02  0.43400776814E+02  0.00000000000E+00 0.  1.
         11    1    3    3    0    0  0.52500559323E+01  0.12630220184E+02 -0.36342309464E+01  0.14152497448E+02  0.51100000000E-03 0. -1.
        -11    1    3    3    0    0  0.75869705968E+01  0.14173246062E+02 -0.81160749282E+01  0.18008711760E+02  0.51100000000E-03 0.  1.
         12    1    3    3    0    0  0.38508218837E+01  0.31979915243E+01 -0.14802578622E+02  0.15626013977E+02  0.00000000000E+00 0. -1.
</event>
<event>
 7    1  0.3742599E-009  0.4778728E+02  0.7816164E-02  0.1312668E+00
        -11   -1    0    0    0    0  0.00000000000E+00  0.00000000000E+00  0.45593999997E+02  0.45594000000E+02  0.51100000000E-03 0. -1.
         11   -1    0    0    0    0 -0.00000000000E+00 -0.00000000000E+00 -0.45593999997E+02  0.45594000000E+02  0.51100000000E-03 0.  1.
    9900012    2    1    2    0    0 -0.24759085693E+02  0.34877724343E+02 -0.73589844810E+01  0.47787278436E+02  0.20000033701E+02 0.  0.
        -12    1    1    2    0    0  0.24759085693E+02 -0.34877724343E+02  0.73589844810E+01  0.43400721564E+02  0.00000000000E+00 0.  1.
         11    1    3    3    0    0 -0.81304657155E+01  0.19079389223E+02 -0.27720052431E+01  0.20923947505E+02  0.51100000000E-03 0. -1.
        -11    1    3    3    0    0 -0.38588426819E+01  0.89824006324E+01 -0.72168412825E+01  0.12151419107E+02  0.51100000000E-03 0.  1.
         12    1    3    3    0    0 -0.12769777296E+02  0.68159344870E+01  0.26298620446E+01  0.14711911823E+02  0.00000000000E+00 0. -1.
</event>
<event>
 7    1  0.3742599E-009  0.4778726E+02  0.7816164E-02  0.1312668E+00
        -11   -1    0    0    0    0  0.00000000000E+00  0.00000000000E+00  0.45593999997E+02  0.45594000000E+02  0.51100000000E-03 0.  1.
         11   -1    0    0    0    0 -0.00000000000E+00 -0.00000000000E+00 -0.45593999997E+02  0.45594000000E+02  0.51100000000E-03 0. -1.
    9900012    2    1    2    0    0 -0.19254782199E+02  0.26880255962E+02 -0.28112804820E+02  0.47787255848E+02  0.19999930713E+02 0.  0.
        -12    1    1    2    0    0  0.19254782199E+02 -0.26880255962E+02  0.28112804820E+02  0.43400744152E+02  0.00000000000E+00 0.  1.
         11    1    3    3    0    0  0.15845824993E-01  0.48946872696E+01 -0.22936198323E+01  0.54054515772E+01  0.51100000000E-03 0.  1.
        -11    1    3    3    0    0 -0.17213153858E+02  0.13804194851E+02 -0.25796494326E+02  0.33945656290E+02  0.51100000000E-03 0. -1.
         12    1    3    3    0    0 -0.20574741652E+01  0.81813738419E+01 -0.22690662023E-01  0.84361479804E+01  0.00000000000E+00 0. -1.
</event>
<event>
 7    1  0.3742599E-009  0.4778728E+02  0.7816164E-02  0.1312668E+00
        -11   -1    0    0    0    0  0.00000000000E+00  0.00000000000E+00  0.45593999997E+02  0.45594000000E+02  0.51100000000E-03 0. -1.
         11   -1    0    0    0    0 -0.00000000000E+00 -0.00000000000E+00 -0.45593999997E+02  0.45594000000E+02  0.51100000000E-03 0.  1.
    9900012    2    1    2    0    0  0.25692312335E+02 -0.17902549108E+02  0.30050396607E+02  0.47787279799E+02  0.20000039917E+02 0.  0.
        -12    1    1    2    0    0 -0.25692312335E+02  0.17902549108E+02 -0.30050396607E+02  0.43400720201E+02  0.00000000000E+00 0.  1.
         11    1    3    3    0    0  0.18451171183E+02 -0.10777842489E+02  0.22494506364E+02  0.31025963701E+02  0.51100000000E-03 0. -1.
        -11    1    3    3    0    0  0.20208514465E+01 -0.11300297197E+01  0.84506140783E+01  0.87620594780E+01  0.51100000000E-03 0.  1.
         12    1    3    3    0    0  0.52202897050E+01 -0.59946768997E+01 -0.89472383480E+00  0.79992566203E+01  0.00000000000E+00 0. -1.
</event>
<event>
 7    1  0.3742599E-009  0.4778727E+02  0.7816164E-02  0.1312668E+00
        -11   -1    0    0    0    0  0.00000000000E+00  0.00000000000E+00  0.45593999997E+02  0.45594000000E+02  0.51100000000E-03 0.  1.
         11   -1    0    0    0    0 -0.00000000000E+00 -0.00000000000E+00 -0.45593999997E+02  0.45594000000E+02  0.51100000000E-03 0. -1.
    9900012    2    1    2    0    0 -0.20655483296E+02  0.25783562045E+02 -0.28145735404E+02  0.47787268631E+02  0.19999988995E+02 0.  0.
        -12    1    1    2    0    0  0.20655483296E+02 -0.25783562045E+02  0.28145735404E+02  0.43400731369E+02  0.00000000000E+00 0.  1.
         11    1    3    3    0    0 -0.10090409389E+02  0.71277249239E+01 -0.81917681122E+01  0.14823153824E+02  0.51100000000E-03 0. -1.
        -11    1    3    3    0    0 -0.11414756428E+02  0.48708289354E+01 -0.88517712134E+01  0.15243867380E+02  0.51100000000E-03 0.  1.
        -12    1    3    3    0    0  0.84968252151E+00  0.13785008186E+02 -0.11102196079E+02  0.17720247426E+02  0.00000000000E+00 0.  1.
</event>
<event>
 7    1  0.3742599E-009  0.4778727E+02  0.7816164E-02  0.1312668E+00
        -11   -1    0    0    0    0  0.00000000000E+00  0.00000000000E+00  0.45593999997E+02  0.45594000000E+02  0.51100000000E-03 0.  1.
         11   -1    0    0    0    0 -0.00000000000E+00 -0.00000000000E+00 -0.45593999997E+02  0.45594000000E+02  0.51100000000E-03 0. -1.
    9900012    2    1    2    0    0  0.13888302265E+02 -0.34614790070E+02 -0.22193577375E+02  0.47787268346E+02  0.19999987699E+02 0.  0.
        -12    1    1    2    0    0 -0.13888302265E+02  0.34614790070E+02  0.22193577375E+02  0.43400731654E+02  0.00000000000E+00 0.  1.
         11    1    3    3    0    0  0.27136652478E+01 -0.35683759159E+00  0.13043482005E+01  0.30319361196E+01  0.51100000000E-03 0. -1.
        -11    1    3    3    0    0 -0.11635857960E+01 -0.35311454916E-01  0.39792386010E+00  0.12302530077E+01  0.51100000000E-03 0.  1.
         12    1    3    3    0    0  0.12338222813E+02 -0.34222641023E+02 -0.23895849435E+02  0.43525079219E+02  0.00000000000E+00 0. -1.
</event>
<event>
 7    1  0.3742599E-009  0.4778727E+02  0.7816164E-02  0.1312668E+00
        -11   -1    0    0    0    0  0.00000000000E+00  0.00000000000E+00  0.45593999997E+02  0.45594000000E+02  0.51100000000E-03 0. -1.
         11   -1    0    0    0    0 -0.00000000000E+00 -0.00000000000E+00 -0.45593999997E+02  0.45594000000E+02  0.51100000000E-03 0.  1.
    9900012    2    1    2    0    0  0.30237088211E+02 -0.30922715810E+02  0.36231853201E+01  0.47787270416E+02  0.19999997134E+02 0.  0.
        -12    1    1    2    0    0 -0.30237088211E+02  0.30922715810E+02 -0.36231853201E+01  0.43400729584E+02  0.00000000000E+00 0.  1.
         11    1    3    3    0    0  0.20200679295E+02 -0.82662806183E+01 -0.29500261004E+01  0.22025019717E+02  0.51100000000E-03 0. -1.
        -11    1    3    3    0    0  0.10916510363E+01 -0.31396252895E+01  0.17568128733E+01  0.37596995460E+01  0.51100000000E-03 0.  1.
         12    1    3    3    0    0  0.89447578796E+01 -0.19516809902E+02  0.48163985472E+01  0.22002551153E+02  0.00000000000E+00 0. -1.
</event>
<event>
 7    1  0.3742599E-009  0.4778727E+02  0.7816164E-02  0.1312668E+00
        -11   -1    0    0    0    0  0.00000000000E+00  0.00000000000E+00  0.45593999997E+02  0.45594000000E+02  0.51100000000E-03 0.  1.
         11   -1    0    0    0    0 -0.00000000000E+00 -0.00000000000E+00 -0.45593999997E+02  0.45594000000E+02  0.51100000000E-03 0. -1.
    9900012    2    1    2    0    0  0.37240197546E+02 -0.21073490253E+02  0.72594032186E+01  0.47787271437E+02  0.20000001788E+02 0.  0.
        -12    1    1    2    0    0 -0.37240197546E+02  0.21073490253E+02 -0.72594032186E+01  0.43400728563E+02  0.00000000000E+00 0.  1.
         11    1    3    3    0    0  0.22702479842E+02 -0.11513116190E+02  0.19267416676E+01  0.25527764671E+02  0.51100000000E-03 0. -1.
        -11    1    3    3    0    0  0.14645700498E+02 -0.12142640990E+02  0.45949745083E+01  0.19571767020E+02  0.51100000000E-03 0.  1.
        -12    1    3    3    0    0 -0.10798279357E+00  0.25822669273E+01  0.73768704274E+00  0.26877397457E+01  0.00000000000E+00 0.  1.
</event>
<event>
 7    1  0.3742599E-009  0.4778727E+02  0.7816164E-02  0.1312668E+00
        -11   -1    0    0    0    0  0.00000000000E+00  0.00000000000E+00  0.45593999997E+02  0.45594000000E+02  0.51100000000E-03 0.  1.
         11   -1    0    0    0    0 -0.00000000000E+00 -0.00000000000E+00 -0.45593999997E+02  0.45594000000E+02  0.51100000000E-03 0. -1.
    9900012    2    1    2    0    0 -0.33464968282E+01 -0.33837739917E+02 -0.26970943248E+02  0.47787268861E+02  0.19999990046E+02 0.  0.
        -12    1    1    2    0    0  0.33464968282E+01  0.33837739917E+02  0.26970943248E+02  0.43400731139E+02  0.00000000000E+00 0.  1.
         11    1    3    3    0    0 -0.18852903215E+00 -0.79920152530E+00 -0.78983568138E+01  0.79409260727E+01  0.51100000000E-03 0. -1.
        -11    1    3    3    0    0 -0.17636973837E+01 -0.14927455432E+01  0.90418097624E+00  0.24812217186E+01  0.51100000000E-03 0.  1.
         12    1    3    3    0    0 -0.13942704124E+01 -0.31545792849E+02 -0.19976767410E+02  0.37365121070E+02  0.00000000000E+00 0. -1.
</event>
<event>
 7    1  0.3742599E-009  0.4778728E+02  0.7816164E-02  0.1312668E+00
        -11   -1    0    0    0    0  0.00000000000E+00  0.00000000000E+00  0.45593999997E+02  0.45594000000E+02  0.51100000000E-03 0.  1.
         11   -1    0    0    0    0 -0.00000000000E+00 -0.00000000000E+00 -0.45593999997E+02  0.45594000000E+02  0.51100000000E-03 0. -1.
    9900012    2    1    2    0    0  0.17574094448E+02  0.39620912928E+02 -0.22264072167E+01  0.47787280812E+02  0.20000044536E+02 0.  0.
        -12    1    1    2    0    0 -0.17574094448E+02 -0.39620912928E+02  0.22264072167E+01  0.43400719188E+02  0.00000000000E+00 0.  1.
         11    1    3    3    0    0  0.16841224429E+01  0.27974447689E+01 -0.14872536240E+01  0.35880202398E+01  0.51100000000E-03 0. -1.
        -11    1    3    3    0    0 -0.26799631700E+01  0.13573366401E+02 -0.36289870757E+01  0.14303427054E+02  0.51100000000E-03 0.  1.
        -12    1    3    3    0    0  0.18569935176E+02  0.23250101758E+02  0.28898334830E+01  0.29895833518E+02  0.00000000000E+00 0.  1.
</event>
<event>
 7    1  0.3742599E-009  0.4778727E+02  0.7816164E-02  0.1312668E+00
        -11   -1    0    0    0    0  0.00000000000E+00  0.00000000000E+00  0.45593999997E+02  0.45594000000E+02  0.51100000000E-03 0.  1.
         11   -1    0    0    0    0 -0.00000000000E+00 -0.00000000000E+00 -0.45593999997E+02  0.45594000000E+02  0.51100000000E-03 0. -1.
    9900012    2    1    2    0    0  0.22609346068E+02  0.27527443440E+02 -0.24792750889E+02  0.47787272257E+02  0.20000005527E+02 0.  0.
        -12    1    1    2    0    0 -0.22609346068E+02 -0.27527443440E+02  0.24792750889E+02  0.43400727743E+02  0.00000000000E+00 0.  1.
         11    1    3    3    0    0  0.13211384534E+02  0.44615051598E+01 -0.12721143577E+02  0.18875200761E+02  0.51100000000E-03 0. -1.
        -11    1    3    3    0    0  0.92936354524E+01  0.11981434679E+02 -0.63740566579E+01  0.16448557245E+02  0.51100000000E-03 0.  1.
        -12    1    3    3    0    0  0.10432608162E+00  0.11084503601E+02 -0.56975506547E+01  0.12463514251E+02  0.00000000000E+00 0.  1.
</event>
<event>
 7    1  0.3742599E-009  0.4778727E+02  0.7816164E-02  0.1312668E+00
        -11   -1    0    0    0    0  0.00000000000E+00  0.00000000000E+00  0.45593999997E+02  0.45594000000E+02  0.51100000000E-03 0. -1.
         11   -1    0    0    0    0 -0.00000000000E+00 -0.00000000000E+00 -0.45593999997E+02  0.45594000000E+02  0.51100000000E-03 0.  1.
    9900012    2    1    2    0    0 -0.17440586241E+02  0.39088944995E+02 -0.71766015538E+01  0.47787270984E+02  0.19999999726E+02 0.  0.
        -12    1    1    2    0    0  0.17440586241E+02 -0.39088944995E+02  0.71766015538E+01  0.43400729016E+02  0.00000000000E+00 0.  1.
         11    1    3    3    0    0  0.31684352838E+01  0.52386655887E+01 -0.17729976546E+01  0.63738622704E+01  0.51100000000E-03 0.  1.
        -11    1    3    3    0    0 -0.49470740383E+01  0.12549617393E+02 -0.64533960871E+01  0.14953687156E+02  0.51100000000E-03 0. -1.
         12    1    3    3    0    0 -0.15661947487E+02  0.21300662013E+02  0.10497921880E+01  0.26459721558E+02  0.00000000000E+00 0. -1.
</event>
<event>
 7    1  0.3742599E-009  0.4778727E+02  0.7816164E-02  0.1312668E+00
        -11   -1    0    0    0    0  0.00000000000E+00  0.00000000000E+00  0.45593999997E+02  0.45594000000E+02  0.51100000000E-03 0.  1.
         11   -1    0    0    0    0 -0.00000000000E+00 -0.00000000000E+00 -0.45593999997E+02  0.45594000000E+02  0.51100000000E-03 0. -1.
    9900012    2    1    2    0    0  0.23506391747E+00  0.39130085304E+02 -0.18772448064E+02  0.47787266858E+02  0.19999980914E+02 0.  0.
        -12    1    1    2    0    0 -0.23506391747E+00 -0.39130085304E+02  0.18772448064E+02  0.43400733142E+02  0.00000000000E+00 0.  1.
         11    1    3    3    0    0 -0.20789685363E+01  0.48566701435E+01 -0.59571782037E+01  0.79622438715E+01  0.51100000000E-03 0. -1.
        -11    1    3    3    0    0 -0.87630974496E+00  0.17665173379E+02 -0.14443297527E+02  0.22834953755E+02  0.51100000000E-03 0.  1.
         12    1    3    3    0    0  0.31903421987E+01  0.16608241781E+02  0.16280276672E+01  0.16990069231E+02  0.00000000000E+00 0. -1.
</event>
<event>
 7    1  0.3742599E-009  0.4778728E+02  0.7816164E-02  0.1312668E+00
        -11   -1    0    0    0    0  0.00000000000E+00  0.00000000000E+00  0.45593999997E+02  0.45594000000E+02  0.51100000000E-03 0.  1.
         11   -1    0    0    0    0 -0.00000000000E+00 -0.00000000000E+00 -0.45593999997E+02  0.45594000000E+02  0.51100000000E-03 0. -1.
    9900012    2    1    2    0    0  0.29868292301E+02 -0.79338310454E+01 -0.30472319377E+02  0.47787276409E+02  0.20000024457E+02 0.  0.
        -12    1    1    2    0    0 -0.29868292301E+02  0.79338310454E+01  0.30472319377E+02  0.43400723591E+02  0.00000000000E+00 0.  1.
         11    1    3    3    0    0  0.65068859023E+01  0.46639153017E+01 -0.64875484149E+01  0.10304365812E+02  0.51100000000E-03 0. -1.
        -11    1    3    3    0    0  0.10486438468E+01 -0.27459569323E+01 -0.74684460998E+01  0.80260588584E+01  0.51100000000E-03 0.  1.
         12    1    3    3    0    0  0.22312762552E+02 -0.98517894148E+01 -0.16516324862E+02  0.29456851738E+02  0.00000000000E+00 0. -1.
</event>
<event>
 7    1  0.3742599E-009  0.4778727E+02  0.7816164E-02  0.1312668E+00
        -11   -1    0    0    0    0  0.00000000000E+00  0.00000000000E+00  0.45593999997E+02  0.45594000000E+02  0.51100000000E-03 0.  1.
         11   -1    0    0    0    0 -0.00000000000E+00 -0.00000000000E+00 -0.45593999997E+02  0.45594000000E+02  0.51100000000E-03 0. -1.
    9900012    2    1    2    0    0 -0.82606602167E+01  0.22378714680E+02 -0.36257110125E+02  0.47787269447E+02  0.19999992716E+02 0.  0.
        -12    1    1    2    0    0  0.82606602167E+01 -0.22378714680E+02  0.36257110125E+02  0.43400730553E+02  0.00000000000E+00 0.  1.
         11    1    3    3    0    0 -0.23294391059E+01  0.86274048611E+01 -0.66249881596E+01  0.11124246921E+02  0.51100000000E-03 0.  1.
        -11    1    3    3    0    0 -0.35685481686E+01  0.79168067402E+01 -0.28326848148E+01  0.91342470141E+01  0.51100000000E-03 0. -1.
         12    1    3    3    0    0 -0.23626729422E+01  0.58345030787E+01 -0.26799437150E+02  0.27528775512E+02  0.00000000000E+00 0. -1.
</event>
<event>
 7    1  0.3742599E-009  0.4778727E+02  0.7816164E-02  0.1312668E+00
        -11   -1    0    0    0    0  0.00000000000E+00  0.00000000000E+00  0.45593999997E+02  0.45594000000E+02  0.51100000000E-03 0. -1.
         11   -1    0    0    0    0 -0.00000000000E+00 -0.00000000000E+00 -0.45593999997E+02  0.45594000000E+02  0.51100000000E-03 0.  1.
    9900012    2    1    2    0    0 -0.36858711197E+01 -0.42814269561E+02  0.60807867316E+01  0.47787270845E+02  0.19999999090E+02 0.  0.
        -12    1    1    2    0    0  0.36858711197E+01  0.42814269561E+02 -0.60807867316E+01  0.43400729155E+02  0.00000000000E+00 0.  1.
         11    1    3    3    0    0  0.32951098837E+01 -0.19774158263E+02  0.35845502738E+01  0.20364775596E+02  0.51100000000E-03 0. -1.
        -11    1    3    3    0    0 -0.20944251080E+01  0.70921855581E+00  0.22779283817E+01  0.31746756474E+01  0.51100000000E-03 0.  1.
         12    1    3    3    0    0 -0.48865558954E+01 -0.23749329854E+02  0.21830807617E+00  0.24247819602E+02  0.00000000000E+00 0. -1.
</event>
<event>
 7    1  0.3742599E-009  0.4778727E+02  0.7816164E-02  0.1312668E+00
        -11   -1    0    0    0    0  0.00000000000E+00  0.00000000000E+00  0.45593999997E+02  0.45594000000E+02  0.51100000000E-03 0.  1.
         11   -1    0    0    0    0 -0.00000000000E+00 -0.00000000000E+00 -0.45593999997E+02  0.45594000000E+02  0.51100000000E-03 0. -1.
    9900012    2    1    2    0    0 -0.49487317102E+01  0.10259417801E+02 -0.41879328685E+02  0.47787265326E+02  0.19999973927E+02 0.  0.
        -12    1    1    2    0    0  0.49487317102E+01 -0.10259417801E+02  0.41879328685E+02  0.43400734674E+02  0.00000000000E+00 0.  1.
         11    1    3    3    0    0 -0.13982732550E+01  0.12828354990E+01 -0.39689430455E+01  0.43992435910E+01  0.51100000000E-03 0. -1.
        -11    1    3    3    0    0 -0.98598665384E+01  0.10148259565E+02 -0.21203261600E+02  0.25490830569E+02  0.51100000000E-03 0.  1.
        -12    1    3    3    0    0  0.63094080832E+01 -0.11716772625E+01 -0.16707124040E+02  0.17897191166E+02  0.00000000000E+00 0.  1.
</event>
<event>
 7    1  0.3742599E-009  0.4778727E+02  0.7816164E-02  0.1312668E+00
        -11   -1    0    0    0    0  0.00000000000E+00  0.00000000000E+00  0.45593999997E+02  0.45594000000E+02  0.51100000000E-03 0.  1.
         11   -1    0    0    0    0 -0.00000000000E+00 -0.00000000000E+00 -0.45593999997E+02  0.45594000000E+02  0.51100000000E-03 0. -1.
    9900012    2    1    2    0    0 -0.42736774575E+02 -0.74547439423E+01  0.12720399074E+01  0.47787271966E+02  0.20000004204E+02 0.  0.
        -12    1    1    2    0    0  0.42736774575E+02  0.74547439423E+01 -0.12720399074E+01  0.43400728034E+02  0.00000000000E+00 0.  1.
         11    1    3    3    0    0 -0.15327681624E+01  0.15943704449E+01 -0.84940761409E+00  0.23691536276E+01  0.51100000000E-03 0. -1.
        -11    1    3    3    0    0 -0.10080537707E+02  0.13999299346E+01  0.68226309963E+01  0.12252564558E+02  0.51100000000E-03 0.  1.
         12    1    3    3    0    0 -0.31123468706E+02 -0.10449044322E+02 -0.47011834748E+01  0.33165553781E+02  0.00000000000E+00 0. -1.
</event>
<event>
 7    1  0.3742599E-009  0.4778729E+02  0.7816164E-02  0.1312668E+00
        -11   -1    0    0    0    0  0.00000000000E+00  0.00000000000E+00  0.45593999997E+02  0.45594000000E+02  0.51100000000E-03 0.  1.
         11   -1    0    0    0    0 -0.00000000000E+00 -0.00000000000E+00 -0.45593999997E+02  0.45594000000E+02  0.51100000000E-03 0. -1.
    9900012    2    1    2    0    0  0.30652037962E+02  0.11715229234E+02 -0.28404713180E+02  0.47787288508E+02  0.20000079621E+02 0.  0.
        -12    1    1    2    0    0 -0.30652037962E+02 -0.11715229234E+02  0.28404713180E+02  0.43400711492E+02  0.00000000000E+00 0.  1.
         11    1    3    3    0    0  0.11291016984E+02  0.14640119622E+00 -0.98692915704E+01  0.14997046850E+02  0.51100000000E-03 0. -1.
        -11    1    3    3    0    0  0.57317587850E+01 -0.83186688514E+00 -0.11847861404E+02  0.13187754979E+02  0.51100000000E-03 0.  1.
        -12    1    3    3    0    0  0.13629262193E+02  0.12400694923E+02 -0.66875602055E+01  0.19602486679E+02  0.00000000000E+00 0.  1.
</event>
<event>
 7    1  0.3742599E-009  0.4778727E+02  0.7816164E-02  0.1312668E+00
        -11   -1    0    0    0    0  0.00000000000E+00  0.00000000000E+00  0.45593999997E+02  0.45594000000E+02  0.51100000000E-03 0. -1.
         11   -1    0    0    0    0 -0.00000000000E+00 -0.00000000000E+00 -0.45593999997E+02  0.45594000000E+02  0.51100000000E-03 0.  1.
    9900012    2    1    2    0    0 -0.14371246007E+02  0.12691983112E+02  0.38935894790E+02  0.47787273621E+02  0.20000011750E+02 0.  0.
        -12    1    1    2    0    0  0.14371246007E+02 -0.12691983112E+02 -0.38935894790E+02  0.43400726379E+02  0.00000000000E+00 0.  1.
         11    1    3    3    0    0 -0.67052667095E+01  0.48661679431E+00  0.24670637134E+02  0.25570250965E+02  0.51100000000E-03 0. -1.
        -11    1    3    3    0    0 -0.13593466016E+01 -0.12956806976E+01  0.29889809860E+01  0.35299602334E+01  0.51100000000E-03 0.  1.
        -12    1    3    3    0    0 -0.63066326961E+01  0.13501047016E+02  0.11276276670E+02  0.18687062423E+02  0.00000000000E+00 0.  1.
</event>
<event>
 7    1  0.3742599E-009  0.4778727E+02  0.7816164E-02  0.1312668E+00
        -11   -1    0    0    0    0  0.00000000000E+00  0.00000000000E+00  0.45593999997E+02  0.45594000000E+02  0.51100000000E-03 0.  1.
         11   -1    0    0    0    0 -0.00000000000E+00 -0.00000000000E+00 -0.45593999997E+02  0.45594000000E+02  0.51100000000E-03 0. -1.
    9900012    2    1    2    0    0 -0.29516108040E+02  0.20956717488E+02 -0.23942403557E+02  0.47787270400E+02  0.19999997062E+02 0.  0.
        -12    1    1    2    0    0  0.29516108040E+02 -0.20956717488E+02  0.23942403557E+02  0.43400729600E+02  0.00000000000E+00 0.  1.
         11    1    3    3    0    0 -0.80475840982E+01  0.72703500762E+01 -0.13318157908E+02  0.17175416454E+02  0.51100000000E-03 0. -1.
        -11    1    3    3    0    0 -0.20833737133E+02  0.12575005077E+02 -0.13237430728E+02  0.27702074438E+02  0.51100000000E-03 0.  1.
        -12    1    3    3    0    0 -0.63478680834E+00  0.11113623353E+01  0.26131850786E+01  0.29097795084E+01  0.00000000000E+00 0.  1.
</event>
<event>
 7    1  0.3742599E-009  0.4778727E+02  0.7816164E-02  0.1312668E+00
        -11   -1    0    0    0    0  0.00000000000E+00  0.00000000000E+00  0.45593999997E+02  0.45594000000E+02  0.51100000000E-03 0.  1.
         11   -1    0    0    0    0 -0.00000000000E+00 -0.00000000000E+00 -0.45593999997E+02  0.45594000000E+02  0.51100000000E-03 0. -1.
    9900012    2    1    2    0    0 -0.41241679598E+02 -0.13302502342E+02  0.24063160029E+01  0.47787273493E+02  0.20000011166E+02 0.  0.
        -12    1    1    2    0    0  0.41241679598E+02  0.13302502342E+02 -0.24063160029E+01  0.43400726507E+02  0.00000000000E+00 0.  1.
         11    1    3    3    0    0 -0.37386975008E+02 -0.11157127524E+02 -0.13030582941E+01  0.39037998873E+02  0.51100000000E-03 0. -1.
        -11    1    3    3    0    0 -0.38718776252E+01 -0.42025676493E+01  0.19364741389E+01  0.60334851905E+01  0.51100000000E-03 0.  1.
        -12    1    3    3    0    0  0.17173035409E-01  0.20571928312E+01  0.17729001581E+01  0.27157894300E+01  0.00000000000E+00 0.  1.
</event>
<event>
 7    1  0.3742599E-009  0.4778727E+02  0.7816164E-02  0.1312668E+00
        -11   -1    0    0    0    0  0.00000000000E+00  0.00000000000E+00  0.45593999997E+02  0.45594000000E+02  0.51100000000E-03 0. -1.
         11   -1    0    0    0    0 -0.00000000000E+00 -0.00000000000E+00 -0.45593999997E+02  0.45594000000E+02  0.51100000000E-03 0.  1.
    9900012    2    1    2    0    0 -0.26798187497E+01  0.41982144198E+02  0.10674338258E+02  0.47787270084E+02  0.19999995620E+02 0.  0.
        -12    1    1    2    0    0  0.26798187497E+01 -0.41982144198E+02 -0.10674338258E+02  0.43400729916E+02  0.00000000000E+00 0.  1.
         11    1    3    3    0    0  0.86317202947E+00  0.99306093376E+00 -0.14711387326E+01  0.19736984071E+01  0.51100000000E-03 0. -1.
        -11    1    3    3    0    0  0.40069967586E+01  0.12069108902E+02 -0.17776543896E+01  0.12840540023E+02  0.51100000000E-03 0.  1.
         12    1    3    3    0    0 -0.75499875378E+01  0.28919974363E+02  0.13923131380E+02  0.32973031653E+02  0.00000000000E+00 0. -1.
</event>
<event>
 7    1  0.3742599E-009  0.4778727E+02  0.7816164E-02  0.1312668E+00
        -11   -1    0    0    0    0  0.00000000000E+00  0.00000000000E+00  0.45593999997E+02  0.45594000000E+02  0.51100000000E-03 0.  1.
         11   -1    0    0    0    0 -0.00000000000E+00 -0.00000000000E+00 -0.45593999997E+02  0.45594000000E+02  0.51100000000E-03 0. -1.
    9900012    2    1    2    0    0 -0.35745111410E+02  0.21453950427E+01 -0.24521569603E+02  0.47787273216E+02  0.20000009901E+02 0.  0.
        -12    1    1    2    0    0  0.35745111410E+02 -0.21453950427E+01  0.24521569603E+02  0.43400726784E+02  0.00000000000E+00 0.  1.
         11    1    3    3    0    0 -0.90361332924E+01  0.11993450726E+01 -0.24643427914E+01  0.94426224713E+01  0.51100000000E-03 0. -1.
        -11    1    3    3    0    0 -0.16811272721E+02 -0.69891495936E+01 -0.96740472106E+01  0.20616844866E+02  0.51100000000E-03 0.  1.
         12    1    3    3    0    0 -0.98977053962E+01  0.79351995637E+01 -0.12383179601E+02  0.17727805878E+02  0.00000000000E+00 0. -1.
</event>
<event>
 7    1  0.3742599E-009  0.4778727E+02  0.7816164E-02  0.1312668E+00
        -11   -1    0    0    0    0  0.00000000000E+00  0.00000000000E+00  0.45593999997E+02  0.45594000000E+02  0.51100000000E-03 0. -1.
         11   -1    0    0    0    0 -0.00000000000E+00 -0.00000000000E+00 -0.45593999997E+02  0.45594000000E+02  0.51100000000E-03 0.  1.
    9900012    2    1    2    0    0  0.55789443365E+01 -0.20942444667E+02  0.37602028893E+02  0.47787272063E+02  0.20000004646E+02 0.  0.
        -12    1    1    2    0    0 -0.55789443365E+01  0.20942444667E+02 -0.37602028893E+02  0.43400727937E+02  0.00000000000E+00 0.  1.
         11    1    3    3    0    0 -0.41591304528E+01 -0.56576469716E+01  0.14625932685E+02  0.16224217779E+02  0.51100000000E-03 0. -1.
        -11    1    3    3    0    0  0.47606234409E+01 -0.57927175903E+01  0.18474619739E+02  0.19938171616E+02  0.51100000000E-03 0.  1.
         12    1    3    3    0    0  0.49774513483E+01 -0.94920801048E+01  0.45014764692E+01  0.11624882668E+02  0.00000000000E+00 0. -1.
</event>
<event>
 7    1  0.3742599E-009  0.4778727E+02  0.7816164E-02  0.1312668E+00
        -11   -1    0    0    0    0  0.00000000000E+00  0.00000000000E+00  0.45593999997E+02  0.45594000000E+02  0.51100000000E-03 0.  1.
         11   -1    0    0    0    0 -0.00000000000E+00 -0.00000000000E+00 -0.45593999997E+02  0.45594000000E+02  0.51100000000E-03 0. -1.
    9900012    2    1    2    0    0 -0.27726510550E+02 -0.11667119107E+02 -0.31284852623E+02  0.47787273518E+02  0.20000011278E+02 0.  0.
        -12    1    1    2    0    0  0.27726510550E+02  0.11667119107E+02  0.31284852623E+02  0.43400726482E+02  0.00000000000E+00 0.  1.
         11    1    3    3    0    0 -0.32859239721E+01 -0.49745564211E+01 -0.30281015397E+01  0.66867710544E+01  0.51100000000E-03 0.  1.
        -11    1    3    3    0    0 -0.17226424203E+02 -0.11732381257E+02 -0.17595329333E+02  0.27276254790E+02  0.51100000000E-03 0. -1.
         12    1    3    3    0    0 -0.72141623744E+01  0.50398185711E+01 -0.10661421750E+02  0.13824247673E+02  0.00000000000E+00 0. -1.
</event>
<event>
 7    1  0.3742599E-009  0.4778726E+02  0.7816164E-02  0.1312668E+00
        -11   -1    0    0    0    0  0.00000000000E+00  0.00000000000E+00  0.45593999997E+02  0.45594000000E+02  0.51100000000E-03 0. -1.
         11   -1    0    0    0    0 -0.00000000000E+00 -0.00000000000E+00 -0.45593999997E+02  0.45594000000E+02  0.51100000000E-03 0.  1.
    9900012    2    1    2    0    0  0.64293408749E+01 -0.16354914628E+02  0.39683810276E+02  0.47787257442E+02  0.19999937979E+02 0.  0.
        -12    1    1    2    0    0 -0.64293408749E+01  0.16354914628E+02 -0.39683810276E+02  0.43400742558E+02  0.00000000000E+00 0.  1.
         11    1    3    3    0    0  0.29121938481E+01 -0.61191331156E+01  0.19636999122E+01  0.70555496385E+01  0.51100000000E-03 0. -1.
        -11    1    3    3    0    0 -0.84649295121E+00 -0.94931856479E+01  0.16499900514E+02  0.19054759020E+02  0.51100000000E-03 0.  1.
         12    1    3    3    0    0  0.43636399779E+01 -0.74259586476E+00  0.21220209850E+02  0.21676948783E+02  0.00000000000E+00 0. -1.
</event>
<event>
 7    1  0.3742599E-009  0.4778727E+02  0.7816164E-02  0.1312668E+00
        -11   -1    0    0    0    0  0.00000000000E+00  0.00000000000E+00  0.45593999997E+02  0.45594000000E+02  0.51100000000E-03 0.  1.
         11   -1    0    0    0    0 -0.00000000000E+00 -0.00000000000E+00 -0.45593999997E+02  0.45594000000E+02  0.51100000000E-03 0. -1.
    9900012    2    1    2    0    0  0.91607902580E+01  0.38065847327E+01 -0.42251782216E+02  0.47787271136E+02  0.20000000417E+02 0.  0.
        -12    1    1    2    0    0 -0.91607902580E+01 -0.38065847327E+01  0.42251782216E+02  0.43400728864E+02  0.00000000000E+00 0.  1.
         11    1    3    3    0    0 -0.68113473351E+00 -0.12025951725E+01 -0.46838601784E+01  0.48835157526E+01  0.51100000000E-03 0. -1.
        -11    1    3    3    0    0 -0.28039121281E+01  0.67794640318E+01 -0.19015715104E+02  0.20381866376E+02  0.51100000000E-03 0.  1.
         12    1    3    3    0    0  0.12645837120E+02 -0.17702841265E+01 -0.18552206933E+02  0.22521889007E+02  0.00000000000E+00 0. -1.
</event>
<event>
 7    1  0.3742599E-009  0.4778727E+02  0.7816164E-02  0.1312668E+00
        -11   -1    0    0    0    0  0.00000000000E+00  0.00000000000E+00  0.45593999997E+02  0.45594000000E+02  0.51100000000E-03 0.  1.
         11   -1    0    0    0    0 -0.00000000000E+00 -0.00000000000E+00 -0.45593999997E+02  0.45594000000E+02  0.51100000000E-03 0. -1.
    9900012    2    1    2    0    0  0.41092695097E+02 -0.76643342923E+01 -0.11673543151E+02  0.47787271663E+02  0.20000002820E+02 0.  0.
        -12    1    1    2    0    0 -0.41092695097E+02  0.76643342923E+01  0.11673543151E+02  0.43400728337E+02  0.00000000000E+00 0.  1.
         11    1    3    3    0    0  0.18253951461E+02 -0.20583432244E+01 -0.64502838680E+01  0.19469198314E+02  0.51100000000E-03 0. -1.
        -11    1    3    3    0    0  0.90700956152E+01 -0.29695033805E+01 -0.96940386485E+01  0.13603638130E+02  0.51100000000E-03 0.  1.
        -12    1    3    3    0    0  0.13768648021E+02 -0.26364876875E+01  0.44707793658E+01  0.14714435218E+02  0.00000000000E+00 0.  1.
</event>
<event>
 7    1  0.3742599E-009  0.4778727E+02  0.7816164E-02  0.1312668E+00
        -11   -1    0    0    0    0  0.00000000000E+00  0.00000000000E+00  0.45593999997E+02  0.45594000000E+02  0.51100000000E-03 0.  1.
         11   -1    0    0    0    0 -0.00000000000E+00 -0.00000000000E+00 -0.45593999997E+02  0.45594000000E+02  0.51100000000E-03 0. -1.
    9900012    2    1    2    0    0 -0.12974981159E+02 -0.13788146458E+01 -0.41392899952E+02  0.47787269219E+02  0.19999991676E+02 0.  0.
        -12    1    1    2    0    0  0.12974981159E+02  0.13788146458E+01  0.41392899952E+02  0.43400730781E+02  0.00000000000E+00 0.  1.
         11    1    3    3    0    0  0.70812447540E+00 -0.30201717611E+01 -0.11151726373E+02  0.11575140565E+02  0.51100000000E-03 0. -1.
        -11    1    3    3    0    0 -0.40265510539E+01  0.19748820701E+01 -0.24637717283E+02  0.25042571468E+02  0.51100000000E-03 0.  1.
        -12    1    3    3    0    0 -0.96565545803E+01 -0.33352495477E+00 -0.56034562965E+01  0.11169557186E+02  0.00000000000E+00 0.  1.
</event>
<event>
 7    1  0.4251323E-009  0.4778724E+02  0.7816164E-02  0.1312668E+00
        -11   -1    0    0    0    0  0.00000000000E+00  0.00000000000E+00  0.45593999997E+02  0.45594000000E+02  0.51100000000E-03 0.  1.
         11   -1    0    0    0    0 -0.00000000000E+00 -0.00000000000E+00 -0.45593999997E+02  0.45594000000E+02  0.51100000000E-03 0. -1.
    9900012    2    1    2    0    0 -0.73423720688E-01 -0.32567606089E+02 -0.28687485324E+02  0.47787237661E+02  0.19999847791E+02 0.  0.
        -12    1    1    2    0    0  0.73423720688E-01  0.32567606089E+02  0.28687485324E+02  0.43400762339E+02  0.00000000000E+00 0.  1.
         11    1    3    3    0    0  0.52209454333E+01 -0.16880999974E+02 -0.16965586045E+02  0.24496071960E+02  0.51100000000E-03 0. -1.
        -11    1    3    3    0    0  0.28827242350E+01 -0.45802124609E+01 -0.36335735953E+00  0.54240643465E+01  0.51100000000E-03 0.  1.
        -12    1    3    3    0    0 -0.81770933891E+01 -0.11106393654E+02 -0.11358541919E+02  0.17867101354E+02  0.00000000000E+00 0.  1.
</event>
<event>
 7    1  0.3868878E-009  0.4778727E+02  0.7816164E-02  0.1312668E+00
        -11   -1    0    0    0    0  0.00000000000E+00  0.00000000000E+00  0.45593999997E+02  0.45594000000E+02  0.51100000000E-03 0. -1.
         11   -1    0    0    0    0 -0.00000000000E+00 -0.00000000000E+00 -0.45593999997E+02  0.45594000000E+02  0.51100000000E-03 0.  1.
    9900012    2    1    2    0    0  0.39420146143E+02 -0.18117314285E+02  0.11992237755E+01  0.47787272627E+02  0.20000007216E+02 0.  0.
        -12    1    1    2    0    0 -0.39420146143E+02  0.18117314285E+02 -0.11992237755E+01  0.43400727373E+02  0.00000000000E+00 0.  1.
         11    1    3    3    0    0  0.27404966030E+02 -0.11659371962E+02  0.24492524229E+01  0.29882636352E+02  0.51100000000E-03 0. -1.
        -11    1    3    3    0    0  0.10819023044E+02 -0.39286554263E+01  0.38084628448E+01  0.12123942535E+02  0.51100000000E-03 0.  1.
        -12    1    3    3    0    0  0.11961570683E+01 -0.25292868967E+01 -0.50584914921E+01  0.57806937398E+01  0.00000000000E+00 0.  1.
</event>
<event>
 7    1  0.3742599E-009  0.4778727E+02  0.7816164E-02  0.1312668E+00
        -11   -1    0    0    0    0  0.00000000000E+00  0.00000000000E+00  0.45593999997E+02  0.45594000000E+02  0.51100000000E-03 0.  1.
         11   -1    0    0    0    0 -0.00000000000E+00 -0.00000000000E+00 -0.45593999997E+02  0.45594000000E+02  0.51100000000E-03 0. -1.
    9900012    2    1    2    0    0  0.23946443495E+02 -0.66635250711E+01 -0.35577920639E+02  0.47787272363E+02  0.20000006013E+02 0.  0.
        -12    1    1    2    0    0 -0.23946443495E+02  0.66635250711E+01  0.35577920639E+02  0.43400727637E+02  0.00000000000E+00 0.  1.
         11    1    3    3    0    0  0.21049464703E+00  0.16127719963E+01 -0.13041028292E+02  0.13142060748E+02  0.51100000000E-03 0. -1.
        -11    1    3    3    0    0  0.61216318730E-01  0.25886258494E+00  0.47476833074E+00  0.54420814451E+00  0.51100000000E-03 0.  1.
        -12    1    3    3    0    0  0.23674732529E+02 -0.85351596524E+01 -0.23011660677E+02  0.34101003471E+02  0.00000000000E+00 0.  1.
</event>
<event>
 7    1  0.3742599E-009  0.4778727E+02  0.7816164E-02  0.1312668E+00
        -11   -1    0    0    0    0  0.00000000000E+00  0.00000000000E+00  0.45593999997E+02  0.45594000000E+02  0.51100000000E-03 0. -1.
         11   -1    0    0    0    0 -0.00000000000E+00 -0.00000000000E+00 -0.45593999997E+02  0.45594000000E+02  0.51100000000E-03 0.  1.
    9900012    2    1    2    0    0 -0.19608717927E+02 -0.32017460336E+02  0.21771629450E+02  0.47787269199E+02  0.19999991586E+02 0.  0.
        -12    1    1    2    0    0  0.19608717927E+02  0.32017460336E+02 -0.21771629450E+02  0.43400730801E+02  0.00000000000E+00 0.  1.
         11    1    3    3    0    0 -0.73851059633E+00  0.44483803476E+00  0.44389615110E+00  0.96970244516E+00  0.51100000000E-03 0. -1.
        -11    1    3    3    0    0 -0.87729709511E+01 -0.21881683823E+01  0.85401975404E+01  0.12437366058E+02  0.51100000000E-03 0.  1.
         12    1    3    3    0    0 -0.10097236380E+02 -0.30274129989E+02  0.12787535759E+02  0.34380200696E+02  0.00000000000E+00 0. -1.
</event>
<event>
 7    1  0.3742599E-009  0.4778727E+02  0.7816164E-02  0.1312668E+00
        -11   -1    0    0    0    0  0.00000000000E+00  0.00000000000E+00  0.45593999997E+02  0.45594000000E+02  0.51100000000E-03 0. -1.
         11   -1    0    0    0    0 -0.00000000000E+00 -0.00000000000E+00 -0.45593999997E+02  0.45594000000E+02  0.51100000000E-03 0.  1.
    9900012    2    1    2    0    0  0.34438878425E+02 -0.11377618667E+02  0.23835626240E+02  0.47787266919E+02  0.19999981190E+02 0.  0.
        -12    1    1    2    0    0 -0.34438878425E+02  0.11377618667E+02 -0.23835626240E+02  0.43400733081E+02  0.00000000000E+00 0.  1.
         11    1    3    3    0    0  0.31382161550E+02 -0.13620618080E+02  0.16166429616E+02  0.37838006649E+02  0.51100000000E-03 0. -1.
        -11    1    3    3    0    0  0.14092987984E+01 -0.15586456378E+01  0.34234544925E+01  0.40169068014E+01  0.51100000000E-03 0.  1.
         12    1    3    3    0    0  0.16474180768E+01  0.38016450511E+01  0.42457421324E+01  0.59323534680E+01  0.00000000000E+00 0. -1.
</event>
<event>
 7    1  0.3742599E-009  0.4778727E+02  0.7816164E-02  0.1312668E+00
        -11   -1    0    0    0    0  0.00000000000E+00  0.00000000000E+00  0.45593999997E+02  0.45594000000E+02  0.51100000000E-03 0.  1.
         11   -1    0    0    0    0 -0.00000000000E+00 -0.00000000000E+00 -0.45593999997E+02  0.45594000000E+02  0.51100000000E-03 0. -1.
    9900012    2    1    2    0    0  0.24783087172E+02 -0.23946547768E+02  0.26381528710E+02  0.47787267093E+02  0.19999981982E+02 0.  0.
        -12    1    1    2    0    0 -0.24783087172E+02  0.23946547768E+02 -0.26381528710E+02  0.43400732907E+02  0.00000000000E+00 0.  1.
         11    1    3    3    0    0  0.75491059645E+01 -0.13566035079E+02  0.46895261449E+01  0.16217828596E+02  0.51100000000E-03 0. -1.
        -11    1    3    3    0    0  0.24896409738E+01 -0.26276679578E+01 -0.67342119302E+00  0.36819081248E+01  0.51100000000E-03 0.  1.
        -12    1    3    3    0    0  0.14744340234E+02 -0.77528447309E+01  0.22365423759E+02  0.27887530372E+02  0.00000000000E+00 0.  1.
</event>
<event>
 7    1  0.3742599E-009  0.4778728E+02  0.7816164E-02  0.1312668E+00
        -11   -1    0    0    0    0  0.00000000000E+00  0.00000000000E+00  0.45593999997E+02  0.45594000000E+02  0.51100000000E-03 0. -1.
         11   -1    0    0    0    0 -0.00000000000E+00 -0.00000000000E+00 -0.45593999997E+02  0.45594000000E+02  0.51100000000E-03 0.  1.
    9900012    2    1    2    0    0  0.21137420651E+02 -0.61469603825E+01  0.37403838547E+02  0.47787276368E+02  0.20000024273E+02 0.  0.
        -12    1    1    2    0    0 -0.21137420651E+02  0.61469603825E+01 -0.37403838547E+02  0.43400723632E+02  0.00000000000E+00 0.  1.
         11    1    3    3    0    0  0.12942120765E+02 -0.67678652606E+01  0.26558736547E+02  0.30309552575E+02  0.51100000000E-03 0. -1.
        -11    1    3    3    0    0  0.41171509696E+01 -0.50952793759E+01  0.40224831106E+01  0.76872085090E+01  0.51100000000E-03 0.  1.
         12    1    3    3    0    0  0.40781489172E+01  0.57161842541E+01  0.68226188890E+01  0.97905152838E+01  0.00000000000E+00 0. -1.
</event>
<event>
 7    1  0.3742599E-009  0.4778727E+02  0.7816164E-02  0.1312668E+00
        -11   -1    0    0    0    0  0.00000000000E+00  0.00000000000E+00  0.45593999997E+02  0.45594000000E+02  0.51100000000E-03 0.  1.
         11   -1    0    0    0    0 -0.00000000000E+00 -0.00000000000E+00 -0.45593999997E+02  0.45594000000E+02  0.51100000000E-03 0. -1.
    9900012    2    1    2    0    0  0.33597298332E+02  0.27007992053E+02 -0.50411671150E+01  0.47787268948E+02  0.19999990444E+02 0.  0.
        -12    1    1    2    0    0 -0.33597298332E+02 -0.27007992053E+02  0.50411671150E+01  0.43400731052E+02  0.00000000000E+00 0.  1.
         11    1    3    3    0    0  0.24439803553E+02  0.72203601165E+01 -0.17324565034E+01  0.25542885580E+02  0.51100000000E-03 0. -1.
        -11    1    3    3    0    0  0.24381879905E+01  0.32407579800E+01  0.12825581990E+00  0.40575513278E+01  0.51100000000E-03 0.  1.
         12    1    3    3    0    0  0.67193067882E+01  0.16546873956E+02 -0.34369664315E+01  0.18186832041E+02  0.00000000000E+00 0. -1.
</event>
<event>
 7    1  0.3742599E-009  0.4778727E+02  0.7816164E-02  0.1312668E+00
        -11   -1    0    0    0    0  0.00000000000E+00  0.00000000000E+00  0.45593999997E+02  0.45594000000E+02  0.51100000000E-03 0.  1.
         11   -1    0    0    0    0 -0.00000000000E+00 -0.00000000000E+00 -0.45593999997E+02  0.45594000000E+02  0.51100000000E-03 0. -1.
    9900012    2    1    2    0    0  0.23408958840E+02 -0.34213292126E+02 -0.12848910642E+02  0.47787271703E+02  0.20000003001E+02 0.  0.
        -12    1    1    2    0    0 -0.23408958840E+02  0.34213292126E+02  0.12848910642E+02  0.43400728297E+02  0.00000000000E+00 0.  1.
         11    1    3    3    0    0 -0.37364564857E+00 -0.66503909664E+01 -0.81590760562E+01  0.10532703045E+02  0.51100000000E-03 0. -1.
        -11    1    3    3    0    0  0.21475047465E+01 -0.14401847455E+01  0.11620476043E+01  0.28348304417E+01  0.51100000000E-03 0.  1.
         12    1    3    3    0    0  0.21635099742E+02 -0.26122716414E+02 -0.58518821899E+01  0.34419738216E+02  0.00000000000E+00 0. -1.
</event>
<event>
 7    1  0.3742599E-009  0.4778727E+02  0.7816164E-02  0.1312668E+00
        -11   -1    0    0    0    0  0.00000000000E+00  0.00000000000E+00  0.45593999997E+02  0.45594000000E+02  0.51100000000E-03 0.  1.
         11   -1    0    0    0    0 -0.00000000000E+00 -0.00000000000E+00 -0.45593999997E+02  0.45594000000E+02  0.51100000000E-03 0. -1.
    9900012    2    1    2    0    0 -0.37077791837E+02 -0.13322345159E+02 -0.18203734218E+02  0.47787268813E+02  0.19999989828E+02 0.  0.
        -12    1    1    2    0    0  0.37077791837E+02  0.13322345159E+02  0.18203734218E+02  0.43400731187E+02  0.00000000000E+00 0.  1.
         11    1    3    3    0    0 -0.59550436497E+01 -0.61769337656E+01 -0.47860974547E+01  0.98246518880E+01  0.51100000000E-03 0. -1.
        -11    1    3    3    0    0 -0.18910599739E+02 -0.45693726161E+01  0.24648694784E+00  0.19456379536E+02  0.51100000000E-03 0.  1.
        -12    1    3    3    0    0 -0.12212148449E+02 -0.25760387774E+01 -0.13664123711E+02  0.18506237389E+02  0.00000000000E+00 0.  1.
</event>
<event>
 7    1  0.3742599E-009  0.4778727E+02  0.7816164E-02  0.1312668E+00
        -11   -1    0    0    0    0  0.00000000000E+00  0.00000000000E+00  0.45593999997E+02  0.45594000000E+02  0.51100000000E-03 0.  1.
         11   -1    0    0    0    0 -0.00000000000E+00 -0.00000000000E+00 -0.45593999997E+02  0.45594000000E+02  0.51100000000E-03 0. -1.
    9900012    2    1    2    0    0 -0.23334495257E+02 -0.31969589856E+02 -0.17806453332E+02  0.47787272762E+02  0.20000007833E+02 0.  0.
        -12    1    1    2    0    0  0.23334495257E+02  0.31969589856E+02  0.17806453332E+02  0.43400727238E+02  0.00000000000E+00 0.  1.
         11    1    3    3    0    0 -0.13515970843E+02 -0.14709769772E+02 -0.13027864509E+02  0.23849193875E+02  0.51100000000E-03 0. -1.
        -11    1    3    3    0    0 -0.12166995763E+02 -0.13456859825E+02 -0.63185184780E+01  0.19210584017E+02  0.51100000000E-03 0.  1.
        -12    1    3    3    0    0  0.23484713485E+01 -0.38029602593E+01  0.15399296551E+01  0.47274948706E+01  0.00000000000E+00 0.  1.
</event>
<event>
 7    1  0.3742599E-009  0.4778725E+02  0.7816164E-02  0.1312668E+00
        -11   -1    0    0    0    0  0.00000000000E+00  0.00000000000E+00  0.45593999997E+02  0.45594000000E+02  0.51100000000E-03 0.  1.
         11   -1    0    0    0    0 -0.00000000000E+00 -0.00000000000E+00 -0.45593999997E+02  0.45594000000E+02  0.51100000000E-03 0. -1.
    9900012    2    1    2    0    0  0.63871100819E+01  0.17405922068E+02 -0.39241093341E+02  0.47787254559E+02  0.19999924836E+02 0.  0.
        -12    1    1    2    0    0 -0.63871100819E+01 -0.17405922068E+02  0.39241093341E+02  0.43400745441E+02  0.00000000000E+00 0.  1.
         11    1    3    3    0    0  0.14995530367E+01  0.26172078552E+01 -0.10035102039E+02  0.10478631087E+02  0.51100000000E-03 0. -1.
        -11    1    3    3    0    0  0.79315322025E+00  0.47511548229E+01 -0.25348688754E+02  0.25802298075E+02  0.51100000000E-03 0.  1.
         12    1    3    3    0    0  0.40944038250E+01  0.10037559390E+02 -0.38573025486E+01  0.11506325397E+02  0.00000000000E+00 0. -1.
</event>
<event>
 7    1  0.3742599E-009  0.4778725E+02  0.7816164E-02  0.1312668E+00
        -11   -1    0    0    0    0  0.00000000000E+00  0.00000000000E+00  0.45593999997E+02  0.45594000000E+02  0.51100000000E-03 0. -1.
         11   -1    0    0    0    0 -0.00000000000E+00 -0.00000000000E+00 -0.45593999997E+02  0.45594000000E+02  0.51100000000E-03 0.  1.
    9900012    2    1    2    0    0 -0.30095107518E+02 -0.52808824261E+01  0.30822422512E+02  0.47787251789E+02  0.19999912208E+02 0.  0.
        -12    1    1    2    0    0  0.30095107518E+02  0.52808824261E+01 -0.30822422512E+02  0.43400748211E+02  0.00000000000E+00 0.  1.
         11    1    3    3    0    0  0.16361340668E+01  0.11229399626E+00  0.23357618166E+01  0.28540021288E+01  0.51100000000E-03 0.  1.
        -11    1    3    3    0    0 -0.10391951598E+02  0.42078159747E+01  0.73941327830E+01  0.13430248440E+02  0.51100000000E-03 0. -1.
         12    1    3    3    0    0 -0.21339289987E+02 -0.96009923970E+01  0.21092527912E+02  0.31503001221E+02  0.00000000000E+00 0. -1.
</event>
<event>
 7    1  0.3742599E-009  0.4778728E+02  0.7816164E-02  0.1312668E+00
        -11   -1    0    0    0    0  0.00000000000E+00  0.00000000000E+00  0.45593999997E+02  0.45594000000E+02  0.51100000000E-03 0.  1.
         11   -1    0    0    0    0 -0.00000000000E+00 -0.00000000000E+00 -0.45593999997E+02  0.45594000000E+02  0.51100000000E-03 0. -1.
    9900012    2    1    2    0    0  0.16739869173E+02 -0.39433392989E+02 -0.69574756791E+01  0.47787283757E+02  0.20000057962E+02 0.  0.
        -12    1    1    2    0    0 -0.16739869173E+02  0.39433392989E+02  0.69574756791E+01  0.43400716243E+02  0.00000000000E+00 0.  1.
         11    1    3    3    0    0  0.57981681864E+01 -0.77545198742E+01 -0.10177511429E+01  0.97358692702E+01  0.51100000000E-03 0. -1.
        -11    1    3    3    0    0  0.26045609056E+01  0.28921606958E+00 -0.42223330211E+01  0.49694546831E+01  0.51100000000E-03 0.  1.
         12    1    3    3    0    0  0.83371400812E+01 -0.31968089185E+02 -0.17173915152E+01  0.33081959804E+02  0.00000000000E+00 0. -1.
</event>
<event>
 7    1  0.3742599E-009  0.4778727E+02  0.7816164E-02  0.1312668E+00
        -11   -1    0    0    0    0  0.00000000000E+00  0.00000000000E+00  0.45593999997E+02  0.45594000000E+02  0.51100000000E-03 0.  1.
         11   -1    0    0    0    0 -0.00000000000E+00 -0.00000000000E+00 -0.45593999997E+02  0.45594000000E+02  0.51100000000E-03 0. -1.
    9900012    2    1    2    0    0  0.20466760596E+02 -0.75857060244E+01 -0.37512560719E+02  0.47787269166E+02  0.19999991437E+02 0.  0.
        -12    1    1    2    0    0 -0.20466760596E+02  0.75857060244E+01  0.37512560719E+02  0.43400730834E+02  0.00000000000E+00 0.  1.
         11    1    3    3    0    0  0.12756870410E+02 -0.59943101112E+01 -0.10012405927E+02  0.17289238534E+02  0.51100000000E-03 0. -1.
        -11    1    3    3    0    0 -0.57870366010E+00 -0.33952358860E+01 -0.29881499040E+01  0.45597768320E+01  0.51100000000E-03 0.  1.
         12    1    3    3    0    0  0.82885938462E+01  0.18038399728E+01 -0.24512004888E+02  0.25938253801E+02  0.00000000000E+00 0. -1.
</event>
<event>
 7    1  0.3742599E-009  0.4778728E+02  0.7816164E-02  0.1312668E+00
        -11   -1    0    0    0    0  0.00000000000E+00  0.00000000000E+00  0.45593999997E+02  0.45594000000E+02  0.51100000000E-03 0. -1.
         11   -1    0    0    0    0 -0.00000000000E+00 -0.00000000000E+00 -0.45593999997E+02  0.45594000000E+02  0.51100000000E-03 0.  1.
    9900012    2    1    2    0    0 -0.34847124324E+02 -0.20892624816E+02  0.15257752675E+02  0.47787275789E+02  0.20000021632E+02 0.  0.
        -12    1    1    2    0    0  0.34847124324E+02  0.20892624816E+02 -0.15257752675E+02  0.43400724211E+02  0.00000000000E+00 0.  1.
         11    1    3    3    0    0 -0.68910340115E-01 -0.10657676813E+01 -0.14255385365E+01  0.17812270394E+01  0.51100000000E-03 0. -1.
        -11    1    3    3    0    0 -0.96900396614E+01 -0.20026813624E+01  0.10847222768E+02  0.14682296936E+02  0.51100000000E-03 0.  1.
         12    1    3    3    0    0 -0.25088174322E+02 -0.17824175773E+02  0.58360684432E+01  0.31323751813E+02  0.00000000000E+00 0. -1.
</event>
<event>
 7    1  0.3742599E-009  0.4778727E+02  0.7816164E-02  0.1312668E+00
        -11   -1    0    0    0    0  0.00000000000E+00  0.00000000000E+00  0.45593999997E+02  0.45594000000E+02  0.51100000000E-03 0.  1.
         11   -1    0    0    0    0 -0.00000000000E+00 -0.00000000000E+00 -0.45593999997E+02  0.45594000000E+02  0.51100000000E-03 0. -1.
    9900012    2    1    2    0    0 -0.32001184899E+02 -0.98019157103E+01 -0.27630967813E+02  0.47787265342E+02  0.19999974001E+02 0.  0.
        -12    1    1    2    0    0  0.32001184899E+02  0.98019157103E+01  0.27630967813E+02  0.43400734658E+02  0.00000000000E+00 0.  1.
         11    1    3    3    0    0 -0.93299057744E+01  0.38272659246E+01 -0.65417643439E+01  0.12020390477E+02  0.51100000000E-03 0. -1.
        -11    1    3    3    0    0 -0.11845162503E+02 -0.98973305084E+00 -0.60564833804E+01  0.13340481155E+02  0.51100000000E-03 0.  1.
        -12    1    3    3    0    0 -0.10826116622E+02 -0.12639448584E+02 -0.15032720089E+02  0.22426393711E+02  0.00000000000E+00 0.  1.
</event>
<event>
 7    1  0.3742599E-009  0.4778727E+02  0.7816164E-02  0.1312668E+00
        -11   -1    0    0    0    0  0.00000000000E+00  0.00000000000E+00  0.45593999997E+02  0.45594000000E+02  0.51100000000E-03 0. -1.
         11   -1    0    0    0    0 -0.00000000000E+00 -0.00000000000E+00 -0.45593999997E+02  0.45594000000E+02  0.51100000000E-03 0.  1.
    9900012    2    1    2    0    0  0.78904366738E+01 -0.39656361166E+02  0.15771407784E+02  0.47787271028E+02  0.19999999923E+02 0.  0.
        -12    1    1    2    0    0 -0.78904366738E+01  0.39656361166E+02 -0.15771407784E+02  0.43400728972E+02  0.00000000000E+00 0.  1.
         11    1    3    3    0    0  0.69575792571E+01 -0.22904942052E+02  0.19016148697E+01  0.24013754786E+02  0.51100000000E-03 0. -1.
        -11    1    3    3    0    0  0.18091089680E+01  0.53292104817E+00  0.64742136768E+00  0.19939996966E+01  0.51100000000E-03 0.  1.
        -12    1    3    3    0    0 -0.87625155119E+00 -0.17284340162E+02  0.13222371547E+02  0.21779516545E+02  0.00000000000E+00 0.  1.
</event>
<event>
 7    1  0.3742599E-009  0.4778727E+02  0.7816164E-02  0.1312668E+00
        -11   -1    0    0    0    0  0.00000000000E+00  0.00000000000E+00  0.45593999997E+02  0.45594000000E+02  0.51100000000E-03 0.  1.
         11   -1    0    0    0    0 -0.00000000000E+00 -0.00000000000E+00 -0.45593999997E+02  0.45594000000E+02  0.51100000000E-03 0. -1.
    9900012    2    1    2    0    0  0.24511558381E+02 -0.23251511987E+02 -0.27242866062E+02  0.47787273563E+02  0.20000011483E+02 0.  0.
        -12    1    1    2    0    0 -0.24511558381E+02  0.23251511987E+02  0.27242866062E+02  0.43400726437E+02  0.00000000000E+00 0.  1.
         11    1    3    3    0    0 -0.19005830447E+00  0.12799848405E+01 -0.65357792773E+00  0.14497060804E+01  0.51100000000E-03 0. -1.
        -11    1    3    3    0    0  0.11109341973E+01 -0.45610622494E+01  0.11207145363E+01  0.48263303831E+01  0.51100000000E-03 0.  1.
         12    1    3    3    0    0  0.23590682488E+02 -0.19970434578E+02 -0.27710002671E+02  0.41511237100E+02  0.00000000000E+00 0. -1.
</event>
<event>
 7    1  0.3742599E-009  0.4778727E+02  0.7816164E-02  0.1312668E+00
        -11   -1    0    0    0    0  0.00000000000E+00  0.00000000000E+00  0.45593999997E+02  0.45594000000E+02  0.51100000000E-03 0.  1.
         11   -1    0    0    0    0 -0.00000000000E+00 -0.00000000000E+00 -0.45593999997E+02  0.45594000000E+02  0.51100000000E-03 0. -1.
    9900012    2    1    2    0    0  0.37068271304E+02  0.18190169852E+02 -0.13367291499E+02  0.47787268454E+02  0.19999988190E+02 0.  0.
        -12    1    1    2    0    0 -0.37068271304E+02 -0.18190169852E+02  0.13367291499E+02  0.43400731546E+02  0.00000000000E+00 0.  1.
         11    1    3    3    0    0  0.13815810061E+02  0.49663648928E+00 -0.53655141829E+01  0.14829430135E+02  0.51100000000E-03 0. -1.
        -11    1    3    3    0    0  0.54795675036E+01 -0.15822573697E+01 -0.73555522658E+00  0.57506730183E+01  0.51100000000E-03 0.  1.
         12    1    3    3    0    0  0.17772893740E+02  0.19275790732E+02 -0.72662220890E+01  0.27207165300E+02  0.00000000000E+00 0. -1.
</event>
<event>
 7    1  0.3742599E-009  0.4778727E+02  0.7816164E-02  0.1312668E+00
        -11   -1    0    0    0    0  0.00000000000E+00  0.00000000000E+00  0.45593999997E+02  0.45594000000E+02  0.51100000000E-03 0.  1.
         11   -1    0    0    0    0 -0.00000000000E+00 -0.00000000000E+00 -0.45593999997E+02  0.45594000000E+02  0.51100000000E-03 0. -1.
    9900012    2    1    2    0    0  0.37281486457E+01 -0.23204973228E+02 -0.36486343661E+02  0.47787272488E+02  0.20000006582E+02 0.  0.
        -12    1    1    2    0    0 -0.37281486457E+01  0.23204973228E+02  0.36486343661E+02  0.43400727512E+02  0.00000000000E+00 0.  1.
         11    1    3    3    0    0 -0.35150109021E+01 -0.11657901237E+02 -0.17866531633E+02  0.21621168233E+02  0.51100000000E-03 0. -1.
        -11    1    3    3    0    0  0.43979673311E+01 -0.12593579921E+02 -0.90297251902E+01  0.16108268347E+02  0.51100000000E-03 0.  1.
        -12    1    3    3    0    0  0.28451922167E+01  0.10465079306E+01 -0.95900868381E+01  0.10057835908E+02  0.00000000000E+00 0.  1.
</event>
<event>
 7    1  0.3742599E-009  0.4778727E+02  0.7816164E-02  0.1312668E+00
        -11   -1    0    0    0    0  0.00000000000E+00  0.00000000000E+00  0.45593999997E+02  0.45594000000E+02  0.51100000000E-03 0.  1.
         11   -1    0    0    0    0 -0.00000000000E+00 -0.00000000000E+00 -0.45593999997E+02  0.45594000000E+02  0.51100000000E-03 0. -1.
    9900012    2    1    2    0    0 -0.91577114918E+01  0.15033772293E+02 -0.39670457198E+02  0.47787272316E+02  0.20000005800E+02 0.  0.
        -12    1    1    2    0    0  0.91577114918E+01 -0.15033772293E+02  0.39670457198E+02  0.43400727684E+02  0.00000000000E+00 0.  1.
         11    1    3    3    0    0  0.25291431292E+00 -0.27595437968E+01 -0.31539965823E+01  0.41984214079E+01  0.51100000000E-03 0. -1.
        -11    1    3    3    0    0 -0.58040502314E+01  0.11206659307E+01 -0.15054889970E+02  0.16173824640E+02  0.51100000000E-03 0.  1.
         12    1    3    3    0    0 -0.36065755734E+01  0.16672650159E+02 -0.21461570646E+02  0.27415026268E+02  0.00000000000E+00 0. -1.
</event>
<event>
 7    1  0.3742599E-009  0.4778727E+02  0.7816164E-02  0.1312668E+00
        -11   -1    0    0    0    0  0.00000000000E+00  0.00000000000E+00  0.45593999997E+02  0.45594000000E+02  0.51100000000E-03 0.  1.
         11   -1    0    0    0    0 -0.00000000000E+00 -0.00000000000E+00 -0.45593999997E+02  0.45594000000E+02  0.51100000000E-03 0. -1.
    9900012    2    1    2    0    0  0.39457134429E+02 -0.11574620950E+02 -0.13884741059E+02  0.47787270262E+02  0.19999996432E+02 0.  0.
        -12    1    1    2    0    0 -0.39457134429E+02  0.11574620950E+02  0.13884741059E+02  0.43400729738E+02  0.00000000000E+00 0.  1.
         11    1    3    3    0    0  0.23355768424E+02 -0.73321053150E+01 -0.95045724239E+00  0.24498062296E+02  0.51100000000E-03 0. -1.
        -11    1    3    3    0    0  0.11505096311E+02  0.13081781989E+01 -0.51247617839E+01  0.12662612485E+02  0.51100000000E-03 0.  1.
         12    1    3    3    0    0  0.45962696938E+01 -0.55506938342E+01 -0.78095220328E+01  0.10626595481E+02  0.00000000000E+00 0. -1.
</event>
<event>
 7    1  0.3742599E-009  0.4778728E+02  0.7816164E-02  0.1312668E+00
        -11   -1    0    0    0    0  0.00000000000E+00  0.00000000000E+00  0.45593999997E+02  0.45594000000E+02  0.51100000000E-03 0.  1.
         11   -1    0    0    0    0 -0.00000000000E+00 -0.00000000000E+00 -0.45593999997E+02  0.45594000000E+02  0.51100000000E-03 0. -1.
    9900012    2    1    2    0    0  0.32459089815E+02 -0.18448957978E+02 -0.22128403837E+02  0.47787276291E+02  0.20000023922E+02 0.  0.
        -12    1    1    2    0    0 -0.32459089815E+02  0.18448957978E+02  0.22128403837E+02  0.43400723709E+02  0.00000000000E+00 0.  1.
         11    1    3    3    0    0  0.91727825208E+01 -0.21108597041E+01 -0.33125331258E+00  0.94183542555E+01  0.51100000000E-03 0. -1.
        -11    1    3    3    0    0  0.50475121305E+00 -0.51718589748E+01 -0.45706366519E+00  0.52164936976E+01  0.51100000000E-03 0.  1.
         12    1    3    3    0    0  0.22781556081E+02 -0.11166239299E+02 -0.21340086859E+02  0.33152428338E+02  0.00000000000E+00 0. -1.
</event>
<event>
 7    1  0.3742599E-009  0.4778727E+02  0.7816164E-02  0.1312668E+00
        -11   -1    0    0    0    0  0.00000000000E+00  0.00000000000E+00  0.45593999997E+02  0.45594000000E+02  0.51100000000E-03 0.  1.
         11   -1    0    0    0    0 -0.00000000000E+00 -0.00000000000E+00 -0.45593999997E+02  0.45594000000E+02  0.51100000000E-03 0. -1.
    9900012    2    1    2    0    0 -0.37290061647E+02  0.90763500607E+01  0.20265598286E+02  0.47787270721E+02  0.19999998524E+02 0.  0.
        -12    1    1    2    0    0  0.37290061647E+02 -0.90763500607E+01 -0.20265598286E+02  0.43400729279E+02  0.00000000000E+00 0.  1.
         11    1    3    3    0    0 -0.26820124760E+02  0.79132586049E+01  0.20738197356E+02  0.34813956738E+02  0.51100000000E-03 0. -1.
        -11    1    3    3    0    0 -0.54311982170E+01 -0.12455403087E+01  0.30677688108E+01  0.63608561114E+01  0.51100000000E-03 0.  1.
         12    1    3    3    0    0 -0.50387386707E+01  0.24086317645E+01 -0.35403678813E+01  0.66124578716E+01  0.00000000000E+00 0. -1.
</event>
<event>
 7    1  0.3742599E-009  0.4778727E+02  0.7816164E-02  0.1312668E+00
        -11   -1    0    0    0    0  0.00000000000E+00  0.00000000000E+00  0.45593999997E+02  0.45594000000E+02  0.51100000000E-03 0.  1.
         11   -1    0    0    0    0 -0.00000000000E+00 -0.00000000000E+00 -0.45593999997E+02  0.45594000000E+02  0.51100000000E-03 0. -1.
    9900012    2    1    2    0    0  0.35525280666E+02 -0.17972186577E+02 -0.17279416904E+02  0.47787270683E+02  0.19999998350E+02 0.  0.
        -12    1    1    2    0    0 -0.35525280666E+02  0.17972186577E+02  0.17279416904E+02  0.43400729317E+02  0.00000000000E+00 0.  1.
         11    1    3    3    0    0  0.23145896063E+01 -0.87205965201E+00 -0.34723349524E+01  0.42632057615E+01  0.51100000000E-03 0. -1.
        -11    1    3    3    0    0  0.15054556788E+02  0.11705863678E+01 -0.21538262984E+01  0.15252833196E+02  0.51100000000E-03 0.  1.
        -12    1    3    3    0    0  0.18156134271E+02 -0.18270713293E+02 -0.11653255654E+02  0.28271231725E+02  0.00000000000E+00 0.  1.
</event>
<event>
 7    1  0.3742599E-009  0.4778727E+02  0.7816164E-02  0.1312668E+00
        -11   -1    0    0    0    0  0.00000000000E+00  0.00000000000E+00  0.45593999997E+02  0.45594000000E+02  0.51100000000E-03 0.  1.
         11   -1    0    0    0    0 -0.00000000000E+00 -0.00000000000E+00 -0.45593999997E+02  0.45594000000E+02  0.51100000000E-03 0. -1.
    9900012    2    1    2    0    0 -0.24432553287E+02 -0.35735543342E+02  0.31055312694E+01  0.47787273710E+02  0.20000012152E+02 0.  0.
        -12    1    1    2    0    0  0.24432553287E+02  0.35735543342E+02 -0.31055312694E+01  0.43400726290E+02  0.00000000000E+00 0.  1.
         11    1    3    3    0    0 -0.61726234249E+01 -0.37765757548E+01  0.26123254505E+01  0.76933769502E+01  0.51100000000E-03 0. -1.
        -11    1    3    3    0    0  0.20518315513E+01 -0.12501319603E+01  0.21695881849E+01  0.32372759824E+01  0.51100000000E-03 0.  1.
         12    1    3    3    0    0 -0.20311761414E+02 -0.30708835626E+02 -0.16763823661E+01  0.36856620777E+02  0.00000000000E+00 0. -1.
</event>
<event>
 7    1  0.3742599E-009  0.4778727E+02  0.7816164E-02  0.1312668E+00
        -11   -1    0    0    0    0  0.00000000000E+00  0.00000000000E+00  0.45593999997E+02  0.45594000000E+02  0.51100000000E-03 0.  1.
         11   -1    0    0    0    0 -0.00000000000E+00 -0.00000000000E+00 -0.45593999997E+02  0.45594000000E+02  0.51100000000E-03 0. -1.
    9900012    2    1    2    0    0 -0.49899362009E+00  0.14507639025E+02 -0.40901133390E+02  0.47787270775E+02  0.19999998771E+02 0.  0.
        -12    1    1    2    0    0  0.49899362009E+00 -0.14507639025E+02  0.40901133390E+02  0.43400729225E+02  0.00000000000E+00 0.  1.
         11    1    3    3    0    0  0.25912227624E+01  0.12385946203E+01 -0.19860898314E+02  0.20067482008E+02  0.51100000000E-03 0. -1.
        -11    1    3    3    0    0  0.41434358168E+01  0.67301701225E+01 -0.12326713655E+02  0.14642783890E+02  0.51100000000E-03 0.  1.
        -12    1    3    3    0    0 -0.72336521993E+01  0.65388742817E+01 -0.87135214207E+01  0.13077004877E+02  0.00000000000E+00 0.  1.
</event>
<event>
 7    1  0.3742599E-009  0.4778727E+02  0.7816164E-02  0.1312668E+00
        -11   -1    0    0    0    0  0.00000000000E+00  0.00000000000E+00  0.45593999997E+02  0.45594000000E+02  0.51100000000E-03 0.  1.
         11   -1    0    0    0    0 -0.00000000000E+00 -0.00000000000E+00 -0.45593999997E+02  0.45594000000E+02  0.51100000000E-03 0. -1.
    9900012    2    1    2    0    0 -0.10811520465E+02  0.28760100055E+02 -0.30652747118E+02  0.47787271483E+02  0.20000002000E+02 0.  0.
        -12    1    1    2    0    0  0.10811520465E+02 -0.28760100055E+02  0.30652747118E+02  0.43400728517E+02  0.00000000000E+00 0.  1.
         11    1    3    3    0    0 -0.53338345295E+01  0.67575107967E+01 -0.44349410672E+01  0.96841336983E+01  0.51100000000E-03 0. -1.
        -11    1    3    3    0    0  0.36815576936E+01  0.23568651123E+01 -0.39568203536E+00  0.43892191496E+01  0.51100000000E-03 0.  1.
         12    1    3    3    0    0 -0.91592436295E+01  0.19645724146E+02 -0.25822124015E+02  0.33713918635E+02  0.00000000000E+00 0. -1.
</event>
<event>
 7    1  0.3742599E-009  0.4778727E+02  0.7816164E-02  0.1312668E+00
        -11   -1    0    0    0    0  0.00000000000E+00  0.00000000000E+00  0.45593999997E+02  0.45594000000E+02  0.51100000000E-03 0.  1.
         11   -1    0    0    0    0 -0.00000000000E+00 -0.00000000000E+00 -0.45593999997E+02  0.45594000000E+02  0.51100000000E-03 0. -1.
    9900012    2    1    2    0    0  0.12671475079E+02  0.96113484928E+01 -0.40381667148E+02  0.47787270258E+02  0.19999996413E+02 0.  0.
        -12    1    1    2    0    0 -0.12671475079E+02 -0.96113484928E+01  0.40381667148E+02  0.43400729742E+02  0.00000000000E+00 0.  1.
         11    1    3    3    0    0  0.12594281320E+02  0.23663472019E+00 -0.28010361455E+02  0.30712412264E+02  0.51100000000E-03 0. -1.
        -11    1    3    3    0    0  0.15000705379E+01  0.77109778444E+01 -0.12626633263E+02  0.14870819034E+02  0.51100000000E-03 0.  1.
        -12    1    3    3    0    0 -0.14228767792E+01  0.16637359283E+01  0.25532757004E+00  0.22040389597E+01  0.00000000000E+00 0.  1.
</event>
<event>
 7    1  0.3742599E-009  0.4778724E+02  0.7816164E-02  0.1312668E+00
        -11   -1    0    0    0    0  0.00000000000E+00  0.00000000000E+00  0.45593999997E+02  0.45594000000E+02  0.51100000000E-03 0. -1.
         11   -1    0    0    0    0 -0.00000000000E+00 -0.00000000000E+00 -0.45593999997E+02  0.45594000000E+02  0.51100000000E-03 0.  1.
    9900012    2    1    2    0    0 -0.15449130647E+02  0.38343411723E+02  0.13218656987E+02  0.47787242485E+02  0.19999869786E+02 0.  0.
        -12    1    1    2    0    0  0.15449130647E+02 -0.38343411723E+02 -0.13218656987E+02  0.43400757515E+02  0.00000000000E+00 0.  1.
         11    1    3    3    0    0 -0.11981251336E+01  0.96582201758E+01  0.48431826932E+01  0.10870746969E+02  0.51100000000E-03 0. -1.
        -11    1    3    3    0    0  0.33149327287E+01  0.88249976997E+01  0.26322875833E+01  0.97876606795E+01  0.51100000000E-03 0.  1.
        -12    1    3    3    0    0 -0.17565938242E+02  0.19860193848E+02  0.57431867108E+01  0.27128834837E+02  0.00000000000E+00 0.  1.
</event>
<event>
 7    1  0.3742599E-009  0.4778727E+02  0.7816164E-02  0.1312668E+00
        -11   -1    0    0    0    0  0.00000000000E+00  0.00000000000E+00  0.45593999997E+02  0.45594000000E+02  0.51100000000E-03 0.  1.
         11   -1    0    0    0    0 -0.00000000000E+00 -0.00000000000E+00 -0.45593999997E+02  0.45594000000E+02  0.51100000000E-03 0. -1.
    9900012    2    1    2    0    0  0.19950929542E+02 -0.12164142503E+02 -0.36573451799E+02  0.47787270410E+02  0.19999997108E+02 0.  0.
        -12    1    1    2    0    0 -0.19950929542E+02  0.12164142503E+02  0.36573451799E+02  0.43400729590E+02  0.00000000000E+00 0.  1.
         11    1    3    3    0    0  0.19592714613E+02 -0.88720700622E+01 -0.18370713120E+02  0.28285529761E+02  0.51100000000E-03 0. -1.
        -11    1    3    3    0    0  0.23294692743E+01 -0.33196781497E+00 -0.26338756969E+01  0.35318452936E+01  0.51100000000E-03 0.  1.
        -12    1    3    3    0    0 -0.19712543452E+01 -0.29601046258E+01 -0.15568862982E+02  0.15969895355E+02  0.00000000000E+00 0.  1.
</event>
<event>
 7    1  0.3742599E-009  0.4778727E+02  0.7816164E-02  0.1312668E+00
        -11   -1    0    0    0    0  0.00000000000E+00  0.00000000000E+00  0.45593999997E+02  0.45594000000E+02  0.51100000000E-03 0.  1.
         11   -1    0    0    0    0 -0.00000000000E+00 -0.00000000000E+00 -0.45593999997E+02  0.45594000000E+02  0.51100000000E-03 0. -1.
    9900012    2    1    2    0    0 -0.40193249436E+01  0.29128689126E+01 -0.43115932473E+02  0.47787269461E+02  0.19999992782E+02 0.  0.
        -12    1    1    2    0    0  0.40193249436E+01 -0.29128689126E+01  0.43115932473E+02  0.43400730539E+02  0.00000000000E+00 0.  1.
         11    1    3    3    0    0 -0.90423799402E+01  0.26570614889E+01 -0.15958382699E+02  0.18533607025E+02  0.51100000000E-03 0. -1.
        -11    1    3    3    0    0 -0.44691019226E+00 -0.37897708075E+01 -0.69105376235E+01  0.78941511260E+01  0.51100000000E-03 0.  1.
        -12    1    3    3    0    0  0.54699651889E+01  0.40455782312E+01 -0.20247012150E+02  0.21359511310E+02  0.00000000000E+00 0.  1.
</event>
<event>
 7    1  0.3742599E-009  0.4778727E+02  0.7816164E-02  0.1312668E+00
        -11   -1    0    0    0    0  0.00000000000E+00  0.00000000000E+00  0.45593999997E+02  0.45594000000E+02  0.51100000000E-03 0. -1.
         11   -1    0    0    0    0 -0.00000000000E+00 -0.00000000000E+00 -0.45593999997E+02  0.45594000000E+02  0.51100000000E-03 0.  1.
    9900012    2    1    2    0    0  0.40926440750E+01  0.36216743399E+02  0.23563132996E+02  0.47787268733E+02  0.19999989461E+02 0.  0.
        -12    1    1    2    0    0 -0.40926440750E+01 -0.36216743399E+02 -0.23563132996E+02  0.43400731267E+02  0.00000000000E+00 0.  1.
         11    1    3    3    0    0  0.38841935259E+00  0.38032178129E+00  0.14938927181E+01  0.15897263806E+01  0.51100000000E-03 0.  1.
        -11    1    3    3    0    0  0.10678589715E+02  0.14418526054E+02  0.11541970632E+02  0.21334086768E+02  0.51100000000E-03 0. -1.
         12    1    3    3    0    0 -0.69743649930E+01  0.21417895563E+02  0.10527269646E+02  0.24863455585E+02  0.00000000000E+00 0. -1.
</event>
<event>
 7    1  0.3742599E-009  0.4778727E+02  0.7816164E-02  0.1312668E+00
        -11   -1    0    0    0    0  0.00000000000E+00  0.00000000000E+00  0.45593999997E+02  0.45594000000E+02  0.51100000000E-03 0.  1.
         11   -1    0    0    0    0 -0.00000000000E+00 -0.00000000000E+00 -0.45593999997E+02  0.45594000000E+02  0.51100000000E-03 0. -1.
    9900012    2    1    2    0    0  0.24844981259E+02  0.28595018345E+02 -0.21181953993E+02  0.47787270250E+02  0.19999996376E+02 0.  0.
        -12    1    1    2    0    0 -0.24844981259E+02 -0.28595018345E+02  0.21181953993E+02  0.43400729750E+02  0.00000000000E+00 0.  1.
         11    1    3    3    0    0  0.25266984433E+02  0.21011821849E+02 -0.16567753207E+02  0.36802277189E+02  0.51100000000E-03 0. -1.
        -11    1    3    3    0    0  0.23792885705E+01  0.56697027626E+01 -0.13879833918E+01  0.63034150803E+01  0.51100000000E-03 0.  1.
        -12    1    3    3    0    0 -0.28012917445E+01  0.19134937334E+01 -0.32262173944E+01  0.46815779799E+01  0.00000000000E+00 0.  1.
</event>
<event>
 7    1  0.3742599E-009  0.4778727E+02  0.7816164E-02  0.1312668E+00
        -11   -1    0    0    0    0  0.00000000000E+00  0.00000000000E+00  0.45593999997E+02  0.45594000000E+02  0.51100000000E-03 0.  1.
         11   -1    0    0    0    0 -0.00000000000E+00 -0.00000000000E+00 -0.45593999997E+02  0.45594000000E+02  0.51100000000E-03 0. -1.
    9900012    2    1    2    0    0 -0.22249286636E+00 -0.15275824659E+02 -0.40622935306E+02  0.47787271954E+02  0.20000004147E+02 0.  0.
        -12    1    1    2    0    0  0.22249286636E+00  0.15275824659E+02  0.40622935306E+02  0.43400728046E+02  0.00000000000E+00 0.  1.
         11    1    3    3    0    0 -0.15628841289E+01 -0.20492548543E+01 -0.18024000810E+02  0.18207324287E+02  0.51100000000E-03 0. -1.
        -11    1    3    3    0    0 -0.23908899643E+01  0.13796755663E+01 -0.46423317909E+00  0.27991734843E+01  0.51100000000E-03 0.  1.
        -12    1    3    3    0    0  0.37312812268E+01 -0.14606245371E+02 -0.22134701317E+02  0.26780774182E+02  0.00000000000E+00 0.  1.
</event>
<event>
 7    1  0.3742599E-009  0.4778727E+02  0.7816164E-02  0.1312668E+00
        -11   -1    0    0    0    0  0.00000000000E+00  0.00000000000E+00  0.45593999997E+02  0.45594000000E+02  0.51100000000E-03 0. -1.
         11   -1    0    0    0    0 -0.00000000000E+00 -0.00000000000E+00 -0.45593999997E+02  0.45594000000E+02  0.51100000000E-03 0.  1.
    9900012    2    1    2    0    0 -0.14686618550E+02 -0.10952030236E+02  0.39344374158E+02  0.47787268340E+02  0.19999987671E+02 0.  0.
        -12    1    1    2    0    0  0.14686618550E+02  0.10952030236E+02 -0.39344374158E+02  0.43400731660E+02  0.00000000000E+00 0.  1.
         11    1    3    3    0    0 -0.52221418949E+01 -0.23176224422E+01  0.32944008794E+01  0.65950903838E+01  0.51100000000E-03 0. -1.
        -11    1    3    3    0    0 -0.96252778197E+01  0.13925762381E+01  0.20484256049E+02  0.22675757712E+02  0.51100000000E-03 0.  1.
         12    1    3    3    0    0  0.16080116482E+00 -0.10026984031E+02  0.15565717230E+02  0.18516420244E+02  0.00000000000E+00 0. -1.
</event>
<event>
 7    1  0.3742599E-009  0.4778727E+02  0.7816164E-02  0.1312668E+00
        -11   -1    0    0    0    0  0.00000000000E+00  0.00000000000E+00  0.45593999997E+02  0.45594000000E+02  0.51100000000E-03 0.  1.
         11   -1    0    0    0    0 -0.00000000000E+00 -0.00000000000E+00 -0.45593999997E+02  0.45594000000E+02  0.51100000000E-03 0. -1.
    9900012    2    1    2    0    0  0.23214473873E+02 -0.33976149264E+02 -0.13796116596E+02  0.47787270177E+02  0.19999996046E+02 0.  0.
        -12    1    1    2    0    0 -0.23214473873E+02  0.33976149264E+02  0.13796116596E+02  0.43400729823E+02  0.00000000000E+00 0.  1.
         11    1    3    3    0    0  0.17015903382E+02 -0.18870213110E+02 -0.82917434662E+00  0.25422695393E+02  0.51100000000E-03 0. -1.
        -11    1    3    3    0    0 -0.13656239051E+01 -0.27743132662E+01 -0.24871128447E+00  0.31021928233E+01  0.51100000000E-03 0.  1.
        -12    1    3    3    0    0  0.75641943964E+01 -0.12331622889E+02 -0.12718230965E+02  0.19262381961E+02  0.00000000000E+00 0.  1.
</event>
<event>
 7    1  0.3742599E-009  0.4778727E+02  0.7816164E-02  0.1312668E+00
        -11   -1    0    0    0    0  0.00000000000E+00  0.00000000000E+00  0.45593999997E+02  0.45594000000E+02  0.51100000000E-03 0. -1.
         11   -1    0    0    0    0 -0.00000000000E+00 -0.00000000000E+00 -0.45593999997E+02  0.45594000000E+02  0.51100000000E-03 0.  1.
    9900012    2    1    2    0    0 -0.34470249548E+02  0.26346278615E+02  0.11396134249E+01  0.47787271671E+02  0.20000002855E+02 0.  0.
        -12    1    1    2    0    0  0.34470249548E+02 -0.26346278615E+02 -0.11396134249E+01  0.43400728329E+02  0.00000000000E+00 0.  1.
         11    1    3    3    0    0 -0.12112354596E+02  0.14489927909E+02 -0.22378784135E+01  0.19017761296E+02  0.51100000000E-03 0.  1.
        -11    1    3    3    0    0 -0.66614294846E+01  0.10165873087E+02  0.44569280271E+01  0.12945417185E+02  0.51100000000E-03 0. -1.
        -12    1    3    3    0    0 -0.15696465468E+02  0.16904776179E+01 -0.10794361886E+01  0.15824093189E+02  0.00000000000E+00 0.  1.
</event>
<event>
 7    1  0.3742599E-009  0.4778728E+02  0.7816164E-02  0.1312668E+00
        -11   -1    0    0    0    0  0.00000000000E+00  0.00000000000E+00  0.45593999997E+02  0.45594000000E+02  0.51100000000E-03 0.  1.
         11   -1    0    0    0    0 -0.00000000000E+00 -0.00000000000E+00 -0.45593999997E+02  0.45594000000E+02  0.51100000000E-03 0. -1.
    9900012    2    1    2    0    0  0.33582146210E+02  0.82042708220E+01 -0.26240279976E+02  0.47787275386E+02  0.20000019795E+02 0.  0.
        -12    1    1    2    0    0 -0.33582146210E+02 -0.82042708220E+01  0.26240279976E+02  0.43400724614E+02  0.00000000000E+00 0.  1.
         11    1    3    3    0    0  0.25588027782E+01  0.30046205738E+01 -0.47640958591E+01  0.61864227196E+01  0.51100000000E-03 0. -1.
        -11    1    3    3    0    0  0.92511806529E+01  0.32577779360E+01  0.14610324901E+01  0.99162531609E+01  0.51100000000E-03 0.  1.
        -12    1    3    3    0    0  0.21772162779E+02  0.19418723123E+01 -0.22937216607E+02  0.31684599506E+02  0.00000000000E+00 0.  1.
</event>
<event>
 7    1  0.3742599E-009  0.4778727E+02  0.7816164E-02  0.1312668E+00
        -11   -1    0    0    0    0  0.00000000000E+00  0.00000000000E+00  0.45593999997E+02  0.45594000000E+02  0.51100000000E-03 0.  1.
         11   -1    0    0    0    0 -0.00000000000E+00 -0.00000000000E+00 -0.45593999997E+02  0.45594000000E+02  0.51100000000E-03 0. -1.
    9900012    2    1    2    0    0 -0.46746209611E+01 -0.29396409410E+01 -0.43047993868E+02  0.47787270213E+02  0.19999996208E+02 0.  0.
        -12    1    1    2    0    0  0.46746209611E+01  0.29396409410E+01  0.43047993868E+02  0.43400729787E+02  0.00000000000E+00 0.  1.
         11    1    3    3    0    0 -0.28801454724E+01 -0.57361823742E+01 -0.14161293547E+02  0.15548030787E+02  0.51100000000E-03 0. -1.
        -11    1    3    3    0    0 -0.28010201353E+01 -0.53286434251E+01 -0.10319562606E+02  0.11947113760E+02  0.51100000000E-03 0.  1.
        -12    1    3    3    0    0  0.10065446466E+01  0.81251848584E+01 -0.18567137715E+02  0.20292125666E+02  0.00000000000E+00 0.  1.
</event>
<event>
 7    1  0.3742599E-009  0.4778727E+02  0.7816164E-02  0.1312668E+00
        -11   -1    0    0    0    0  0.00000000000E+00  0.00000000000E+00  0.45593999997E+02  0.45594000000E+02  0.51100000000E-03 0.  1.
         11   -1    0    0    0    0 -0.00000000000E+00 -0.00000000000E+00 -0.45593999997E+02  0.45594000000E+02  0.51100000000E-03 0. -1.
    9900012    2    1    2    0    0 -0.35400524757E+02  0.24097576491E+02 -0.70521800831E+01  0.47787267406E+02  0.19999983410E+02 0.  0.
        -12    1    1    2    0    0  0.35400524757E+02 -0.24097576491E+02  0.70521800831E+01  0.43400732594E+02  0.00000000000E+00 0.  1.
         11    1    3    3    0    0 -0.91735641857E+01  0.10635376210E+02 -0.58493084968E+01  0.15214464077E+02  0.51100000000E-03 0. -1.
        -11    1    3    3    0    0 -0.43858389531E+01  0.12099165600E+01 -0.55275160134E+01  0.71591141173E+01  0.51100000000E-03 0.  1.
         12    1    3    3    0    0 -0.21841121618E+02  0.12252283721E+02  0.43246444272E+01  0.25413689211E+02  0.00000000000E+00 0. -1.
</event>
<event>
 7    1  0.3742599E-009  0.4778728E+02  0.7816164E-02  0.1312668E+00
        -11   -1    0    0    0    0  0.00000000000E+00  0.00000000000E+00  0.45593999997E+02  0.45594000000E+02  0.51100000000E-03 0.  1.
         11   -1    0    0    0    0 -0.00000000000E+00 -0.00000000000E+00 -0.45593999997E+02  0.45594000000E+02  0.51100000000E-03 0. -1.
    9900012    2    1    2    0    0 -0.89503328023E+00  0.18099927515E+02 -0.39436206879E+02  0.47787275656E+02  0.20000021025E+02 0.  0.
        -12    1    1    2    0    0  0.89503328023E+00 -0.18099927515E+02  0.39436206879E+02  0.43400724344E+02  0.00000000000E+00 0.  1.
         11    1    3    3    0    0  0.37386041409E+01  0.45397831884E+01 -0.44424144695E+01  0.73703350602E+01  0.51100000000E-03 0. -1.
        -11    1    3    3    0    0 -0.77119065859E+01  0.23349053224E+01 -0.99734234157E+01  0.12821640338E+02  0.51100000000E-03 0.  1.
         12    1    3    3    0    0  0.30782691648E+01  0.11225239004E+02 -0.25020368994E+02  0.27595300258E+02  0.00000000000E+00 0. -1.
</event>
<event>
 7    1  0.3742599E-009  0.4778728E+02  0.7816164E-02  0.1312668E+00
        -11   -1    0    0    0    0  0.00000000000E+00  0.00000000000E+00  0.45593999997E+02  0.45594000000E+02  0.51100000000E-03 0.  1.
         11   -1    0    0    0    0 -0.00000000000E+00 -0.00000000000E+00 -0.45593999997E+02  0.45594000000E+02  0.51100000000E-03 0. -1.
    9900012    2    1    2    0    0 -0.29727071301E+02 -0.76344707322E+01 -0.30686131055E+02  0.47787279377E+02  0.20000037991E+02 0.  0.
        -12    1    1    2    0    0  0.29727071301E+02  0.76344707322E+01  0.30686131055E+02  0.43400720623E+02  0.00000000000E+00 0.  1.
         11    1    3    3    0    0 -0.22689458844E+02 -0.11395831097E+02 -0.28624764911E+02  0.38262954349E+02  0.51100000000E-03 0. -1.
        -11    1    3    3    0    0 -0.23071981258E+01 -0.75582237719E+00 -0.17186221272E+01  0.29745744124E+01  0.51100000000E-03 0.  1.
        -12    1    3    3    0    0 -0.47304143311E+01  0.45171827419E+01 -0.34274401663E+00  0.65497506158E+01  0.00000000000E+00 0.  1.
</event>
<event>
 7    1  0.3742599E-009  0.4778724E+02  0.7816164E-02  0.1312668E+00
        -11   -1    0    0    0    0  0.00000000000E+00  0.00000000000E+00  0.45593999997E+02  0.45594000000E+02  0.51100000000E-03 0.  1.
         11   -1    0    0    0    0 -0.00000000000E+00 -0.00000000000E+00 -0.45593999997E+02  0.45594000000E+02  0.51100000000E-03 0. -1.
    9900012    2    1    2    0    0  0.19599436390E+02 -0.36353198178E+01 -0.38552199882E+02  0.47787244560E+02  0.19999879248E+02 0.  0.
        -12    1    1    2    0    0 -0.19599436390E+02  0.36353198178E+01  0.38552199882E+02  0.43400755440E+02  0.00000000000E+00 0.  1.
         11    1    3    3    0    0  0.20365253855E+01  0.16704100580E+00 -0.13508424463E+02  0.13662096109E+02  0.51100000000E-03 0. -1.
        -11    1    3    3    0    0  0.72578309855E+01 -0.79925262407E+01 -0.17902369575E+02  0.20905774872E+02  0.51100000000E-03 0.  1.
        -12    1    3    3    0    0  0.10305080019E+02  0.41901654171E+01 -0.71414058436E+01  0.13219373580E+02  0.00000000000E+00 0.  1.
</event>
<event>
 7    1  0.3742599E-009  0.4778727E+02  0.7816164E-02  0.1312668E+00
        -11   -1    0    0    0    0  0.00000000000E+00  0.00000000000E+00  0.45593999997E+02  0.45594000000E+02  0.51100000000E-03 0.  1.
         11   -1    0    0    0    0 -0.00000000000E+00 -0.00000000000E+00 -0.45593999997E+02  0.45594000000E+02  0.51100000000E-03 0. -1.
    9900012    2    1    2    0    0  0.10605035927E+02  0.32951544849E+01 -0.41955910930E+02  0.47787270835E+02  0.19999999047E+02 0.  0.
        -12    1    1    2    0    0 -0.10605035927E+02 -0.32951544849E+01  0.41955910930E+02  0.43400729165E+02  0.00000000000E+00 0.  1.
         11    1    3    3    0    0  0.70217436559E+01  0.64225116785E+01 -0.13565253697E+02  0.16570143281E+02  0.51100000000E-03 0. -1.
        -11    1    3    3    0    0 -0.24480480723E+01  0.23451036123E+01 -0.29136117861E+01  0.44700765338E+01  0.51100000000E-03 0.  1.
         12    1    3    3    0    0  0.60313403436E+01 -0.54724608059E+01 -0.25477045447E+02  0.26747051021E+02  0.00000000000E+00 0. -1.
</event>
<event>
 7    1  0.3742599E-009  0.4778727E+02  0.7816164E-02  0.1312668E+00
        -11   -1    0    0    0    0  0.00000000000E+00  0.00000000000E+00  0.45593999997E+02  0.45594000000E+02  0.51100000000E-03 0.  1.
         11   -1    0    0    0    0 -0.00000000000E+00 -0.00000000000E+00 -0.45593999997E+02  0.45594000000E+02  0.51100000000E-03 0. -1.
    9900012    2    1    2    0    0  0.16029162214E+02 -0.12832104335E+02 -0.38236452262E+02  0.47787271613E+02  0.20000002592E+02 0.  0.
        -12    1    1    2    0    0 -0.16029162214E+02  0.12832104335E+02  0.38236452262E+02  0.43400728387E+02  0.00000000000E+00 0.  1.
         11    1    3    3    0    0  0.12930474777E+02 -0.52067443231E+01 -0.11985201495E+02  0.18383482248E+02  0.51100000000E-03 0. -1.
        -11    1    3    3    0    0  0.49149514370E+01  0.46940958089E+00 -0.91808235442E+01  0.10424232067E+02  0.51100000000E-03 0.  1.
        -12    1    3    3    0    0 -0.18162639998E+01 -0.80947695925E+01 -0.17070427222E+02  0.18979557298E+02  0.00000000000E+00 0.  1.
</event>
<event>
 7    1  0.3742599E-009  0.4778727E+02  0.7816164E-02  0.1312668E+00
        -11   -1    0    0    0    0  0.00000000000E+00  0.00000000000E+00  0.45593999997E+02  0.45594000000E+02  0.51100000000E-03 0.  1.
         11   -1    0    0    0    0 -0.00000000000E+00 -0.00000000000E+00 -0.45593999997E+02  0.45594000000E+02  0.51100000000E-03 0. -1.
    9900012    2    1    2    0    0  0.14913364171E+02  0.29386268150E+02 -0.28242908590E+02  0.47787273367E+02  0.20000010588E+02 0.  0.
        -12    1    1    2    0    0 -0.14913364171E+02 -0.29386268150E+02  0.28242908590E+02  0.43400726633E+02  0.00000000000E+00 0.  1.
         11    1    3    3    0    0  0.40875379167E+01  0.60852598672E+01 -0.13536858955E+02  0.15394314032E+02  0.51100000000E-03 0. -1.
        -11    1    3    3    0    0  0.31759871526E+00  0.34576573435E+01 -0.83707859509E+01  0.90623573614E+01  0.51100000000E-03 0.  1.
        -12    1    3    3    0    0  0.10508227539E+02  0.19843350939E+02 -0.63352636840E+01  0.23330601974E+02  0.00000000000E+00 0.  1.
</event>
<event>
 7    1  0.3742599E-009  0.4778727E+02  0.7816164E-02  0.1312668E+00
        -11   -1    0    0    0    0  0.00000000000E+00  0.00000000000E+00  0.45593999997E+02  0.45594000000E+02  0.51100000000E-03 0.  1.
         11   -1    0    0    0    0 -0.00000000000E+00 -0.00000000000E+00 -0.45593999997E+02  0.45594000000E+02  0.51100000000E-03 0. -1.
    9900012    2    1    2    0    0  0.25672359541E+02 -0.12331355412E+02 -0.32748907669E+02  0.47787270465E+02  0.19999997356E+02 0.  0.
        -12    1    1    2    0    0 -0.25672359541E+02  0.12331355412E+02  0.32748907669E+02  0.43400729535E+02  0.00000000000E+00 0.  1.
         11    1    3    3    0    0  0.67232476276E+01  0.21359629975E+00 -0.17340218924E+01  0.69465469282E+01  0.51100000000E-03 0.  1.
        -11    1    3    3    0    0  0.44635085098E+01 -0.90425460547E+01 -0.60323133987E+01  0.11750717109E+02  0.51100000000E-03 0. -1.
         12    1    3    3    0    0  0.14485603404E+02 -0.35024056569E+01 -0.24982572377E+02  0.29090006428E+02  0.00000000000E+00 0. -1.
</event>
<event>
 7    1  0.3742599E-009  0.4778727E+02  0.7816164E-02  0.1312668E+00
        -11   -1    0    0    0    0  0.00000000000E+00  0.00000000000E+00  0.45593999997E+02  0.45594000000E+02  0.51100000000E-03 0.  1.
         11   -1    0    0    0    0 -0.00000000000E+00 -0.00000000000E+00 -0.45593999997E+02  0.45594000000E+02  0.51100000000E-03 0. -1.
    9900012    2    1    2    0    0  0.34719557932E+02 -0.24257545680E+02 -0.94734980350E+01  0.47787269702E+02  0.19999993878E+02 0.  0.
        -12    1    1    2    0    0 -0.34719557932E+02  0.24257545680E+02  0.94734980350E+01  0.43400730298E+02  0.00000000000E+00 0.  1.
         11    1    3    3    0    0  0.25572051580E+02 -0.13608029900E+02 -0.98554914499E+00  0.28984126814E+02  0.51100000000E-03 0. -1.
        -11    1    3    3    0    0  0.67686048042E+01 -0.12465792097E+01 -0.21247986198E+01  0.72029674550E+01  0.51100000000E-03 0.  1.
        -12    1    3    3    0    0  0.23789015476E+01 -0.94029365702E+01 -0.63631502702E+01  0.11600175433E+02  0.00000000000E+00 0.  1.
</event>
<event>
 7    1  0.3742599E-009  0.4778727E+02  0.7816164E-02  0.1312668E+00
        -11   -1    0    0    0    0  0.00000000000E+00  0.00000000000E+00  0.45593999997E+02  0.45594000000E+02  0.51100000000E-03 0.  1.
         11   -1    0    0    0    0 -0.00000000000E+00 -0.00000000000E+00 -0.45593999997E+02  0.45594000000E+02  0.51100000000E-03 0. -1.
    9900012    2    1    2    0    0 -0.24948936221E+02  0.12877444359E+02 -0.33096002386E+02  0.47787269986E+02  0.19999995176E+02 0.  0.
        -12    1    1    2    0    0  0.24948936221E+02 -0.12877444359E+02  0.33096002386E+02  0.43400730014E+02  0.00000000000E+00 0.  1.
         11    1    3    3    0    0 -0.33536291987E+01 -0.33118864759E+00 -0.41977953306E+01  0.53831218285E+01  0.51100000000E-03 0. -1.
        -11    1    3    3    0    0 -0.60848662017E+01 -0.38582180137E+01 -0.11270981321E+02  0.13377087244E+02  0.51100000000E-03 0.  1.
         12    1    3    3    0    0 -0.15510440821E+02  0.17066851020E+02 -0.17627225734E+02  0.29027060914E+02  0.00000000000E+00 0. -1.
</event>
<event>
 7    1  0.3742599E-009  0.4778727E+02  0.7816164E-02  0.1312668E+00
        -11   -1    0    0    0    0  0.00000000000E+00  0.00000000000E+00  0.45593999997E+02  0.45594000000E+02  0.51100000000E-03 0. -1.
         11   -1    0    0    0    0 -0.00000000000E+00 -0.00000000000E+00 -0.45593999997E+02  0.45594000000E+02  0.51100000000E-03 0.  1.
    9900012    2    1    2    0    0  0.11704861304E+02 -0.36905663341E+02  0.19611013196E+02  0.47787267249E+02  0.19999982695E+02 0.  0.
        -12    1    1    2    0    0 -0.11704861304E+02  0.36905663341E+02 -0.19611013196E+02  0.43400732751E+02  0.00000000000E+00 0.  1.
         11    1    3    3    0    0  0.23428287401E+01 -0.37869788340E+01  0.77736849631E+01  0.89588075859E+01  0.51100000000E-03 0. -1.
        -11    1    3    3    0    0 -0.33882125425E+01 -0.59862090364E+01  0.34667938419E+01  0.77028139445E+01  0.51100000000E-03 0.  1.
         12    1    3    3    0    0  0.12750245106E+02 -0.27132475470E+02  0.83705343911E+01  0.31125645719E+02  0.00000000000E+00 0. -1.
</event>
<event>
 7    1  0.3742599E-009  0.4778727E+02  0.7816164E-02  0.1312668E+00
        -11   -1    0    0    0    0  0.00000000000E+00  0.00000000000E+00  0.45593999997E+02  0.45594000000E+02  0.51100000000E-03 0.  1.
         11   -1    0    0    0    0 -0.00000000000E+00 -0.00000000000E+00 -0.45593999997E+02  0.45594000000E+02  0.51100000000E-03 0. -1.
    9900012    2    1    2    0    0 -0.10224456938E+02 -0.33463616067E+02 -0.25676250626E+02  0.47787274589E+02  0.20000016163E+02 0.  0.
        -12    1    1    2    0    0  0.10224456938E+02  0.33463616067E+02  0.25676250626E+02  0.43400725411E+02  0.00000000000E+00 0.  1.
         11    1    3    3    0    0 -0.34427798617E+00  0.12495882661E+01 -0.24163077296E+01  0.27419958920E+01  0.51100000000E-03 0. -1.
        -11    1    3    3    0    0  0.24363065394E+01 -0.93188755035E+01 -0.99235726414E+01  0.13829473035E+02  0.51100000000E-03 0.  1.
         12    1    3    3    0    0 -0.12316485491E+02 -0.25394328829E+02 -0.13336370255E+02  0.31215805662E+02  0.00000000000E+00 0. -1.
</event>
<event>
 7    1  0.3742599E-009  0.4778727E+02  0.7816164E-02  0.1312668E+00
        -11   -1    0    0    0    0  0.00000000000E+00  0.00000000000E+00  0.45593999997E+02  0.45594000000E+02  0.51100000000E-03 0. -1.
         11   -1    0    0    0    0 -0.00000000000E+00 -0.00000000000E+00 -0.45593999997E+02  0.45594000000E+02  0.51100000000E-03 0.  1.
    9900012    2    1    2    0    0  0.21431777047E+02 -0.31849249777E+02  0.20246661495E+02  0.47787273273E+02  0.20000010161E+02 0.  0.
        -12    1    1    2    0    0 -0.21431777047E+02  0.31849249777E+02 -0.20246661495E+02  0.43400726727E+02  0.00000000000E+00 0.  1.
         11    1    3    3    0    0  0.11028774012E+02 -0.20259107145E+02  0.80890101931E+01  0.24443759217E+02  0.51100000000E-03 0. -1.
        -11    1    3    3    0    0  0.78524453171E+01 -0.58976686873E+01  0.16077251440E+00  0.98218756592E+01  0.51100000000E-03 0.  1.
         12    1    3    3    0    0  0.25505577179E+01 -0.56924739448E+01  0.11996878787E+02  0.13521638396E+02  0.00000000000E+00 0. -1.
</event>
<event>
 7    1  0.3742599E-009  0.4778727E+02  0.7816164E-02  0.1312668E+00
        -11   -1    0    0    0    0  0.00000000000E+00  0.00000000000E+00  0.45593999997E+02  0.45594000000E+02  0.51100000000E-03 0.  1.
         11   -1    0    0    0    0 -0.00000000000E+00 -0.00000000000E+00 -0.45593999997E+02  0.45594000000E+02  0.51100000000E-03 0. -1.
    9900012    2    1    2    0    0  0.23621191714E+02 -0.14776718652E+02 -0.33276291601E+02  0.47787266195E+02  0.19999977887E+02 0.  0.
        -12    1    1    2    0    0 -0.23621191714E+02  0.14776718652E+02  0.33276291601E+02  0.43400733805E+02  0.00000000000E+00 0.  1.
         11    1    3    3    0    0  0.21717847774E+02 -0.11928899676E+02 -0.22058827567E+02  0.33174620319E+02  0.51100000000E-03 0. -1.
        -11    1    3    3    0    0  0.25894013417E+01 -0.49032794913E+01 -0.11140682479E+02  0.12444354360E+02  0.51100000000E-03 0.  1.
        -12    1    3    3    0    0 -0.68605740147E+00  0.20554605157E+01 -0.76781555572E-01  0.21682915157E+01  0.00000000000E+00 0.  1.
</event>
<event>
 7    1  0.3742599E-009  0.4778727E+02  0.7816164E-02  0.1312668E+00
        -11   -1    0    0    0    0  0.00000000000E+00  0.00000000000E+00  0.45593999997E+02  0.45594000000E+02  0.51100000000E-03 0.  1.
         11   -1    0    0    0    0 -0.00000000000E+00 -0.00000000000E+00 -0.45593999997E+02  0.45594000000E+02  0.51100000000E-03 0. -1.
    9900012    2    1    2    0    0 -0.12102516321E+02  0.37438682415E+02 -0.18316593620E+02  0.47787269083E+02  0.19999991056E+02 0.  0.
        -12    1    1    2    0    0  0.12102516321E+02 -0.37438682415E+02  0.18316593620E+02  0.43400730917E+02  0.00000000000E+00 0.  1.
         11    1    3    3    0    0 -0.39307365366E+01  0.10203785275E+02 -0.10376707372E+02  0.15074613753E+02  0.51100000000E-03 0. -1.
        -11    1    3    3    0    0 -0.11661372902E+02  0.24291727715E+02 -0.81242604468E+01  0.28143902740E+02  0.51100000000E-03 0.  1.
        -12    1    3    3    0    0  0.34895931171E+01  0.29431694249E+01  0.18437419836E+00  0.45687525903E+01  0.00000000000E+00 0.  1.
</event>
<event>
 7    1  0.3742599E-009  0.4778727E+02  0.7816164E-02  0.1312668E+00
        -11   -1    0    0    0    0  0.00000000000E+00  0.00000000000E+00  0.45593999997E+02  0.45594000000E+02  0.51100000000E-03 0. -1.
         11   -1    0    0    0    0 -0.00000000000E+00 -0.00000000000E+00 -0.45593999997E+02  0.45594000000E+02  0.51100000000E-03 0.  1.
    9900012    2    1    2    0    0  0.21258101113E+02  0.36465893279E+02  0.10097290861E+02  0.47787268229E+02  0.19999987162E+02 0.  0.
        -12    1    1    2    0    0 -0.21258101113E+02 -0.36465893279E+02 -0.10097290861E+02  0.43400731771E+02  0.00000000000E+00 0.  1.
         11    1    3    3    0    0  0.18736242360E+01  0.12855305340E+01  0.42488856316E+01  0.48183073691E+01  0.51100000000E-03 0. -1.
        -11    1    3    3    0    0  0.58429330161E+01  0.12593629539E+01  0.16740730596E+01  0.62071235004E+01  0.51100000000E-03 0.  1.
         12    1    3    3    0    0  0.13541543860E+02  0.33920999791E+02  0.41743321696E+01  0.36761837359E+02  0.00000000000E+00 0. -1.
</event>
<event>
 7    1  0.3742599E-009  0.4778728E+02  0.7816164E-02  0.1312668E+00
        -11   -1    0    0    0    0  0.00000000000E+00  0.00000000000E+00  0.45593999997E+02  0.45594000000E+02  0.51100000000E-03 0.  1.
         11   -1    0    0    0    0 -0.00000000000E+00 -0.00000000000E+00 -0.45593999997E+02  0.45594000000E+02  0.51100000000E-03 0. -1.
    9900012    2    1    2    0    0 -0.29099615187E+02  0.43962230352E+01 -0.31898408665E+02  0.47787275854E+02  0.20000021930E+02 0.  0.
        -12    1    1    2    0    0  0.29099615187E+02 -0.43962230352E+01  0.31898408665E+02  0.43400724146E+02  0.00000000000E+00 0.  1.
         11    1    3    3    0    0 -0.33199831503E+01 -0.36101209060E+01 -0.45173091175E+01  0.66679339378E+01  0.51100000000E-03 0. -1.
        -11    1    3    3    0    0 -0.34884751137E+01  0.41554307239E+01 -0.13571757026E+02  0.14616075128E+02  0.51100000000E-03 0.  1.
        -12    1    3    3    0    0 -0.22291156923E+02  0.38509132172E+01 -0.13809342521E+02  0.26503266788E+02  0.00000000000E+00 0.  1.
</event>
<event>
 7    1  0.3742599E-009  0.4778727E+02  0.7816164E-02  0.1312668E+00
        -11   -1    0    0    0    0  0.00000000000E+00  0.00000000000E+00  0.45593999997E+02  0.45594000000E+02  0.51100000000E-03 0.  1.
         11   -1    0    0    0    0 -0.00000000000E+00 -0.00000000000E+00 -0.45593999997E+02  0.45594000000E+02  0.51100000000E-03 0. -1.
    9900012    2    1    2    0    0 -0.27472979001E+02 -0.18430733989E+02 -0.28092106031E+02  0.47787274755E+02  0.20000016917E+02 0.  0.
        -12    1    1    2    0    0  0.27472979001E+02  0.18430733989E+02  0.28092106031E+02  0.43400725245E+02  0.00000000000E+00 0.  1.
         11    1    3    3    0    0 -0.16335441067E+01 -0.42503478725E+01 -0.10304512919E+02  0.11265740550E+02  0.51100000000E-03 0. -1.
        -11    1    3    3    0    0 -0.16484492091E+02 -0.10377341262E+02 -0.17853344575E+02  0.26422899234E+02  0.51100000000E-03 0.  1.
        -12    1    3    3    0    0 -0.93549428035E+01 -0.38030448545E+01  0.65751462840E-01  0.10098634971E+02  0.00000000000E+00 0.  1.
</event>
<event>
 7    1  0.3742599E-009  0.4778724E+02  0.7816164E-02  0.1312668E+00
        -11   -1    0    0    0    0  0.00000000000E+00  0.00000000000E+00  0.45593999997E+02  0.45594000000E+02  0.51100000000E-03 0. -1.
         11   -1    0    0    0    0 -0.00000000000E+00 -0.00000000000E+00 -0.45593999997E+02  0.45594000000E+02  0.51100000000E-03 0.  1.
    9900012    2    1    2    0    0 -0.17313087795E+02  0.35103510180E+02  0.18751705216E+02  0.47787240969E+02  0.19999862872E+02 0.  0.
        -12    1    1    2    0    0  0.17313087795E+02 -0.35103510180E+02 -0.18751705216E+02  0.43400759031E+02  0.00000000000E+00 0.  1.
         11    1    3    3    0    0 -0.50449423014E+01  0.33934568703E+01  0.27137849816E+01  0.66581995721E+01  0.51100000000E-03 0. -1.
        -11    1    3    3    0    0 -0.13875067619E+02  0.14253418250E+02  0.11671542706E+02  0.23063008101E+02  0.51100000000E-03 0.  1.
         12    1    3    3    0    0  0.16069221253E+01  0.17456635060E+02  0.43663775292E+01  0.18066033296E+02  0.00000000000E+00 0. -1.
</event>
<event>
 7    1  0.3742599E-009  0.4778727E+02  0.7816164E-02  0.1312668E+00
        -11   -1    0    0    0    0  0.00000000000E+00  0.00000000000E+00  0.45593999997E+02  0.45594000000E+02  0.51100000000E-03 0.  1.
         11   -1    0    0    0    0 -0.00000000000E+00 -0.00000000000E+00 -0.45593999997E+02  0.45594000000E+02  0.51100000000E-03 0. -1.
    9900012    2    1    2    0    0 -0.31773437143E+02 -0.23241263007E+00 -0.29563801321E+02  0.47787266457E+02  0.19999979083E+02 0.  0.
        -12    1    1    2    0    0  0.31773437143E+02  0.23241263007E+00  0.29563801321E+02  0.43400733543E+02  0.00000000000E+00 0.  1.
         11    1    3    3    0    0 -0.69782533365E+01  0.23224400983E+01 -0.87637817075E+01  0.11440874867E+02  0.51100000000E-03 0. -1.
        -11    1    3    3    0    0 -0.69389609155E+00 -0.51154955827E+01 -0.15353324671E+01  0.53858177548E+01  0.51100000000E-03 0.  1.
        -12    1    3    3    0    0 -0.24101287715E+02  0.25606428543E+01 -0.19264687146E+02  0.30960573835E+02  0.00000000000E+00 0.  1.
</event>
<event>
 7    1  0.3742599E-009  0.4778727E+02  0.7816164E-02  0.1312668E+00
        -11   -1    0    0    0    0  0.00000000000E+00  0.00000000000E+00  0.45593999997E+02  0.45594000000E+02  0.51100000000E-03 0. -1.
         11   -1    0    0    0    0 -0.00000000000E+00 -0.00000000000E+00 -0.45593999997E+02  0.45594000000E+02  0.51100000000E-03 0.  1.
    9900012    2    1    2    0    0  0.87171116527E+01 -0.31670887068E+02  0.28365299782E+02  0.47787270110E+02  0.19999995741E+02 0.  0.
        -12    1    1    2    0    0 -0.87171116527E+01  0.31670887068E+02 -0.28365299782E+02  0.43400729890E+02  0.00000000000E+00 0.  1.
         11    1    3    3    0    0 -0.87809992747E+00 -0.16564150134E+02  0.19781865206E+02  0.25815970259E+02  0.51100000000E-03 0. -1.
        -11    1    3    3    0    0  0.52927788209E+01 -0.96739187711E+01  0.10013418426E+02  0.14895192542E+02  0.51100000000E-03 0.  1.
        -12    1    3    3    0    0  0.43024327593E+01 -0.54328181628E+01 -0.14299838493E+01  0.70761073089E+01  0.00000000000E+00 0.  1.
</event>
<event>
 7    1  0.3742599E-009  0.4778728E+02  0.7816164E-02  0.1312668E+00
        -11   -1    0    0    0    0  0.00000000000E+00  0.00000000000E+00  0.45593999997E+02  0.45594000000E+02  0.51100000000E-03 0.  1.
         11   -1    0    0    0    0 -0.00000000000E+00 -0.00000000000E+00 -0.45593999997E+02  0.45594000000E+02  0.51100000000E-03 0. -1.
    9900012    2    1    2    0    0  0.41562598753E+02  0.97911444048E+01 -0.77657421141E+01  0.47787275646E+02  0.20000020979E+02 0.  0.
        -12    1    1    2    0    0 -0.41562598753E+02 -0.97911444048E+01  0.77657421141E+01  0.43400724354E+02  0.00000000000E+00 0.  1.
         11    1    3    3    0    0  0.57780932134E+01 -0.30211355295E+01  0.84107415767E+00  0.65742700789E+01  0.51100000000E-03 0.  1.
        -11    1    3    3    0    0  0.97714196588E+01 -0.23463839263E+01 -0.64174009914E+00  0.10069656910E+02  0.51100000000E-03 0. -1.
         12    1    3    3    0    0  0.26013085881E+02  0.15158663861E+02 -0.79650761727E+01  0.31143348656E+02  0.00000000000E+00 0. -1.
</event>
<event>
 7    1  0.3742599E-009  0.4778727E+02  0.7816164E-02  0.1312668E+00
        -11   -1    0    0    0    0  0.00000000000E+00  0.00000000000E+00  0.45593999997E+02  0.45594000000E+02  0.51100000000E-03 0. -1.
         11   -1    0    0    0    0 -0.00000000000E+00 -0.00000000000E+00 -0.45593999997E+02  0.45594000000E+02  0.51100000000E-03 0.  1.
    9900012    2    1    2    0    0  0.22500392620E+02 -0.22548949607E+02 -0.29477115822E+02  0.47787272430E+02  0.20000006317E+02 0.  0.
        -12    1    1    2    0    0 -0.22500392620E+02  0.22548949607E+02  0.29477115822E+02  0.43400727570E+02  0.00000000000E+00 0.  1.
         11    1    3    3    0    0 -0.12183032923E+01  0.49231146370E+00  0.93554508236E+00  0.16130338966E+01  0.51100000000E-03 0. -1.
        -11    1    3    3    0    0  0.11711371024E+01 -0.61307562141E-01 -0.50648634859E+01  0.51988617140E+01  0.51100000000E-03 0.  1.
         12    1    3    3    0    0  0.22547558810E+02 -0.22979953509E+02 -0.25347797418E+02  0.40975376819E+02  0.00000000000E+00 0. -1.
</event>
<event>
 7    1  0.3742599E-009  0.4778727E+02  0.7816164E-02  0.1312668E+00
        -11   -1    0    0    0    0  0.00000000000E+00  0.00000000000E+00  0.45593999997E+02  0.45594000000E+02  0.51100000000E-03 0.  1.
         11   -1    0    0    0    0 -0.00000000000E+00 -0.00000000000E+00 -0.45593999997E+02  0.45594000000E+02  0.51100000000E-03 0. -1.
    9900012    2    1    2    0    0 -0.36831973485E+02  0.17268410580E+02  0.15127171079E+02  0.47787267522E+02  0.19999983941E+02 0.  0.
        -12    1    1    2    0    0  0.36831973485E+02 -0.17268410580E+02 -0.15127171079E+02  0.43400732478E+02  0.00000000000E+00 0.  1.
         11    1    3    3    0    0 -0.62782453333E+01 -0.13461698739E+01 -0.22477576673E+01  0.68030105531E+01  0.51100000000E-03 0.  1.
        -11    1    3    3    0    0  0.44920134880E+00  0.11247449700E+01 -0.29099992354E+00  0.12455979752E+01  0.51100000000E-03 0. -1.
        -12    1    3    3    0    0 -0.31002929500E+02  0.17489835484E+02  0.17665928670E+02  0.39738658994E+02  0.00000000000E+00 0.  1.
</event>
<event>
 7    1  0.3742599E-009  0.4778727E+02  0.7816164E-02  0.1312668E+00
        -11   -1    0    0    0    0  0.00000000000E+00  0.00000000000E+00  0.45593999997E+02  0.45594000000E+02  0.51100000000E-03 0.  1.
         11   -1    0    0    0    0 -0.00000000000E+00 -0.00000000000E+00 -0.45593999997E+02  0.45594000000E+02  0.51100000000E-03 0. -1.
    9900012    2    1    2    0    0 -0.39611912445E+02  0.17133093299E+02  0.45800180032E+01  0.47787273526E+02  0.20000011314E+02 0.  0.
        -12    1    1    2    0    0  0.39611912445E+02 -0.17133093299E+02 -0.45800180032E+01  0.43400726474E+02  0.00000000000E+00 0.  1.
         11    1    3    3    0    0 -0.21216183557E+02  0.67354725315E+01 -0.12903047522E+01  0.22297038404E+02  0.51100000000E-03 0. -1.
        -11    1    3    3    0    0 -0.99066703738E+01 -0.15781317438E+01  0.34770654049E+01  0.10617090081E+02  0.51100000000E-03 0.  1.
        -12    1    3    3    0    0 -0.84890585142E+01  0.11975752512E+02  0.23932573505E+01  0.14873145041E+02  0.00000000000E+00 0.  1.
</event>
<event>
 7    1  0.3742599E-009  0.4778727E+02  0.7816164E-02  0.1312668E+00
        -11   -1    0    0    0    0  0.00000000000E+00  0.00000000000E+00  0.45593999997E+02  0.45594000000E+02  0.51100000000E-03 0.  1.
         11   -1    0    0    0    0 -0.00000000000E+00 -0.00000000000E+00 -0.45593999997E+02  0.45594000000E+02  0.51100000000E-03 0. -1.
    9900012    2    1    2    0    0  0.14619817011E+02 -0.40619434904E+02 -0.44660376799E+01  0.47787273809E+02  0.20000012605E+02 0.  0.
        -12    1    1    2    0    0 -0.14619817011E+02  0.40619434904E+02  0.44660376799E+01  0.43400726191E+02  0.00000000000E+00 0.  1.
         11    1    3    3    0    0  0.41549722376E+01 -0.12425021245E+01 -0.48476904127E+01  0.65044375947E+01  0.51100000000E-03 0.  1.
        -11    1    3    3    0    0 -0.70038126193E+00 -0.46402533331E+01 -0.87747870788E+00  0.47741443266E+01  0.51100000000E-03 0. -1.
        -12    1    3    3    0    0  0.11165226035E+02 -0.34736679446E+02  0.12591314407E+01  0.36508691888E+02  0.00000000000E+00 0.  1.
</event>
<event>
 7    1  0.3742599E-009  0.4778727E+02  0.7816164E-02  0.1312668E+00
        -11   -1    0    0    0    0  0.00000000000E+00  0.00000000000E+00  0.45593999997E+02  0.45594000000E+02  0.51100000000E-03 0.  1.
         11   -1    0    0    0    0 -0.00000000000E+00 -0.00000000000E+00 -0.45593999997E+02  0.45594000000E+02  0.51100000000E-03 0. -1.
    9900012    2    1    2    0    0  0.24632893078E+02 -0.28512567147E+01 -0.35619015211E+02  0.47787270388E+02  0.19999997007E+02 0.  0.
        -12    1    1    2    0    0 -0.24632893078E+02  0.28512567147E+01  0.35619015211E+02  0.43400729612E+02  0.00000000000E+00 0.  1.
         11    1    3    3    0    0  0.10579213853E+02 -0.83680527002E+01 -0.23890981983E+02  0.27435799462E+02  0.51100000000E-03 0. -1.
        -11    1    3    3    0    0  0.25714451374E+01 -0.59653168086E+00  0.27183899580E+00  0.26536911730E+01  0.51100000000E-03 0.  1.
         12    1    3    3    0    0  0.11482234087E+02  0.61133276664E+01 -0.11999872225E+02  0.17697779753E+02  0.00000000000E+00 0. -1.
</event>
<event>
 7    1  0.3742599E-009  0.4778727E+02  0.7816164E-02  0.1312668E+00
        -11   -1    0    0    0    0  0.00000000000E+00  0.00000000000E+00  0.45593999997E+02  0.45594000000E+02  0.51100000000E-03 0.  1.
         11   -1    0    0    0    0 -0.00000000000E+00 -0.00000000000E+00 -0.45593999997E+02  0.45594000000E+02  0.51100000000E-03 0. -1.
    9900012    2    1    2    0    0  0.19873522467E+02 -0.34971251105E+02 -0.16299628736E+02  0.47787271941E+02  0.20000004089E+02 0.  0.
        -12    1    1    2    0    0 -0.19873522467E+02  0.34971251105E+02  0.16299628736E+02  0.43400728059E+02  0.00000000000E+00 0.  1.
         11    1    3    3    0    0  0.19038716258E+02 -0.35866305312E+02 -0.16008393030E+02  0.43647831803E+02  0.51100000000E-03 0. -1.
        -11    1    3    3    0    0  0.25135845496E+00 -0.12138594908E+01  0.10053133995E+01  0.15960235677E+01  0.51100000000E-03 0.  1.
         12    1    3    3    0    0  0.58344775399E+00  0.21089136978E+01 -0.12965491057E+01  0.25434165703E+01  0.00000000000E+00 0. -1.
</event>
<event>
 7    1  0.3742599E-009  0.4778727E+02  0.7816164E-02  0.1312668E+00
        -11   -1    0    0    0    0  0.00000000000E+00  0.00000000000E+00  0.45593999997E+02  0.45594000000E+02  0.51100000000E-03 0. -1.
         11   -1    0    0    0    0 -0.00000000000E+00 -0.00000000000E+00 -0.45593999997E+02  0.45594000000E+02  0.51100000000E-03 0.  1.
    9900012    2    1    2    0    0 -0.22503735199E+02  0.36804498762E+02 -0.47575250846E+01  0.47787271067E+02  0.20000000101E+02 0.  0.
        -12    1    1    2    0    0  0.22503735199E+02 -0.36804498762E+02  0.47575250846E+01  0.43400728933E+02  0.00000000000E+00 0.  1.
         11    1    3    3    0    0 -0.14557577273E+02  0.31397972829E+02 -0.43641146273E+01  0.34882678375E+02  0.51100000000E-03 0. -1.
        -11    1    3    3    0    0 -0.64864986972E+01  0.72161279759E+01 -0.22131959083E+01  0.99521557817E+01  0.51100000000E-03 0.  1.
        -12    1    3    3    0    0 -0.14596592294E+01 -0.18096020435E+01  0.18197854511E+01  0.29524369104E+01  0.00000000000E+00 0.  1.
</event>
<event>
 7    1  0.3742599E-009  0.4778727E+02  0.7816164E-02  0.1312668E+00
        -11   -1    0    0    0    0  0.00000000000E+00  0.00000000000E+00  0.45593999997E+02  0.45594000000E+02  0.51100000000E-03 0. -1.
         11   -1    0    0    0    0 -0.00000000000E+00 -0.00000000000E+00 -0.45593999997E+02  0.45594000000E+02  0.51100000000E-03 0.  1.
    9900012    2    1    2    0    0 -0.13862302068E+02 -0.29374987992E+02 -0.28784889813E+02  0.47787271669E+02  0.20000002845E+02 0.  0.
        -12    1    1    2    0    0  0.13862302068E+02  0.29374987992E+02  0.28784889813E+02  0.43400728331E+02  0.00000000000E+00 0.  1.
         11    1    3    3    0    0 -0.10566737883E+02 -0.26852660560E+02 -0.18367417937E+02  0.34206481411E+02  0.51100000000E-03 0. -1.
        -11    1    3    3    0    0 -0.12604416813E+01 -0.18391297403E+01  0.63779022143E+00  0.23190273956E+01  0.51100000000E-03 0.  1.
        -12    1    3    3    0    0 -0.20351225037E+01 -0.68319769155E+00 -0.11055262098E+02  0.11261762862E+02  0.00000000000E+00 0.  1.
</event>
<event>
 7    1  0.3742599E-009  0.4778728E+02  0.7816164E-02  0.1312668E+00
        -11   -1    0    0    0    0  0.00000000000E+00  0.00000000000E+00  0.45593999997E+02  0.45594000000E+02  0.51100000000E-03 0. -1.
         11   -1    0    0    0    0 -0.00000000000E+00 -0.00000000000E+00 -0.45593999997E+02  0.45594000000E+02  0.51100000000E-03 0.  1.
    9900012    2    1    2    0    0 -0.38856498790E+01 -0.17281008902E+02  0.39621854481E+02  0.47787275396E+02  0.20000019841E+02 0.  0.
        -12    1    1    2    0    0  0.38856498790E+01  0.17281008902E+02 -0.39621854481E+02  0.43400724604E+02  0.00000000000E+00 0.  1.
         11    1    3    3    0    0 -0.65216633910E+01 -0.81853260889E+01  0.10347590308E+02  0.14717482190E+02  0.51100000000E-03 0. -1.
        -11    1    3    3    0    0 -0.10712022069E+01  0.18365827133E+01  0.67831721870E+00  0.22317313327E+01  0.51100000000E-03 0.  1.
         12    1    3    3    0    0  0.37072157189E+01 -0.10932265527E+02  0.28595946954E+02  0.30838061874E+02  0.00000000000E+00 0. -1.
</event>
<event>
 7    1  0.3742599E-009  0.4778727E+02  0.7816164E-02  0.1312668E+00
        -11   -1    0    0    0    0  0.00000000000E+00  0.00000000000E+00  0.45593999997E+02  0.45594000000E+02  0.51100000000E-03 0. -1.
         11   -1    0    0    0    0 -0.00000000000E+00 -0.00000000000E+00 -0.45593999997E+02  0.45594000000E+02  0.51100000000E-03 0.  1.
    9900012    2    1    2    0    0 -0.27990445500E+02 -0.28681847204E+02  0.16658630420E+02  0.47787269986E+02  0.19999995172E+02 0.  0.
        -12    1    1    2    0    0  0.27990445500E+02  0.28681847204E+02 -0.16658630420E+02  0.43400730014E+02  0.00000000000E+00 0.  1.
         11    1    3    3    0    0 -0.92667697272E+01 -0.71898671221E+01  0.39737760520E+01  0.12383784025E+02  0.51100000000E-03 0. -1.
        -11    1    3    3    0    0 -0.57125378104E+01 -0.23414793092E+01 -0.35542764904E+01  0.71237978088E+01  0.51100000000E-03 0.  1.
        -12    1    3    3    0    0 -0.13011137963E+02 -0.19150500772E+02  0.16239130859E+02  0.28279688152E+02  0.00000000000E+00 0.  1.
</event>
<event>
 7    1  0.3742599E-009  0.4778727E+02  0.7816164E-02  0.1312668E+00
        -11   -1    0    0    0    0  0.00000000000E+00  0.00000000000E+00  0.45593999997E+02  0.45594000000E+02  0.51100000000E-03 0. -1.
         11   -1    0    0    0    0 -0.00000000000E+00 -0.00000000000E+00 -0.45593999997E+02  0.45594000000E+02  0.51100000000E-03 0.  1.
    9900012    2    1    2    0    0 -0.40194035109E+02  0.12226726348E+02  0.10888994790E+02  0.47787268404E+02  0.19999987960E+02 0.  0.
        -12    1    1    2    0    0  0.40194035109E+02 -0.12226726348E+02 -0.10888994790E+02  0.43400731596E+02  0.00000000000E+00 0.  1.
         11    1    3    3    0    0 -0.97734021598E+01  0.10026151794E+02 -0.20553072667E+01  0.14151586405E+02  0.51100000000E-03 0. -1.
        -11    1    3    3    0    0 -0.10717826102E+02 -0.19899216192E+01  0.46530691526E+01  0.11852537163E+02  0.51100000000E-03 0.  1.
        -12    1    3    3    0    0 -0.19702806847E+02  0.41904961735E+01  0.82912329039E+01  0.21783144835E+02  0.00000000000E+00 0.  1.
</event>
<event>
 7    1  0.3742599E-009  0.4778727E+02  0.7816164E-02  0.1312668E+00
        -11   -1    0    0    0    0  0.00000000000E+00  0.00000000000E+00  0.45593999997E+02  0.45594000000E+02  0.51100000000E-03 0.  1.
         11   -1    0    0    0    0 -0.00000000000E+00 -0.00000000000E+00 -0.45593999997E+02  0.45594000000E+02  0.51100000000E-03 0. -1.
    9900012    2    1    2    0    0 -0.39557958824E+02  0.79786881199E+01 -0.15972834582E+02  0.47787274027E+02  0.20000013597E+02 0.  0.
        -12    1    1    2    0    0  0.39557958824E+02 -0.79786881199E+01  0.15972834582E+02  0.43400725973E+02  0.00000000000E+00 0.  1.
         11    1    3    3    0    0 -0.27905922691E+02  0.50999349442E+01 -0.78981008125E+01  0.29447068689E+02  0.51100000000E-03 0. -1.
        -11    1    3    3    0    0 -0.65215134136E+01  0.62871798490E+01 -0.12459630225E+01  0.91439155602E+01  0.51100000000E-03 0.  1.
         12    1    3    3    0    0 -0.51305227192E+01 -0.34084266732E+01 -0.68287707466E+01  0.91962897773E+01  0.00000000000E+00 0. -1.
</event>
<event>
 7    1  0.3742599E-009  0.4778727E+02  0.7816164E-02  0.1312668E+00
        -11   -1    0    0    0    0  0.00000000000E+00  0.00000000000E+00  0.45593999997E+02  0.45594000000E+02  0.51100000000E-03 0. -1.
         11   -1    0    0    0    0 -0.00000000000E+00 -0.00000000000E+00 -0.45593999997E+02  0.45594000000E+02  0.51100000000E-03 0.  1.
    9900012    2    1    2    0    0  0.19914624125E+02 -0.23864279108E+02  0.30290714746E+02  0.47787268771E+02  0.19999989636E+02 0.  0.
        -12    1    1    2    0    0 -0.19914624125E+02  0.23864279108E+02 -0.30290714746E+02  0.43400731229E+02  0.00000000000E+00 0.  1.
         11    1    3    3    0    0  0.15463603559E+02 -0.14901874899E+02  0.18159401708E+02  0.28123882755E+02  0.51100000000E-03 0. -1.
        -11    1    3    3    0    0  0.72805680900E+01 -0.14738613738E+01  0.65600156994E+01  0.99102343716E+01  0.51100000000E-03 0.  1.
        -12    1    3    3    0    0 -0.28295475241E+01 -0.74885428347E+01  0.55712973381E+01  0.97531516449E+01  0.00000000000E+00 0.  1.
</event>
<event>
 7    1  0.3742599E-009  0.4778727E+02  0.7816164E-02  0.1312668E+00
        -11   -1    0    0    0    0  0.00000000000E+00  0.00000000000E+00  0.45593999997E+02  0.45594000000E+02  0.51100000000E-03 0.  1.
         11   -1    0    0    0    0 -0.00000000000E+00 -0.00000000000E+00 -0.45593999997E+02  0.45594000000E+02  0.51100000000E-03 0. -1.
    9900012    2    1    2    0    0 -0.14691637554E+02  0.20063818245E+02 -0.35569962731E+02  0.47787271144E+02  0.20000000454E+02 0.  0.
        -12    1    1    2    0    0  0.14691637554E+02 -0.20063818245E+02  0.35569962731E+02  0.43400728856E+02  0.00000000000E+00 0.  1.
         11    1    3    3    0    0  0.13334237799E+01 -0.13922163198E+01 -0.65126397535E+00  0.20348047289E+01  0.51100000000E-03 0.  1.
        -11    1    3    3    0    0 -0.89174463060E+00  0.13815017543E+01 -0.10764817858E+02  0.10889676734E+02  0.51100000000E-03 0. -1.
         12    1    3    3    0    0 -0.15133316703E+02  0.20074532810E+02 -0.24153880897E+02  0.34862789682E+02  0.00000000000E+00 0. -1.
</event>
<event>
 7    1  0.3742599E-009  0.4778727E+02  0.7816164E-02  0.1312668E+00
        -11   -1    0    0    0    0  0.00000000000E+00  0.00000000000E+00  0.45593999997E+02  0.45594000000E+02  0.51100000000E-03 0.  1.
         11   -1    0    0    0    0 -0.00000000000E+00 -0.00000000000E+00 -0.45593999997E+02  0.45594000000E+02  0.51100000000E-03 0. -1.
    9900012    2    1    2    0    0 -0.34493137702E+02 -0.10216115115E+02 -0.24279163448E+02  0.47787270348E+02  0.19999996825E+02 0.  0.
        -12    1    1    2    0    0  0.34493137702E+02  0.10216115115E+02  0.24279163448E+02  0.43400729652E+02  0.00000000000E+00 0.  1.
         11    1    3    3    0    0 -0.20597319032E+02 -0.40408192340E+01 -0.19646016235E+02  0.28749673486E+02  0.51100000000E-03 0. -1.
        -11    1    3    3    0    0 -0.12780659385E+02 -0.43148081555E+01 -0.75066032610E+01  0.15437354583E+02  0.51100000000E-03 0.  1.
        -12    1    3    3    0    0 -0.11151592851E+01 -0.18604877256E+01  0.28734560480E+01  0.36002422791E+01  0.00000000000E+00 0.  1.
</event>
<event>
 7    1  0.3742599E-009  0.4778726E+02  0.7816164E-02  0.1312668E+00
        -11   -1    0    0    0    0  0.00000000000E+00  0.00000000000E+00  0.45593999997E+02  0.45594000000E+02  0.51100000000E-03 0. -1.
         11   -1    0    0    0    0 -0.00000000000E+00 -0.00000000000E+00 -0.45593999997E+02  0.45594000000E+02  0.51100000000E-03 0.  1.
    9900012    2    1    2    0    0 -0.21279825362E+00 -0.37739305294E+02 -0.21431833726E+02  0.47787263324E+02  0.19999964800E+02 0.  0.
        -12    1    1    2    0    0  0.21279825362E+00  0.37739305294E+02  0.21431833726E+02  0.43400736676E+02  0.00000000000E+00 0.  1.
         11    1    3    3    0    0 -0.11654644233E+01 -0.22648548539E+02 -0.20097273405E+02  0.30302070173E+02  0.51100000000E-03 0.  1.
        -11    1    3    3    0    0  0.38447343129E+01 -0.12912710693E+02 -0.24560759837E+01  0.13694976775E+02  0.51100000000E-03 0. -1.
        -12    1    3    3    0    0 -0.28920681432E+01 -0.21780460619E+01  0.11215156622E+01  0.37902163755E+01  0.00000000000E+00 0.  1.
</event>
<event>
 7    1  0.5060963E-009  0.4778727E+02  0.7816164E-02  0.1312668E+00
        -11   -1    0    0    0    0  0.00000000000E+00  0.00000000000E+00  0.45593999997E+02  0.45594000000E+02  0.51100000000E-03 0.  1.
         11   -1    0    0    0    0 -0.00000000000E+00 -0.00000000000E+00 -0.45593999997E+02  0.45594000000E+02  0.51100000000E-03 0. -1.
    9900012    2    1    2    0    0 -0.33306031584E+02  0.21983127949E+02 -0.17060871292E+02  0.47787274389E+02  0.20000015250E+02 0.  0.
        -12    1    1    2    0    0  0.33306031584E+02 -0.21983127949E+02  0.17060871292E+02  0.43400725611E+02  0.00000000000E+00 0.  1.
         11    1    3    3    0    0 -0.17841198380E+02  0.15462251813E+02 -0.13514043077E+02  0.27203289348E+02  0.51100000000E-03 0. -1.
        -11    1    3    3    0    0 -0.13193371903E+02  0.92249111321E+01 -0.81496580683E+00  0.16119187855E+02  0.51100000000E-03 0.  1.
        -12    1    3    3    0    0 -0.22714613008E+01 -0.27040349965E+01 -0.27318624075E+01  0.44647971865E+01  0.00000000000E+00 0.  1.
</event>
<event>
 7    1  0.3742599E-009  0.4778726E+02  0.7816164E-02  0.1312668E+00
        -11   -1    0    0    0    0  0.00000000000E+00  0.00000000000E+00  0.45593999997E+02  0.45594000000E+02  0.51100000000E-03 0.  1.
         11   -1    0    0    0    0 -0.00000000000E+00 -0.00000000000E+00 -0.45593999997E+02  0.45594000000E+02  0.51100000000E-03 0. -1.
    9900012    2    1    2    0    0 -0.24165527786E+02  0.21953949274E+02 -0.28595025993E+02  0.47787261142E+02  0.19999954851E+02 0.  0.
        -12    1    1    2    0    0  0.24165527786E+02 -0.21953949274E+02  0.28595025993E+02  0.43400738858E+02  0.00000000000E+00 0.  1.
         11    1    3    3    0    0 -0.43232616984E+01  0.40437205264E+01 -0.44892181091E+01  0.74293570988E+01  0.51100000000E-03 0. -1.
        -11    1    3    3    0    0 -0.91189724310E+01  0.25220233494E+01  0.43394616539E+00  0.94712496275E+01  0.51100000000E-03 0.  1.
        -12    1    3    3    0    0 -0.10723293657E+02  0.15388205398E+02 -0.24539754049E+02  0.30886654416E+02  0.00000000000E+00 0.  1.
</event>
<event>
 7    1  0.3742599E-009  0.4778727E+02  0.7816164E-02  0.1312668E+00
        -11   -1    0    0    0    0  0.00000000000E+00  0.00000000000E+00  0.45593999997E+02  0.45594000000E+02  0.51100000000E-03 0. -1.
         11   -1    0    0    0    0 -0.00000000000E+00 -0.00000000000E+00 -0.45593999997E+02  0.45594000000E+02  0.51100000000E-03 0.  1.
    9900012    2    1    2    0    0  0.28732185206E+02  0.26946653756E+02  0.18219846798E+02  0.47787269215E+02  0.19999991657E+02 0.  0.
        -12    1    1    2    0    0 -0.28732185206E+02 -0.26946653756E+02 -0.18219846798E+02  0.43400730785E+02  0.00000000000E+00 0.  1.
         11    1    3    3    0    0  0.21898309238E+02  0.19617968962E+02  0.18749791647E+02  0.34870551196E+02  0.51100000000E-03 0. -1.
        -11    1    3    3    0    0  0.10096751881E+01 -0.87953797814E+00  0.21214799010E+01  0.25087264243E+01  0.51100000000E-03 0.  1.
        -12    1    3    3    0    0  0.58242007802E+01  0.82082227724E+01 -0.26514247504E+01  0.10407991594E+02  0.00000000000E+00 0.  1.
</event>
<event>
 7    1  0.3742599E-009  0.4778727E+02  0.7816164E-02  0.1312668E+00
        -11   -1    0    0    0    0  0.00000000000E+00  0.00000000000E+00  0.45593999997E+02  0.45594000000E+02  0.51100000000E-03 0.  1.
         11   -1    0    0    0    0 -0.00000000000E+00 -0.00000000000E+00 -0.45593999997E+02  0.45594000000E+02  0.51100000000E-03 0. -1.
    9900012    2    1    2    0    0 -0.76866211639E+01 -0.40790442616E+02 -0.12675918973E+02  0.47787271025E+02  0.19999999911E+02 0.  0.
        -12    1    1    2    0    0  0.76866211639E+01  0.40790442616E+02  0.12675918973E+02  0.43400728975E+02  0.00000000000E+00 0.  1.
         11    1    3    3    0    0 -0.29057150985E+01 -0.10858111572E+02  0.16560302105E+00  0.11241405240E+02  0.51100000000E-03 0. -1.
        -11    1    3    3    0    0 -0.90147696883E+01 -0.17829061465E+02 -0.12792789399E+02  0.23723342221E+02  0.51100000000E-03 0.  1.
         12    1    3    3    0    0  0.42338636229E+01 -0.12103269579E+02 -0.48732594914E-01  0.12822523564E+02  0.00000000000E+00 0. -1.
</event>
<event>
 7    1  0.3742599E-009  0.4778727E+02  0.7816164E-02  0.1312668E+00
        -11   -1    0    0    0    0  0.00000000000E+00  0.00000000000E+00  0.45593999997E+02  0.45594000000E+02  0.51100000000E-03 0.  1.
         11   -1    0    0    0    0 -0.00000000000E+00 -0.00000000000E+00 -0.45593999997E+02  0.45594000000E+02  0.51100000000E-03 0. -1.
    9900012    2    1    2    0    0  0.38367979210E+01 -0.36921962145E+02 -0.22487124347E+02  0.47787273413E+02  0.20000010798E+02 0.  0.
        -12    1    1    2    0    0 -0.38367979210E+01  0.36921962145E+02  0.22487124347E+02  0.43400726587E+02  0.00000000000E+00 0.  1.
         11    1    3    3    0    0 -0.29833189472E+01 -0.39777730609E+01 -0.33253456031E+01  0.59817049497E+01  0.51100000000E-03 0. -1.
        -11    1    3    3    0    0  0.71504581447E+01 -0.15160978872E+02 -0.17023727464E+02  0.23891245867E+02  0.51100000000E-03 0.  1.
        -12    1    3    3    0    0 -0.33034127645E+00 -0.17783210212E+02 -0.21380512793E+01  0.17914322596E+02  0.00000000000E+00 0.  1.
</event>
<event>
 7    1  0.3742599E-009  0.4778727E+02  0.7816164E-02  0.1312668E+00
        -11   -1    0    0    0    0  0.00000000000E+00  0.00000000000E+00  0.45593999997E+02  0.45594000000E+02  0.51100000000E-03 0.  1.
         11   -1    0    0    0    0 -0.00000000000E+00 -0.00000000000E+00 -0.45593999997E+02  0.45594000000E+02  0.51100000000E-03 0. -1.
    9900012    2    1    2    0    0 -0.47707331763E+01  0.53586009475E+01 -0.42803610122E+02  0.47787267994E+02  0.19999986094E+02 0.  0.
        -12    1    1    2    0    0  0.47707331763E+01 -0.53586009475E+01  0.42803610122E+02  0.43400732006E+02  0.00000000000E+00 0.  1.
         11    1    3    3    0    0  0.22675033244E+01  0.39128304380E+01 -0.34565519063E+02  0.34860105016E+02  0.51100000000E-03 0. -1.
        -11    1    3    3    0    0  0.79805574015E-01  0.17966830621E+01 -0.45715824553E+01  0.49126169565E+01  0.51100000000E-03 0.  1.
        -12    1    3    3    0    0 -0.71180420748E+01 -0.35091255253E+00 -0.36665086032E+01  0.80145460218E+01  0.00000000000E+00 0.  1.
</event>
<event>
 7    1  0.3742599E-009  0.4778727E+02  0.7816164E-02  0.1312668E+00
        -11   -1    0    0    0    0  0.00000000000E+00  0.00000000000E+00  0.45593999997E+02  0.45594000000E+02  0.51100000000E-03 0.  1.
         11   -1    0    0    0    0 -0.00000000000E+00 -0.00000000000E+00 -0.45593999997E+02  0.45594000000E+02  0.51100000000E-03 0. -1.
    9900012    2    1    2    0    0  0.35419872240E+02  0.18425861058E+02 -0.17015991107E+02  0.47787266613E+02  0.19999979795E+02 0.  0.
        -12    1    1    2    0    0 -0.35419872240E+02 -0.18425861058E+02  0.17015991107E+02  0.43400733387E+02  0.00000000000E+00 0.  1.
         11    1    3    3    0    0  0.13395402588E+02  0.27429835512E+01 -0.86776261785E+01  0.16194504179E+02  0.51100000000E-03 0. -1.
        -11    1    3    3    0    0  0.15101030110E+02  0.44305396818E+01 -0.94123488162E+01  0.18337478091E+02  0.51100000000E-03 0.  1.
         12    1    3    3    0    0  0.69234395417E+01  0.11252337825E+02  0.10739838879E+01  0.13255284342E+02  0.00000000000E+00 0. -1.
</event>
<event>
 7    1  0.3742599E-009  0.4778727E+02  0.7816164E-02  0.1312668E+00
        -11   -1    0    0    0    0  0.00000000000E+00  0.00000000000E+00  0.45593999997E+02  0.45594000000E+02  0.51100000000E-03 0.  1.
         11   -1    0    0    0    0 -0.00000000000E+00 -0.00000000000E+00 -0.45593999997E+02  0.45594000000E+02  0.51100000000E-03 0. -1.
    9900012    2    1    2    0    0  0.36953715578E+02 -0.19353869121E+02 -0.11978079803E+02  0.47787265666E+02  0.19999975476E+02 0.  0.
        -12    1    1    2    0    0 -0.36953715578E+02  0.19353869121E+02  0.11978079803E+02  0.43400734334E+02  0.00000000000E+00 0.  1.
         11    1    3    3    0    0  0.20486770428E+02 -0.85064345876E+01 -0.10235614455E+02  0.24430206620E+02  0.51100000000E-03 0. -1.
        -11    1    3    3    0    0  0.65643894968E+01 -0.38548793527E+01 -0.68136720162E+01  0.10216527340E+02  0.51100000000E-03 0.  1.
         12    1    3    3    0    0  0.99025556537E+01 -0.69925551808E+01  0.50712066683E+01  0.13140531706E+02  0.00000000000E+00 0. -1.
</event>
<event>
 7    1  0.3742599E-009  0.4778726E+02  0.7816164E-02  0.1312668E+00
        -11   -1    0    0    0    0  0.00000000000E+00  0.00000000000E+00  0.45593999997E+02  0.45594000000E+02  0.51100000000E-03 0. -1.
         11   -1    0    0    0    0 -0.00000000000E+00 -0.00000000000E+00 -0.45593999997E+02  0.45594000000E+02  0.51100000000E-03 0.  1.
    9900012    2    1    2    0    0  0.29939221176E+02  0.30904224234E+02  0.56741422030E+01  0.47787263487E+02  0.19999965542E+02 0.  0.
        -12    1    1    2    0    0 -0.29939221176E+02 -0.30904224234E+02 -0.56741422030E+01  0.43400736513E+02  0.00000000000E+00 0.  1.
         11    1    3    3    0    0  0.23254577918E+02  0.14853539539E+02  0.43513173643E+01  0.27934512597E+02  0.51100000000E-03 0. -1.
        -11    1    3    3    0    0  0.88070845113E+01  0.14708763086E+02  0.31441644318E+00  0.17146757917E+02  0.51100000000E-03 0.  1.
        -12    1    3    3    0    0 -0.21224412528E+01  0.13419216096E+01  0.10084083956E+01  0.27059929730E+01  0.00000000000E+00 0.  1.
</event>
<event>
 7    1  0.3742599E-009  0.4778727E+02  0.7816164E-02  0.1312668E+00
        -11   -1    0    0    0    0  0.00000000000E+00  0.00000000000E+00  0.45593999997E+02  0.45594000000E+02  0.51100000000E-03 0.  1.
         11   -1    0    0    0    0 -0.00000000000E+00 -0.00000000000E+00 -0.45593999997E+02  0.45594000000E+02  0.51100000000E-03 0. -1.
    9900012    2    1    2    0    0 -0.19578484997E+02  0.76786679408E+01 -0.37965036699E+02  0.47787273880E+02  0.20000012929E+02 0.  0.
        -12    1    1    2    0    0  0.19578484997E+02 -0.76786679408E+01  0.37965036699E+02  0.43400726120E+02  0.00000000000E+00 0.  1.
         11    1    3    3    0    0 -0.78533682257E+01  0.21614052284E+01 -0.19087326890E+02  0.20752665205E+02  0.51100000000E-03 0. -1.
        -11    1    3    3    0    0 -0.18181226649E+01 -0.10152378023E+01 -0.14082359663E+02  0.14235488462E+02  0.51100000000E-03 0.  1.
         12    1    3    3    0    0 -0.99069941067E+01  0.65325005147E+01 -0.47953501471E+01  0.12799120213E+02  0.00000000000E+00 0. -1.
</event>
<event>
 7    1  0.3742599E-009  0.4778727E+02  0.7816164E-02  0.1312668E+00
        -11   -1    0    0    0    0  0.00000000000E+00  0.00000000000E+00  0.45593999997E+02  0.45594000000E+02  0.51100000000E-03 0. -1.
         11   -1    0    0    0    0 -0.00000000000E+00 -0.00000000000E+00 -0.45593999997E+02  0.45594000000E+02  0.51100000000E-03 0.  1.
    9900012    2    1    2    0    0 -0.10745917460E+02  0.32113989157E+02  0.27144802971E+02  0.47787269937E+02  0.19999994952E+02 0.  0.
        -12    1    1    2    0    0  0.10745917460E+02 -0.32113989157E+02 -0.27144802971E+02  0.43400730063E+02  0.00000000000E+00 0.  1.
         11    1    3    3    0    0  0.99998938854E+00  0.28778463552E+00  0.16097847274E+01  0.19168218236E+01  0.51100000000E-03 0. -1.
        -11    1    3    3    0    0 -0.87005149602E+01  0.37139479560E+01  0.92933211012E+01  0.13261153319E+02  0.51100000000E-03 0.  1.
         12    1    3    3    0    0 -0.30453918885E+01  0.28112256566E+02  0.16241697142E+02  0.32609294795E+02  0.00000000000E+00 0. -1.
</event>
<event>
 7    1  0.3742599E-009  0.4778727E+02  0.7816164E-02  0.1312668E+00
        -11   -1    0    0    0    0  0.00000000000E+00  0.00000000000E+00  0.45593999997E+02  0.45594000000E+02  0.51100000000E-03 0.  1.
         11   -1    0    0    0    0 -0.00000000000E+00 -0.00000000000E+00 -0.45593999997E+02  0.45594000000E+02  0.51100000000E-03 0. -1.
    9900012    2    1    2    0    0  0.41581942611E+02  0.59269778777E+01 -0.10928693780E+02  0.47787269986E+02  0.19999995172E+02 0.  0.
        -12    1    1    2    0    0 -0.41581942611E+02 -0.59269778777E+01  0.10928693780E+02  0.43400730014E+02  0.00000000000E+00 0.  1.
         11    1    3    3    0    0  0.30598524671E+02 -0.46225583959E+01 -0.61542597921E+01  0.31551745943E+02  0.51100000000E-03 0. -1.
        -11    1    3    3    0    0  0.45726107299E+01  0.27618576029E+01 -0.83610253393E+00  0.54070041626E+01  0.51100000000E-03 0.  1.
         12    1    3    3    0    0  0.64108072097E+01  0.77876786707E+01 -0.39383314536E+01  0.10828519880E+02  0.00000000000E+00 0. -1.
</event>
<event>
 7    1  0.3742599E-009  0.4778728E+02  0.7816164E-02  0.1312668E+00
        -11   -1    0    0    0    0  0.00000000000E+00  0.00000000000E+00  0.45593999997E+02  0.45594000000E+02  0.51100000000E-03 0. -1.
         11   -1    0    0    0    0 -0.00000000000E+00 -0.00000000000E+00 -0.45593999997E+02  0.45594000000E+02  0.51100000000E-03 0.  1.
    9900012    2    1    2    0    0 -0.10656523003E+01 -0.32939067708E+02  0.28240129419E+02  0.47787277588E+02  0.20000029833E+02 0.  0.
        -12    1    1    2    0    0  0.10656523003E+01  0.32939067708E+02 -0.28240129419E+02  0.43400722412E+02  0.00000000000E+00 0.  1.
         11    1    3    3    0    0 -0.30107465281E+01 -0.37198390370E+00  0.23970605601E+01  0.38663763748E+01  0.51100000000E-03 0. -1.
        -11    1    3    3    0    0  0.12477023458E+01 -0.11637138084E+02  0.14840743149E+01  0.11797551473E+02  0.51100000000E-03 0.  1.
         12    1    3    3    0    0  0.69739188200E+00 -0.20929945721E+02  0.24358994544E+02  0.32123349740E+02  0.00000000000E+00 0. -1.
</event>
<event>
 7    1  0.3742599E-009  0.4778726E+02  0.7816164E-02  0.1312668E+00
        -11   -1    0    0    0    0  0.00000000000E+00  0.00000000000E+00  0.45593999997E+02  0.45594000000E+02  0.51100000000E-03 0. -1.
         11   -1    0    0    0    0 -0.00000000000E+00 -0.00000000000E+00 -0.45593999997E+02  0.45594000000E+02  0.51100000000E-03 0.  1.
    9900012    2    1    2    0    0 -0.10272131961E+02 -0.24139141770E+02  0.34574687171E+02  0.47787264368E+02  0.19999969561E+02 0.  0.
        -12    1    1    2    0    0  0.10272131961E+02  0.24139141770E+02 -0.34574687171E+02  0.43400735632E+02  0.00000000000E+00 0.  1.
         11    1    3    3    0    0  0.51459757287E+00 -0.43742440001E+01  0.53994034416E+00  0.44373817810E+01  0.51100000000E-03 0. -1.
        -11    1    3    3    0    0 -0.50478780609E+01 -0.17691357770E+01  0.12187170791E+01  0.54859990791E+01  0.51100000000E-03 0.  1.
         12    1    3    3    0    0 -0.57388514731E+01 -0.17995761993E+02  0.32816029748E+02  0.37863883508E+02  0.00000000000E+00 0. -1.
</event>
<event>
 7    1  0.3742599E-009  0.4778727E+02  0.7816164E-02  0.1312668E+00
        -11   -1    0    0    0    0  0.00000000000E+00  0.00000000000E+00  0.45593999997E+02  0.45594000000E+02  0.51100000000E-03 0.  1.
         11   -1    0    0    0    0 -0.00000000000E+00 -0.00000000000E+00 -0.45593999997E+02  0.45594000000E+02  0.51100000000E-03 0. -1.
    9900012    2    1    2    0    0  0.36137060640E+02  0.22913072187E+02  0.72613524891E+01  0.47787271104E+02  0.20000000270E+02 0.  0.
        -12    1    1    2    0    0 -0.36137060640E+02 -0.22913072187E+02 -0.72613524891E+01  0.43400728896E+02  0.00000000000E+00 0.  1.
         11    1    3    3    0    0  0.49289694656E+01 -0.73117643043E+00  0.29931691076E+00  0.49918884042E+01  0.51100000000E-03 0. -1.
        -11    1    3    3    0    0 -0.18254053945E+01  0.63601560258E+00  0.69362542005E+00  0.20537130241E+01  0.51100000000E-03 0.  1.
         12    1    3    3    0    0  0.33033496569E+02  0.23008233015E+02  0.62684101583E+01  0.40741669676E+02  0.00000000000E+00 0. -1.
</event>
<event>
 7    1  0.3742599E-009  0.4778727E+02  0.7816164E-02  0.1312668E+00
        -11   -1    0    0    0    0  0.00000000000E+00  0.00000000000E+00  0.45593999997E+02  0.45594000000E+02  0.51100000000E-03 0.  1.
         11   -1    0    0    0    0 -0.00000000000E+00 -0.00000000000E+00 -0.45593999997E+02  0.45594000000E+02  0.51100000000E-03 0. -1.
    9900012    2    1    2    0    0 -0.43762764545E+01  0.28791495665E+02 -0.32179521186E+02  0.47787267264E+02  0.19999982763E+02 0.  0.
        -12    1    1    2    0    0  0.43762764545E+01 -0.28791495665E+02  0.32179521186E+02  0.43400732736E+02  0.00000000000E+00 0.  1.
         11    1    3    3    0    0  0.10397895476E+01  0.88790762614E+01 -0.14215149723E+02  0.16792547141E+02  0.51100000000E-03 0. -1.
        -11    1    3    3    0    0 -0.83383421502E+01  0.70967583940E+01 -0.12869588557E+02  0.16897284971E+02  0.51100000000E-03 0.  1.
         12    1    3    3    0    0  0.29222761481E+01  0.12815661010E+02 -0.50947829063E+01  0.14097435152E+02  0.00000000000E+00 0. -1.
</event>
<event>
 7    1  0.3742599E-009  0.4778725E+02  0.7816164E-02  0.1312668E+00
        -11   -1    0    0    0    0  0.00000000000E+00  0.00000000000E+00  0.45593999997E+02  0.45594000000E+02  0.51100000000E-03 0.  1.
         11   -1    0    0    0    0 -0.00000000000E+00 -0.00000000000E+00 -0.45593999997E+02  0.45594000000E+02  0.51100000000E-03 0. -1.
    9900012    2    1    2    0    0  0.23370065719E+02 -0.14184304933E+01 -0.36543856223E+02  0.47787247191E+02  0.19999891242E+02 0.  0.
        -12    1    1    2    0    0 -0.23370065719E+02  0.14184304933E+01  0.36543856223E+02  0.43400752809E+02  0.00000000000E+00 0.  1.
         11    1    3    3    0    0  0.19837291875E+01  0.14392554152E+01  0.12508146304E+00  0.24540340815E+01  0.51100000000E-03 0. -1.
        -11    1    3    3    0    0  0.23046140142E+02 -0.20732004425E+01 -0.27304332743E+02  0.35790352364E+02  0.51100000000E-03 0.  1.
        -12    1    3    3    0    0 -0.16598036111E+01 -0.78448546597E+00 -0.93646049428E+01  0.95428607455E+01  0.00000000000E+00 0.  1.
</event>
<event>
 7    1  0.3742599E-009  0.4778727E+02  0.7816164E-02  0.1312668E+00
        -11   -1    0    0    0    0  0.00000000000E+00  0.00000000000E+00  0.45593999997E+02  0.45594000000E+02  0.51100000000E-03 0.  1.
         11   -1    0    0    0    0 -0.00000000000E+00 -0.00000000000E+00 -0.45593999997E+02  0.45594000000E+02  0.51100000000E-03 0. -1.
    9900012    2    1    2    0    0 -0.15216456309E+02 -0.10147468431E+01 -0.40633153591E+02  0.47787269309E+02  0.19999992089E+02 0.  0.
        -12    1    1    2    0    0  0.15216456309E+02  0.10147468431E+01  0.40633153591E+02  0.43400730691E+02  0.00000000000E+00 0.  1.
         11    1    3    3    0    0 -0.69756869034E+01 -0.38929107914E+01 -0.10033468835E+02  0.12825188471E+02  0.51100000000E-03 0.  1.
        -11    1    3    3    0    0  0.31124607649E+01 -0.28268446171E+01 -0.77836129089E+01  0.88466430175E+01  0.51100000000E-03 0. -1.
         12    1    3    3    0    0 -0.11353230170E+02  0.57050085654E+01 -0.22816071847E+02  0.26115437821E+02  0.00000000000E+00 0. -1.
</event>
<event>
 7    1  0.3742599E-009  0.4778727E+02  0.7816164E-02  0.1312668E+00
        -11   -1    0    0    0    0  0.00000000000E+00  0.00000000000E+00  0.45593999997E+02  0.45594000000E+02  0.51100000000E-03 0.  1.
         11   -1    0    0    0    0 -0.00000000000E+00 -0.00000000000E+00 -0.45593999997E+02  0.45594000000E+02  0.51100000000E-03 0. -1.
    9900012    2    1    2    0    0  0.36902193009E+02  0.56073176624E+01 -0.22145187786E+02  0.47787271869E+02  0.20000003758E+02 0.  0.
        -12    1    1    2    0    0 -0.36902193009E+02 -0.56073176624E+01  0.22145187786E+02  0.43400728131E+02  0.00000000000E+00 0.  1.
         11    1    3    3    0    0  0.12158295912E+02 -0.19383378996E+01 -0.40026952226E+01  0.12946153197E+02  0.51100000000E-03 0. -1.
        -11    1    3    3    0    0 -0.50585250155E+00 -0.17794030226E+01 -0.40634187964E+01  0.44646986961E+01  0.51100000000E-03 0.  1.
         12    1    3    3    0    0  0.25249749599E+02  0.93250585846E+01 -0.14079073767E+02  0.30376419976E+02  0.00000000000E+00 0. -1.
</event>
<event>
 7    1  0.3742599E-009  0.4778727E+02  0.7816164E-02  0.1312668E+00
        -11   -1    0    0    0    0  0.00000000000E+00  0.00000000000E+00  0.45593999997E+02  0.45594000000E+02  0.51100000000E-03 0.  1.
         11   -1    0    0    0    0 -0.00000000000E+00 -0.00000000000E+00 -0.45593999997E+02  0.45594000000E+02  0.51100000000E-03 0. -1.
    9900012    2    1    2    0    0  0.32346135309E+02  0.22538244876E+02 -0.18148786838E+02  0.47787269416E+02  0.19999992577E+02 0.  0.
        -12    1    1    2    0    0 -0.32346135309E+02 -0.22538244876E+02  0.18148786838E+02  0.43400730584E+02  0.00000000000E+00 0.  1.
         11    1    3    3    0    0  0.11888246395E+02  0.39987860962E+01 -0.10614449489E+02  0.16431288166E+02  0.51100000000E-03 0. -1.
        -11    1    3    3    0    0  0.24312459079E+01  0.42761978256E+01  0.33206100287E+01  0.59349200275E+01  0.51100000000E-03 0.  1.
         12    1    3    3    0    0  0.18026643006E+02  0.14263260954E+02 -0.10854947377E+02  0.25421061223E+02  0.00000000000E+00 0. -1.
</event>
<event>
 7    1  0.3742599E-009  0.4778726E+02  0.7816164E-02  0.1312668E+00
        -11   -1    0    0    0    0  0.00000000000E+00  0.00000000000E+00  0.45593999997E+02  0.45594000000E+02  0.51100000000E-03 0. -1.
         11   -1    0    0    0    0 -0.00000000000E+00 -0.00000000000E+00 -0.45593999997E+02  0.45594000000E+02  0.51100000000E-03 0.  1.
    9900012    2    1    2    0    0 -0.23309559839E+02 -0.33623616257E+01  0.36455225357E+02  0.47787256787E+02  0.19999934993E+02 0.  0.
        -12    1    1    2    0    0  0.23309559839E+02  0.33623616257E+01 -0.36455225357E+02  0.43400743213E+02  0.00000000000E+00 0.  1.
         11    1    3    3    0    0 -0.22544431909E+02 -0.90611223853E+01  0.32459700866E+02  0.40546116085E+02  0.51100000000E-03 0. -1.
        -11    1    3    3    0    0 -0.51546677605E+00  0.39002453641E+01  0.37014901432E+01  0.54017265239E+01  0.51100000000E-03 0.  1.
         12    1    3    3    0    0 -0.24966115389E+00  0.17985153955E+01  0.29403434798E+00  0.18394141778E+01  0.00000000000E+00 0. -1.
</event>
<event>
 7    1  0.3742599E-009  0.4778727E+02  0.7816164E-02  0.1312668E+00
        -11   -1    0    0    0    0  0.00000000000E+00  0.00000000000E+00  0.45593999997E+02  0.45594000000E+02  0.51100000000E-03 0.  1.
         11   -1    0    0    0    0 -0.00000000000E+00 -0.00000000000E+00 -0.45593999997E+02  0.45594000000E+02  0.51100000000E-03 0. -1.
    9900012    2    1    2    0    0  0.11995675353E+02  0.28415155608E+02 -0.30533692308E+02  0.47787266581E+02  0.19999979648E+02 0.  0.
        -12    1    1    2    0    0 -0.11995675353E+02 -0.28415155608E+02  0.30533692308E+02  0.43400733419E+02  0.00000000000E+00 0.  1.
         11    1    3    3    0    0  0.34351425727E+01  0.11860957091E+02 -0.91680140429E+01  0.15379694060E+02  0.51100000000E-03 0. -1.
        -11    1    3    3    0    0  0.10640514700E+02  0.18569106619E+02 -0.19568899948E+02  0.28999553775E+02  0.51100000000E-03 0.  1.
        -12    1    3    3    0    0 -0.20799819203E+01 -0.20149081026E+01 -0.17967783167E+01  0.34080187456E+01  0.00000000000E+00 0.  1.
</event>
<event>
 7    1  0.3742599E-009  0.4778727E+02  0.7816164E-02  0.1312668E+00
        -11   -1    0    0    0    0  0.00000000000E+00  0.00000000000E+00  0.45593999997E+02  0.45594000000E+02  0.51100000000E-03 0.  1.
         11   -1    0    0    0    0 -0.00000000000E+00 -0.00000000000E+00 -0.45593999997E+02  0.45594000000E+02  0.51100000000E-03 0. -1.
    9900012    2    1    2    0    0  0.14780861850E+02  0.40569172086E+02 -0.43922157043E+01  0.47787272361E+02  0.20000006003E+02 0.  0.
        -12    1    1    2    0    0 -0.14780861850E+02 -0.40569172086E+02  0.43922157043E+01  0.43400727639E+02  0.00000000000E+00 0.  1.
         11    1    3    3    0    0  0.87247627146E+01  0.29967448372E+02 -0.95950841882E+01  0.32653255384E+02  0.51100000000E-03 0. -1.
        -11    1    3    3    0    0 -0.13965416661E+01  0.32340149863E+01  0.24745529604E+01  0.43049499616E+01  0.51100000000E-03 0.  1.
         12    1    3    3    0    0  0.74526408021E+01  0.73677087280E+01  0.27283155236E+01  0.10829067015E+02  0.00000000000E+00 0. -1.
</event>
<event>
 7    1  0.3742599E-009  0.4778727E+02  0.7816164E-02  0.1312668E+00
        -11   -1    0    0    0    0  0.00000000000E+00  0.00000000000E+00  0.45593999997E+02  0.45594000000E+02  0.51100000000E-03 0. -1.
         11   -1    0    0    0    0 -0.00000000000E+00 -0.00000000000E+00 -0.45593999997E+02  0.45594000000E+02  0.51100000000E-03 0.  1.
    9900012    2    1    2    0    0 -0.94713472487E+01 -0.11446146295E+02  0.40778706374E+02  0.47787267550E+02  0.19999984065E+02 0.  0.
        -12    1    1    2    0    0  0.94713472487E+01  0.11446146295E+02 -0.40778706374E+02  0.43400732450E+02  0.00000000000E+00 0.  1.
         11    1    3    3    0    0 -0.10160647328E+02 -0.24258735469E+01  0.76453243130E+01  0.12945060861E+02  0.51100000000E-03 0. -1.
        -11    1    3    3    0    0  0.11325045616E+00 -0.87502112657E+00  0.19082920319E+00  0.90272015801E+00  0.51100000000E-03 0.  1.
         12    1    3    3    0    0  0.57604962332E+00 -0.81452516217E+01  0.32942552858E+02  0.33939486530E+02  0.00000000000E+00 0. -1.
</event>
<event>
 7    1  0.3742599E-009  0.4778727E+02  0.7816164E-02  0.1312668E+00
        -11   -1    0    0    0    0  0.00000000000E+00  0.00000000000E+00  0.45593999997E+02  0.45594000000E+02  0.51100000000E-03 0. -1.
         11   -1    0    0    0    0 -0.00000000000E+00 -0.00000000000E+00 -0.45593999997E+02  0.45594000000E+02  0.51100000000E-03 0.  1.
    9900012    2    1    2    0    0  0.14946497113E+02  0.12362959112E+02  0.38825026368E+02  0.47787271821E+02  0.20000003543E+02 0.  0.
        -12    1    1    2    0    0 -0.14946497113E+02 -0.12362959112E+02 -0.38825026368E+02  0.43400728179E+02  0.00000000000E+00 0.  1.
         11    1    3    3    0    0 -0.40689244946E+00  0.63652654056E+01  0.60414279716E+01  0.87852727531E+01  0.51100000000E-03 0. -1.
        -11    1    3    3    0    0 -0.65858190941E-02 -0.18643631675E+01 -0.99028463675E-01  0.18670030239E+01  0.51100000000E-03 0.  1.
         12    1    3    3    0    0  0.15359975381E+02  0.78620568740E+01  0.32882626860E+02  0.37134996045E+02  0.00000000000E+00 0. -1.
</event>
<event>
 7    1  0.3742599E-009  0.4778725E+02  0.7816164E-02  0.1312668E+00
        -11   -1    0    0    0    0  0.00000000000E+00  0.00000000000E+00  0.45593999997E+02  0.45594000000E+02  0.51100000000E-03 0.  1.
         11   -1    0    0    0    0 -0.00000000000E+00 -0.00000000000E+00 -0.45593999997E+02  0.45594000000E+02  0.51100000000E-03 0. -1.
    9900012    2    1    2    0    0 -0.35686661175E+02  0.24286025740E+02 -0.45028839330E+01  0.47787253512E+02  0.19999920061E+02 0.  0.
        -12    1    1    2    0    0  0.35686661175E+02 -0.24286025740E+02  0.45028839330E+01  0.43400746488E+02  0.00000000000E+00 0.  1.
         11    1    3    3    0    0 -0.19559676437E+02  0.11712517981E+02  0.21269550286E+01  0.22897335167E+02  0.51100000000E-03 0. -1.
        -11    1    3    3    0    0 -0.17347668726E+02  0.93347599457E+01 -0.30925702622E+01  0.19940996578E+02  0.51100000000E-03 0.  1.
        -12    1    3    3    0    0  0.12206839882E+01  0.32387478136E+01 -0.35372686993E+01  0.49489217665E+01  0.00000000000E+00 0.  1.
</event>
<event>
 7    1  0.3742599E-009  0.4778727E+02  0.7816164E-02  0.1312668E+00
        -11   -1    0    0    0    0  0.00000000000E+00  0.00000000000E+00  0.45593999997E+02  0.45594000000E+02  0.51100000000E-03 0.  1.
         11   -1    0    0    0    0 -0.00000000000E+00 -0.00000000000E+00 -0.45593999997E+02  0.45594000000E+02  0.51100000000E-03 0. -1.
    9900012    2    1    2    0    0  0.20419647793E+02 -0.33763440945E+02 -0.18074595272E+02  0.47787274722E+02  0.20000016768E+02 0.  0.
        -12    1    1    2    0    0 -0.20419647793E+02  0.33763440945E+02  0.18074595272E+02  0.43400725278E+02  0.00000000000E+00 0.  1.
         11    1    3    3    0    0  0.16156756372E+01  0.54264243574E+00 -0.12910995063E+01  0.21381783775E+01  0.51100000000E-03 0. -1.
        -11    1    3    3    0    0  0.22393425484E+01  0.14497758584E+01 -0.27159724022E+01  0.38069687994E+01  0.51100000000E-03 0.  1.
         12    1    3    3    0    0  0.16564629607E+02 -0.35755859239E+02 -0.14067523363E+02  0.41842127545E+02  0.00000000000E+00 0. -1.
</event>
<event>
 7    1  0.3742599E-009  0.4778727E+02  0.7816164E-02  0.1312668E+00
        -11   -1    0    0    0    0  0.00000000000E+00  0.00000000000E+00  0.45593999997E+02  0.45594000000E+02  0.51100000000E-03 0.  1.
         11   -1    0    0    0    0 -0.00000000000E+00 -0.00000000000E+00 -0.45593999997E+02  0.45594000000E+02  0.51100000000E-03 0. -1.
    9900012    2    1    2    0    0  0.41506524107E+02 -0.72231460537E+01  0.10423901208E+02  0.47787273062E+02  0.20000009199E+02 0.  0.
        -12    1    1    2    0    0 -0.41506524107E+02  0.72231460537E+01 -0.10423901208E+02  0.43400726938E+02  0.00000000000E+00 0.  1.
         11    1    3    3    0    0  0.37041016493E+01  0.14719847296E+01 -0.10093065822E+01  0.41116673152E+01  0.51100000000E-03 0. -1.
        -11    1    3    3    0    0  0.20211349151E+02 -0.12934329238E+02  0.53416261461E+01  0.24583093326E+02  0.51100000000E-03 0.  1.
        -12    1    3    3    0    0  0.17591073307E+02  0.42391984545E+01  0.60915816440E+01  0.19092512421E+02  0.00000000000E+00 0.  1.
</event>
<event>
 7    1  0.3742599E-009  0.4778727E+02  0.7816164E-02  0.1312668E+00
        -11   -1    0    0    0    0  0.00000000000E+00  0.00000000000E+00  0.45593999997E+02  0.45594000000E+02  0.51100000000E-03 0. -1.
         11   -1    0    0    0    0 -0.00000000000E+00 -0.00000000000E+00 -0.45593999997E+02  0.45594000000E+02  0.51100000000E-03 0.  1.
    9900012    2    1    2    0    0 -0.80953979251E+01 -0.42622997183E+02 -0.11696363605E+01  0.47787269526E+02  0.19999993077E+02 0.  0.
        -12    1    1    2    0    0  0.80953979251E+01  0.42622997183E+02  0.11696363605E+01  0.43400730474E+02  0.00000000000E+00 0.  1.
         11    1    3    3    0    0  0.26617297640E+01 -0.97740724383E+01 -0.41143615445E+00  0.10138371533E+02  0.51100000000E-03 0.  1.
        -11    1    3    3    0    0  0.92196844509E+00 -0.13242116933E+02 -0.54508842925E+01  0.14349767472E+02  0.51100000000E-03 0. -1.
         12    1    3    3    0    0 -0.11679096134E+02 -0.19606807812E+02  0.46926840865E+01  0.23299130521E+02  0.00000000000E+00 0. -1.
</event>
<event>
 7    1  0.3742599E-009  0.4778727E+02  0.7816164E-02  0.1312668E+00
        -11   -1    0    0    0    0  0.00000000000E+00  0.00000000000E+00  0.45593999997E+02  0.45594000000E+02  0.51100000000E-03 0.  1.
         11   -1    0    0    0    0 -0.00000000000E+00 -0.00000000000E+00 -0.45593999997E+02  0.45594000000E+02  0.51100000000E-03 0. -1.
    9900012    2    1    2    0    0  0.38111537865E+02 -0.56603882113E+01 -0.19977335436E+02  0.47787271386E+02  0.20000001557E+02 0.  0.
        -12    1    1    2    0    0 -0.38111537865E+02  0.56603882113E+01  0.19977335436E+02  0.43400728614E+02  0.00000000000E+00 0.  1.
         11    1    3    3    0    0  0.38727750445E+01 -0.62016758746E+01 -0.65445850978E+01  0.98127857697E+01  0.51100000000E-03 0. -1.
        -11    1    3    3    0    0  0.91829597072E+01 -0.71257295847E+00  0.59864524781E+00  0.92299992198E+01  0.51100000000E-03 0.  1.
        -12    1    3    3    0    0  0.25055803113E+02  0.12538606218E+01 -0.14031395586E+02  0.28744486396E+02  0.00000000000E+00 0.  1.
</event>
<event>
 7    1  0.3742599E-009  0.4778727E+02  0.7816164E-02  0.1312668E+00
        -11   -1    0    0    0    0  0.00000000000E+00  0.00000000000E+00  0.45593999997E+02  0.45594000000E+02  0.51100000000E-03 0.  1.
         11   -1    0    0    0    0 -0.00000000000E+00 -0.00000000000E+00 -0.45593999997E+02  0.45594000000E+02  0.51100000000E-03 0. -1.
    9900012    2    1    2    0    0  0.40849480802E+02 -0.34593794748E+01 -0.14246959523E+02  0.47787271391E+02  0.20000001581E+02 0.  0.
        -12    1    1    2    0    0 -0.40849480802E+02  0.34593794748E+01  0.14246959523E+02  0.43400728609E+02  0.00000000000E+00 0.  1.
         11    1    3    3    0    0  0.61635598504E+01 -0.22657177879E+01 -0.12366986999E+01  0.66822429662E+01  0.51100000000E-03 0. -1.
        -11    1    3    3    0    0  0.14554734874E+02  0.80774078815E+01 -0.36229599173E+01  0.17035570556E+02  0.51100000000E-03 0.  1.
        -12    1    3    3    0    0  0.20131186077E+02 -0.92710695684E+01 -0.93873009053E+01  0.24069457869E+02  0.00000000000E+00 0.  1.
</event>
<event>
 7    1  0.3742599E-009  0.4778727E+02  0.7816164E-02  0.1312668E+00
        -11   -1    0    0    0    0  0.00000000000E+00  0.00000000000E+00  0.45593999997E+02  0.45594000000E+02  0.51100000000E-03 0.  1.
         11   -1    0    0    0    0 -0.00000000000E+00 -0.00000000000E+00 -0.45593999997E+02  0.45594000000E+02  0.51100000000E-03 0. -1.
    9900012    2    1    2    0    0 -0.18437880046E+02 -0.28216838779E+02 -0.27340044043E+02  0.47787269366E+02  0.19999992348E+02 0.  0.
        -12    1    1    2    0    0  0.18437880046E+02  0.28216838779E+02  0.27340044043E+02  0.43400730634E+02  0.00000000000E+00 0.  1.
         11    1    3    3    0    0 -0.16182270048E+02 -0.90703559955E+01 -0.19229678051E+02  0.26719239136E+02  0.51100000000E-03 0. -1.
        -11    1    3    3    0    0  0.21778143766E+00 -0.67540496556E+01 -0.35515520053E+01  0.76340118818E+01  0.51100000000E-03 0.  1.
         12    1    3    3    0    0 -0.24733914360E+01 -0.12392433128E+02 -0.45588139869E+01  0.13434018349E+02  0.00000000000E+00 0. -1.
</event>
<event>
 7    1  0.3742599E-009  0.4778727E+02  0.7816164E-02  0.1312668E+00
        -11   -1    0    0    0    0  0.00000000000E+00  0.00000000000E+00  0.45593999997E+02  0.45594000000E+02  0.51100000000E-03 0.  1.
         11   -1    0    0    0    0 -0.00000000000E+00 -0.00000000000E+00 -0.45593999997E+02  0.45594000000E+02  0.51100000000E-03 0. -1.
    9900012    2    1    2    0    0  0.28398015124E+02  0.18177307394E+02 -0.27326933242E+02  0.47787273653E+02  0.20000011892E+02 0.  0.
        -12    1    1    2    0    0 -0.28398015124E+02 -0.18177307394E+02  0.27326933242E+02  0.43400726347E+02  0.00000000000E+00 0.  1.
         11    1    3    3    0    0 -0.26057725689E+01  0.51173199811E+00 -0.14256134656E+01  0.30140163126E+01  0.51100000000E-03 0. -1.
        -11    1    3    3    0    0  0.60649598157E+01  0.67409180765E+01 -0.87102593881E+01  0.12573477361E+02  0.51100000000E-03 0.  1.
         12    1    3    3    0    0  0.24938827877E+02  0.10924657319E+02 -0.17191060389E+02  0.32199779979E+02  0.00000000000E+00 0. -1.
</event>
<event>
 7    1  0.3742599E-009  0.4778727E+02  0.7816164E-02  0.1312668E+00
        -11   -1    0    0    0    0  0.00000000000E+00  0.00000000000E+00  0.45593999997E+02  0.45594000000E+02  0.51100000000E-03 0.  1.
         11   -1    0    0    0    0 -0.00000000000E+00 -0.00000000000E+00 -0.45593999997E+02  0.45594000000E+02  0.51100000000E-03 0. -1.
    9900012    2    1    2    0    0 -0.84901175966E+01  0.23664812501E+02 -0.35376799898E+02  0.47787269378E+02  0.19999992403E+02 0.  0.
        -12    1    1    2    0    0  0.84901175966E+01 -0.23664812501E+02  0.35376799898E+02  0.43400730622E+02  0.00000000000E+00 0.  1.
         11    1    3    3    0    0  0.99029145864E-01  0.43887496156E+01 -0.21685312215E+02  0.22125182397E+02  0.51100000000E-03 0.  1.
        -11    1    3    3    0    0 -0.39580212197E+01  0.38518566340E+01 -0.44637395326E+01  0.71012465371E+01  0.51100000000E-03 0. -1.
        -12    1    3    3    0    0 -0.46311255228E+01  0.15424206251E+02 -0.92277481503E+01  0.18560840444E+02  0.00000000000E+00 0.  1.
</event>
<event>
 7    1  0.3742599E-009  0.4778727E+02  0.7816164E-02  0.1312668E+00
        -11   -1    0    0    0    0  0.00000000000E+00  0.00000000000E+00  0.45593999997E+02  0.45594000000E+02  0.51100000000E-03 0. -1.
         11   -1    0    0    0    0 -0.00000000000E+00 -0.00000000000E+00 -0.45593999997E+02  0.45594000000E+02  0.51100000000E-03 0.  1.
    9900012    2    1    2    0    0  0.17373907422E+02 -0.43108579047E+01  0.39537165998E+02  0.47787266710E+02  0.19999980238E+02 0.  0.
        -12    1    1    2    0    0 -0.17373907422E+02  0.43108579047E+01 -0.39537165998E+02  0.43400733290E+02  0.00000000000E+00 0.  1.
         11    1    3    3    0    0  0.65214060803E+01 -0.44733912872E+01  0.78087121105E+01  0.11113773075E+02  0.51100000000E-03 0. -1.
        -11    1    3    3    0    0  0.10066194522E+02  0.48177310801E+01  0.11996456131E+02  0.16384558733E+02  0.51100000000E-03 0.  1.
         12    1    3    3    0    0  0.78630681927E+00 -0.46551976977E+01  0.19731997756E+02  0.20288934902E+02  0.00000000000E+00 0. -1.
</event>
<event>
 7    1  0.3742599E-009  0.4778727E+02  0.7816164E-02  0.1312668E+00
        -11   -1    0    0    0    0  0.00000000000E+00  0.00000000000E+00  0.45593999997E+02  0.45594000000E+02  0.51100000000E-03 0. -1.
         11   -1    0    0    0    0 -0.00000000000E+00 -0.00000000000E+00 -0.45593999997E+02  0.45594000000E+02  0.51100000000E-03 0.  1.
    9900012    2    1    2    0    0 -0.41951676103E+02 -0.10688899972E+02  0.30704122219E+01  0.47787272568E+02  0.20000006946E+02 0.  0.
        -12    1    1    2    0    0  0.41951676103E+02  0.10688899972E+02 -0.30704122219E+01  0.43400727432E+02  0.00000000000E+00 0.  1.
         11    1    3    3    0    0 -0.39689061378E+01 -0.13049347148E+01  0.20695435717E+01  0.46624115431E+01  0.51100000000E-03 0. -1.
        -11    1    3    3    0    0 -0.88234227348E+00  0.57914013152E+00  0.44330267035E+01  0.45569350659E+01  0.51100000000E-03 0.  1.
        -12    1    3    3    0    0 -0.37100427691E+02 -0.99631053883E+01 -0.34321580534E+01  0.38567925959E+02  0.00000000000E+00 0.  1.
</event>
<event>
 7    1  0.3742599E-009  0.4778727E+02  0.7816164E-02  0.1312668E+00
        -11   -1    0    0    0    0  0.00000000000E+00  0.00000000000E+00  0.45593999997E+02  0.45594000000E+02  0.51100000000E-03 0.  1.
         11   -1    0    0    0    0 -0.00000000000E+00 -0.00000000000E+00 -0.45593999997E+02  0.45594000000E+02  0.51100000000E-03 0. -1.
    9900012    2    1    2    0    0  0.36212170754E+02 -0.12402605500E+01 -0.23890664805E+02  0.47787269340E+02  0.19999992230E+02 0.  0.
        -12    1    1    2    0    0 -0.36212170754E+02  0.12402605500E+01  0.23890664805E+02  0.43400730660E+02  0.00000000000E+00 0.  1.
         11    1    3    3    0    0  0.14170454009E+02 -0.27386311252E+01 -0.22435227447E+01  0.14606000884E+02  0.51100000000E-03 0. -1.
        -11    1    3    3    0    0  0.19521335194E+02  0.15972339188E+01 -0.11473615154E+02  0.22699725305E+02  0.51100000000E-03 0.  1.
        -12    1    3    3    0    0  0.25203815516E+01 -0.98863343618E-01 -0.10173526906E+02  0.10481543151E+02  0.00000000000E+00 0.  1.
</event>
<event>
 7    1  0.3742599E-009  0.4778727E+02  0.7816164E-02  0.1312668E+00
        -11   -1    0    0    0    0  0.00000000000E+00  0.00000000000E+00  0.45593999997E+02  0.45594000000E+02  0.51100000000E-03 0.  1.
         11   -1    0    0    0    0 -0.00000000000E+00 -0.00000000000E+00 -0.45593999997E+02  0.45594000000E+02  0.51100000000E-03 0. -1.
    9900012    2    1    2    0    0  0.26303523709E+02  0.45278988808E+01 -0.34223471346E+02  0.47787271679E+02  0.20000002895E+02 0.  0.
        -12    1    1    2    0    0 -0.26303523709E+02 -0.45278988808E+01  0.34223471346E+02  0.43400728321E+02  0.00000000000E+00 0.  1.
         11    1    3    3    0    0 -0.14675333563E+01 -0.53543875298E+00 -0.48526731891E+01  0.50979197867E+01  0.51100000000E-03 0. -1.
        -11    1    3    3    0    0  0.15056161989E+01 -0.18359147504E+01 -0.73583606087E+01  0.77319424608E+01  0.51100000000E-03 0.  1.
         12    1    3    3    0    0  0.26265440866E+02  0.68992523841E+01 -0.22012437548E+02  0.34957409432E+02  0.00000000000E+00 0. -1.
</event>
<event>
 7    1  0.3742599E-009  0.4778727E+02  0.7816164E-02  0.1312668E+00
        -11   -1    0    0    0    0  0.00000000000E+00  0.00000000000E+00  0.45593999997E+02  0.45594000000E+02  0.51100000000E-03 0.  1.
         11   -1    0    0    0    0 -0.00000000000E+00 -0.00000000000E+00 -0.45593999997E+02  0.45594000000E+02  0.51100000000E-03 0. -1.
    9900012    2    1    2    0    0  0.17804936440E+02  0.34592893914E+02 -0.19233805875E+02  0.47787270059E+02  0.19999995506E+02 0.  0.
        -12    1    1    2    0    0 -0.17804936440E+02 -0.34592893914E+02  0.19233805875E+02  0.43400729941E+02  0.00000000000E+00 0.  1.
         11    1    3    3    0    0 -0.87713749800E+00  0.66757892249E+01 -0.27168368662E+01  0.72606290902E+01  0.51100000000E-03 0. -1.
        -11    1    3    3    0    0  0.11089230580E+02  0.14543516887E+02 -0.46231511110E+00  0.18294771215E+02  0.51100000000E-03 0.  1.
        -12    1    3    3    0    0  0.75928433580E+01  0.13373587803E+02 -0.16054653897E+02  0.22231869754E+02  0.00000000000E+00 0.  1.
</event>
<event>
 7    1  0.3742599E-009  0.4778727E+02  0.7816164E-02  0.1312668E+00
        -11   -1    0    0    0    0  0.00000000000E+00  0.00000000000E+00  0.45593999997E+02  0.45594000000E+02  0.51100000000E-03 0. -1.
         11   -1    0    0    0    0 -0.00000000000E+00 -0.00000000000E+00 -0.45593999997E+02  0.45594000000E+02  0.51100000000E-03 0.  1.
    9900012    2    1    2    0    0 -0.10308445513E+01  0.42819162544E+02  0.70057130614E+01  0.47787270317E+02  0.19999996685E+02 0.  0.
        -12    1    1    2    0    0  0.10308445513E+01 -0.42819162544E+02 -0.70057130614E+01  0.43400729683E+02  0.00000000000E+00 0.  1.
         11    1    3    3    0    0 -0.69825010015E+01  0.16781260934E+02  0.21014328727E+01  0.18297050559E+02  0.51100000000E-03 0. -1.
        -11    1    3    3    0    0 -0.33256807936E+00 -0.40219988068E+00  0.21062092550E+01  0.21699041358E+01  0.51100000000E-03 0.  1.
        -12    1    3    3    0    0  0.62842245295E+01  0.26440101491E+02  0.27980709337E+01  0.27320315623E+02  0.00000000000E+00 0.  1.
</event>
<event>
 7    1  0.3742599E-009  0.4778727E+02  0.7816164E-02  0.1312668E+00
        -11   -1    0    0    0    0  0.00000000000E+00  0.00000000000E+00  0.45593999997E+02  0.45594000000E+02  0.51100000000E-03 0.  1.
         11   -1    0    0    0    0 -0.00000000000E+00 -0.00000000000E+00 -0.45593999997E+02  0.45594000000E+02  0.51100000000E-03 0. -1.
    9900012    2    1    2    0    0 -0.32168715924E+02 -0.81756684946E+01 -0.27963466757E+02  0.47787270598E+02  0.19999997964E+02 0.  0.
        -12    1    1    2    0    0  0.32168715924E+02  0.81756684946E+01  0.27963466757E+02  0.43400729402E+02  0.00000000000E+00 0.  1.
         11    1    3    3    0    0 -0.94885274976E+01 -0.13006981829E+01 -0.15215144729E+02  0.17978448187E+02  0.51100000000E-03 0. -1.
        -11    1    3    3    0    0 -0.20966569322E+02 -0.80986383674E+01 -0.14765810659E+02  0.26892640949E+02  0.51100000000E-03 0.  1.
         12    1    3    3    0    0 -0.17136191048E+01  0.12236680556E+01  0.20174886303E+01  0.29161814621E+01  0.00000000000E+00 0. -1.
</event>
<event>
 7    1  0.3742599E-009  0.4778727E+02  0.7816164E-02  0.1312668E+00
        -11   -1    0    0    0    0  0.00000000000E+00  0.00000000000E+00  0.45593999997E+02  0.45594000000E+02  0.51100000000E-03 0.  1.
         11   -1    0    0    0    0 -0.00000000000E+00 -0.00000000000E+00 -0.45593999997E+02  0.45594000000E+02  0.51100000000E-03 0. -1.
    9900012    2    1    2    0    0  0.17805490593E+02  0.33030164941E+02 -0.21808165115E+02  0.47787270088E+02  0.19999995638E+02 0.  0.
        -12    1    1    2    0    0 -0.17805490593E+02 -0.33030164941E+02  0.21808165115E+02  0.43400729912E+02  0.00000000000E+00 0.  1.
         11    1    3    3    0    0  0.15610967771E+02  0.29619198852E+02 -0.12634177505E+02  0.35785775063E+02  0.51100000000E-03 0. -1.
        -11    1    3    3    0    0 -0.22234755344E+01  0.34920201380E+00 -0.18314849095E+01  0.29017447740E+01  0.51100000000E-03 0.  1.
        -12    1    3    3    0    0  0.44179983558E+01  0.30617640751E+01 -0.73425027003E+01  0.90997502508E+01  0.00000000000E+00 0.  1.
</event>
<event>
 7    1  0.3742599E-009  0.4778726E+02  0.7816164E-02  0.1312668E+00
        -11   -1    0    0    0    0  0.00000000000E+00  0.00000000000E+00  0.45593999997E+02  0.45594000000E+02  0.51100000000E-03 0.  1.
         11   -1    0    0    0    0 -0.00000000000E+00 -0.00000000000E+00 -0.45593999997E+02  0.45594000000E+02  0.51100000000E-03 0. -1.
    9900012    2    1    2    0    0 -0.37961453853E+00 -0.12624109806E+02 -0.41522422600E+02  0.47787264590E+02  0.19999970571E+02 0.  0.
        -12    1    1    2    0    0  0.37961453853E+00  0.12624109806E+02  0.41522422600E+02  0.43400735410E+02  0.00000000000E+00 0.  1.
         11    1    3    3    0    0 -0.20191283830E+01 -0.11246759646E+01 -0.32529734970E+01  0.39904401118E+01  0.51100000000E-03 0. -1.
        -11    1    3    3    0    0  0.33328547423E+01 -0.16034190885E+02 -0.31060243505E+02  0.35113272774E+02  0.51100000000E-03 0.  1.
        -12    1    3    3    0    0 -0.16933408979E+01  0.45347570438E+01 -0.72092055978E+01  0.86835517039E+01  0.00000000000E+00 0.  1.
</event>
<event>
 7    1  0.3742599E-009  0.4778727E+02  0.7816164E-02  0.1312668E+00
        -11   -1    0    0    0    0  0.00000000000E+00  0.00000000000E+00  0.45593999997E+02  0.45594000000E+02  0.51100000000E-03 0. -1.
         11   -1    0    0    0    0 -0.00000000000E+00 -0.00000000000E+00 -0.45593999997E+02  0.45594000000E+02  0.51100000000E-03 0.  1.
    9900012    2    1    2    0    0 -0.19455009071E+02 -0.18881829374E+01  0.38749977799E+02  0.47787269682E+02  0.19999993787E+02 0.  0.
        -12    1    1    2    0    0  0.19455009071E+02  0.18881829374E+01 -0.38749977799E+02  0.43400730318E+02  0.00000000000E+00 0.  1.
         11    1    3    3    0    0 -0.15172396845E+02 -0.55817807308E+01  0.36685022773E+02  0.40089260386E+02  0.51100000000E-03 0. -1.
        -11    1    3    3    0    0 -0.34792791013E+01  0.32984817717E+01  0.35489213191E+01  0.59649147398E+01  0.51100000000E-03 0.  1.
         12    1    3    3    0    0 -0.80333312372E+00  0.39511602174E+00 -0.14839662938E+01  0.17330945558E+01  0.00000000000E+00 0. -1.
</event>
<event>
 7    1  0.3742599E-009  0.4778727E+02  0.7816164E-02  0.1312668E+00
        -11   -1    0    0    0    0  0.00000000000E+00  0.00000000000E+00  0.45593999997E+02  0.45594000000E+02  0.51100000000E-03 0.  1.
         11   -1    0    0    0    0 -0.00000000000E+00 -0.00000000000E+00 -0.45593999997E+02  0.45594000000E+02  0.51100000000E-03 0. -1.
    9900012    2    1    2    0    0 -0.28675504349E+02  0.31875250449E+02  0.67310521159E+01  0.47787271856E+02  0.20000003699E+02 0.  0.
        -12    1    1    2    0    0  0.28675504349E+02 -0.31875250449E+02 -0.67310521159E+01  0.43400728144E+02  0.00000000000E+00 0.  1.
         11    1    3    3    0    0 -0.21143507790E+02  0.29680408973E+02  0.76106713436E+01  0.37227636469E+02  0.51100000000E-03 0. -1.
        -11    1    3    3    0    0 -0.17590266246E+01  0.29559981933E+01  0.20881897354E+01  0.40240075319E+01  0.51100000000E-03 0.  1.
        -12    1    3    3    0    0 -0.57729699350E+01 -0.76115671802E+00 -0.29678089631E+01  0.65356278552E+01  0.00000000000E+00 0.  1.
</event>
<event>
 7    1  0.3742599E-009  0.4778727E+02  0.7816164E-02  0.1312668E+00
        -11   -1    0    0    0    0  0.00000000000E+00  0.00000000000E+00  0.45593999997E+02  0.45594000000E+02  0.51100000000E-03 0.  1.
         11   -1    0    0    0    0 -0.00000000000E+00 -0.00000000000E+00 -0.45593999997E+02  0.45594000000E+02  0.51100000000E-03 0. -1.
    9900012    2    1    2    0    0 -0.92836260794E+01 -0.21832071094E+02 -0.36342789965E+02  0.47787269316E+02  0.19999992119E+02 0.  0.
        -12    1    1    2    0    0  0.92836260794E+01  0.21832071094E+02  0.36342789965E+02  0.43400730684E+02  0.00000000000E+00 0.  1.
         11    1    3    3    0    0 -0.10360342843E+02 -0.67130583368E+01 -0.82871074529E+01  0.14868692150E+02  0.51100000000E-03 0. -1.
        -11    1    3    3    0    0  0.81538733048E+00 -0.46793483457E+01 -0.26243784949E+01  0.54266490752E+01  0.51100000000E-03 0.  1.
         12    1    3    3    0    0  0.26132943360E+00 -0.10439664412E+02 -0.25431304017E+02  0.27491928090E+02  0.00000000000E+00 0. -1.
</event>
<event>
 7    1  0.3742599E-009  0.4778727E+02  0.7816164E-02  0.1312668E+00
        -11   -1    0    0    0    0  0.00000000000E+00  0.00000000000E+00  0.45593999997E+02  0.45594000000E+02  0.51100000000E-03 0. -1.
         11   -1    0    0    0    0 -0.00000000000E+00 -0.00000000000E+00 -0.45593999997E+02  0.45594000000E+02  0.51100000000E-03 0.  1.
    9900012    2    1    2    0    0 -0.32435278016E+02  0.11174611765E+02  0.26583902884E+02  0.47787273040E+02  0.20000009099E+02 0.  0.
        -12    1    1    2    0    0  0.32435278016E+02 -0.11174611765E+02 -0.26583902884E+02  0.43400726960E+02  0.00000000000E+00 0.  1.
         11    1    3    3    0    0  0.94445361568E-01 -0.19276041492E+01  0.15480751380E+01  0.24740886355E+01  0.51100000000E-03 0. -1.
        -11    1    3    3    0    0 -0.16739002899E+02 -0.23582747199E+00  0.81317374912E+01  0.18611152236E+02  0.51100000000E-03 0.  1.
         12    1    3    3    0    0 -0.15790720479E+02  0.13338043386E+02  0.16904090255E+02  0.26702032169E+02  0.00000000000E+00 0. -1.
</event>
<event>
 7    1  0.3742599E-009  0.4778727E+02  0.7816164E-02  0.1312668E+00
        -11   -1    0    0    0    0  0.00000000000E+00  0.00000000000E+00  0.45593999997E+02  0.45594000000E+02  0.51100000000E-03 0. -1.
         11   -1    0    0    0    0 -0.00000000000E+00 -0.00000000000E+00 -0.45593999997E+02  0.45594000000E+02  0.51100000000E-03 0.  1.
    9900012    2    1    2    0    0  0.18615252191E+02  0.35971255272E+02  0.15593725548E+02  0.47787273089E+02  0.20000009320E+02 0.  0.
        -12    1    1    2    0    0 -0.18615252191E+02 -0.35971255272E+02 -0.15593725548E+02  0.43400726911E+02  0.00000000000E+00 0.  1.
         11    1    3    3    0    0  0.23281275462E+01  0.15365522321E+02  0.82900459201E+01  0.17613753594E+02  0.51100000000E-03 0. -1.
        -11    1    3    3    0    0  0.67111159241E+01  0.64726649125E+01  0.90737520756E+01  0.13010282280E+02  0.51100000000E-03 0.  1.
        -12    1    3    3    0    0  0.95760087209E+01  0.14133068038E+02 -0.17700724475E+01  0.17163237214E+02  0.00000000000E+00 0.  1.
</event>
<event>
 7    1  0.3742599E-009  0.4778727E+02  0.7816164E-02  0.1312668E+00
        -11   -1    0    0    0    0  0.00000000000E+00  0.00000000000E+00  0.45593999997E+02  0.45594000000E+02  0.51100000000E-03 0.  1.
         11   -1    0    0    0    0 -0.00000000000E+00 -0.00000000000E+00 -0.45593999997E+02  0.45594000000E+02  0.51100000000E-03 0. -1.
    9900012    2    1    2    0    0 -0.39428191053E+02  0.16394113957E+02 -0.77636261286E+01  0.47787272900E+02  0.20000008461E+02 0.  0.
        -12    1    1    2    0    0  0.39428191053E+02 -0.16394113957E+02  0.77636261286E+01  0.43400727100E+02  0.00000000000E+00 0.  1.
         11    1    3    3    0    0 -0.15027210672E+02  0.84201611687E+01 -0.78545037706E+01  0.18931703685E+02  0.51100000000E-03 0. -1.
        -11    1    3    3    0    0 -0.39060346936E+01 -0.31886869401E+01 -0.19998836311E+01  0.54244231241E+01  0.51100000000E-03 0.  1.
         12    1    3    3    0    0 -0.20494945688E+02  0.11162639728E+02  0.20907612731E+01  0.23431146091E+02  0.00000000000E+00 0. -1.
</event>
<event>
 7    1  0.3742599E-009  0.4778728E+02  0.7816164E-02  0.1312668E+00
        -11   -1    0    0    0    0  0.00000000000E+00  0.00000000000E+00  0.45593999997E+02  0.45594000000E+02  0.51100000000E-03 0.  1.
         11   -1    0    0    0    0 -0.00000000000E+00 -0.00000000000E+00 -0.45593999997E+02  0.45594000000E+02  0.51100000000E-03 0. -1.
    9900012    2    1    2    0    0  0.27080055246E+00  0.41003211741E+02 -0.14222734501E+02  0.47787275551E+02  0.20000020549E+02 0.  0.
        -12    1    1    2    0    0 -0.27080055246E+00 -0.41003211741E+02  0.14222734501E+02  0.43400724449E+02  0.00000000000E+00 0.  1.
         11    1    3    3    0    0  0.15278013508E+01  0.16385736355E+02 -0.33475740383E+01  0.16793831757E+02  0.51100000000E-03 0. -1.
        -11    1    3    3    0    0 -0.87350275457E+00  0.12086311614E+02  0.28042006927E+01  0.12438065657E+02  0.51100000000E-03 0.  1.
        -12    1    3    3    0    0 -0.38349804378E+00  0.12531163771E+02 -0.13679361156E+02  0.18555378138E+02  0.00000000000E+00 0.  1.
</event>
<event>
 7    1  0.3742599E-009  0.4778727E+02  0.7816164E-02  0.1312668E+00
        -11   -1    0    0    0    0  0.00000000000E+00  0.00000000000E+00  0.45593999997E+02  0.45594000000E+02  0.51100000000E-03 0. -1.
         11   -1    0    0    0    0 -0.00000000000E+00 -0.00000000000E+00 -0.45593999997E+02  0.45594000000E+02  0.51100000000E-03 0.  1.
    9900012    2    1    2    0    0 -0.62562134070E+01  0.31507045901E+02  0.29185423604E+02  0.47787273064E+02  0.20000009210E+02 0.  0.
        -12    1    1    2    0    0  0.62562134070E+01 -0.31507045901E+02 -0.29185423604E+02  0.43400726936E+02  0.00000000000E+00 0.  1.
         11    1    3    3    0    0 -0.32413110529E+01  0.19563188900E+02  0.14716525378E+02  0.24694140534E+02  0.51100000000E-03 0. -1.
        -11    1    3    3    0    0 -0.78312470685E+01  0.88608973500E+01  0.72021726002E+01  0.13846126640E+02  0.51100000000E-03 0.  1.
        -12    1    3    3    0    0  0.48163447145E+01  0.30829596514E+01  0.72667256258E+01  0.92470058906E+01  0.00000000000E+00 0.  1.
</event>
<event>
 7    1  0.3742599E-009  0.4778727E+02  0.7816164E-02  0.1312668E+00
        -11   -1    0    0    0    0  0.00000000000E+00  0.00000000000E+00  0.45593999997E+02  0.45594000000E+02  0.51100000000E-03 0.  1.
         11   -1    0    0    0    0 -0.00000000000E+00 -0.00000000000E+00 -0.45593999997E+02  0.45594000000E+02  0.51100000000E-03 0. -1.
    9900012    2    1    2    0    0 -0.20486503815E+02  0.11127735898E+02 -0.36607377714E+02  0.47787269040E+02  0.19999990862E+02 0.  0.
        -12    1    1    2    0    0  0.20486503815E+02 -0.11127735898E+02  0.36607377714E+02  0.43400730960E+02  0.00000000000E+00 0.  1.
         11    1    3    3    0    0  0.19323818245E+01  0.10712703544E+01 -0.50274611374E+01  0.54915467253E+01  0.51100000000E-03 0. -1.
        -11    1    3    3    0    0  0.28556007090E+00  0.43092282071E+01 -0.78196968821E+01  0.89330091170E+01  0.51100000000E-03 0.  1.
        -12    1    3    3    0    0 -0.22704445710E+02  0.57472373369E+01 -0.23760219694E+02  0.33362713198E+02  0.00000000000E+00 0.  1.
</event>
<event>
 7    1  0.3742599E-009  0.4778727E+02  0.7816164E-02  0.1312668E+00
        -11   -1    0    0    0    0  0.00000000000E+00  0.00000000000E+00  0.45593999997E+02  0.45594000000E+02  0.51100000000E-03 0. -1.
         11   -1    0    0    0    0 -0.00000000000E+00 -0.00000000000E+00 -0.45593999997E+02  0.45594000000E+02  0.51100000000E-03 0.  1.
    9900012    2    1    2    0    0  0.41202644906E+02  0.42972795944E+01  0.12942145366E+02  0.47787266298E+02  0.19999978361E+02 0.  0.
        -12    1    1    2    0    0 -0.41202644906E+02 -0.42972795944E+01 -0.12942145366E+02  0.43400733702E+02  0.00000000000E+00 0.  1.
         11    1    3    3    0    0  0.69211637708E+01  0.57044589962E+01  0.15732234977E+01  0.91059537017E+01  0.51100000000E-03 0. -1.
        -11    1    3    3    0    0  0.15343455613E+02  0.31869091798E+01  0.11079253490E+02  0.19191870112E+02  0.51100000000E-03 0.  1.
         12    1    3    3    0    0  0.18938025522E+02 -0.45940885816E+01  0.28966837840E+00  0.19489442484E+02  0.00000000000E+00 0. -1.
</event>
<event>
 7    1  0.3742599E-009  0.4778727E+02  0.7816164E-02  0.1312668E+00
        -11   -1    0    0    0    0  0.00000000000E+00  0.00000000000E+00  0.45593999997E+02  0.45594000000E+02  0.51100000000E-03 0. -1.
         11   -1    0    0    0    0 -0.00000000000E+00 -0.00000000000E+00 -0.45593999997E+02  0.45594000000E+02  0.51100000000E-03 0.  1.
    9900012    2    1    2    0    0 -0.26803556945E+02  0.12002970805E+02  0.31954989620E+02  0.47787270344E+02  0.19999996806E+02 0.  0.
        -12    1    1    2    0    0  0.26803556945E+02 -0.12002970805E+02 -0.31954989620E+02  0.43400729656E+02  0.00000000000E+00 0.  1.
         11    1    3    3    0    0 -0.18253480442E+02  0.12302395017E+02  0.24147360079E+02  0.32674660984E+02  0.51100000000E-03 0. -1.
        -11    1    3    3    0    0 -0.29898404603E+01  0.41585754430E+01  0.92433450253E+00  0.52045451508E+01  0.51100000000E-03 0.  1.
        -12    1    3    3    0    0 -0.55602360433E+01 -0.44579996550E+01  0.68832950382E+01  0.99080642087E+01  0.00000000000E+00 0.  1.
</event>
<event>
 7    1  0.3742599E-009  0.4778727E+02  0.7816164E-02  0.1312668E+00
        -11   -1    0    0    0    0  0.00000000000E+00  0.00000000000E+00  0.45593999997E+02  0.45594000000E+02  0.51100000000E-03 0.  1.
         11   -1    0    0    0    0 -0.00000000000E+00 -0.00000000000E+00 -0.45593999997E+02  0.45594000000E+02  0.51100000000E-03 0. -1.
    9900012    2    1    2    0    0  0.19417694664E+02 -0.15486138983E+01 -0.38783734215E+02  0.47787272924E+02  0.20000008570E+02 0.  0.
        -12    1    1    2    0    0 -0.19417694664E+02  0.15486138983E+01  0.38783734215E+02  0.43400727076E+02  0.00000000000E+00 0.  1.
         11    1    3    3    0    0 -0.12475341567E+01 -0.49269337191E+01 -0.41526189114E+01  0.65631746456E+01  0.51100000000E-03 0. -1.
        -11    1    3    3    0    0  0.49756553800E+01  0.14158079745E+01 -0.33195326153E+01  0.61466214888E+01  0.51100000000E-03 0.  1.
         12    1    3    3    0    0  0.15689573440E+02  0.19625118462E+01 -0.31311582688E+02  0.35077476790E+02  0.00000000000E+00 0. -1.
</event>
<event>
 7    1  0.3742599E-009  0.4778727E+02  0.7816164E-02  0.1312668E+00
        -11   -1    0    0    0    0  0.00000000000E+00  0.00000000000E+00  0.45593999997E+02  0.45594000000E+02  0.51100000000E-03 0. -1.
         11   -1    0    0    0    0 -0.00000000000E+00 -0.00000000000E+00 -0.45593999997E+02  0.45594000000E+02  0.51100000000E-03 0.  1.
    9900012    2    1    2    0    0 -0.11708531685E+02  0.71093119165E+01  0.41182415333E+02  0.47787270020E+02  0.19999995330E+02 0.  0.
        -12    1    1    2    0    0  0.11708531685E+02 -0.71093119165E+01 -0.41182415333E+02  0.43400729980E+02  0.00000000000E+00 0.  1.
         11    1    3    3    0    0 -0.96965332835E+01  0.13082317472E+02  0.21358999567E+02  0.26858455855E+02  0.51100000000E-03 0. -1.
        -11    1    3    3    0    0 -0.43424012572E+00 -0.12490910441E+00  0.48007819744E+00  0.65927392481E+00  0.51100000000E-03 0.  1.
        -12    1    3    3    0    0 -0.15777582757E+01 -0.58480964510E+01  0.19343337569E+02  0.20269540241E+02  0.00000000000E+00 0.  1.
</event>
<event>
 7    1  0.3742599E-009  0.4778731E+02  0.7816164E-02  0.1312668E+00
        -11   -1    0    0    0    0  0.00000000000E+00  0.00000000000E+00  0.45593999997E+02  0.45594000000E+02  0.51100000000E-03 0.  1.
         11   -1    0    0    0    0 -0.00000000000E+00 -0.00000000000E+00 -0.45593999997E+02  0.45594000000E+02  0.51100000000E-03 0. -1.
    9900012    2    1    2    0    0 -0.12857970047E+02 -0.11384766257E+02 -0.39858243328E+02  0.47787310402E+02  0.20000179444E+02 0.  0.
        -12    1    1    2    0    0  0.12857970047E+02  0.11384766257E+02  0.39858243328E+02  0.43400689598E+02  0.00000000000E+00 0.  1.
         11    1    3    3    0    0 -0.11731657155E+02 -0.36050668306E+01 -0.27119734306E+02  0.29767570871E+02  0.51100000000E-03 0. -1.
        -11    1    3    3    0    0 -0.51238342200E+01 -0.69671681027E+01 -0.90909796598E+01  0.12547550355E+02  0.51100000000E-03 0.  1.
         12    1    3    3    0    0  0.39975213285E+01 -0.81253132324E+00 -0.36475293618E+01  0.54721891751E+01  0.00000000000E+00 0. -1.
</event>
<event>
 7    1  0.3742599E-009  0.4778727E+02  0.7816164E-02  0.1312668E+00
        -11   -1    0    0    0    0  0.00000000000E+00  0.00000000000E+00  0.45593999997E+02  0.45594000000E+02  0.51100000000E-03 0.  1.
         11   -1    0    0    0    0 -0.00000000000E+00 -0.00000000000E+00 -0.45593999997E+02  0.45594000000E+02  0.51100000000E-03 0. -1.
    9900012    2    1    2    0    0 -0.73796175097E+01  0.34500831537E+02 -0.25275628863E+02  0.47787267913E+02  0.19999985721E+02 0.  0.
        -12    1    1    2    0    0  0.73796175097E+01 -0.34500831537E+02  0.25275628863E+02  0.43400732087E+02  0.00000000000E+00 0.  1.
         11    1    3    3    0    0 -0.85283755834E+01  0.25351443317E+02 -0.16734430986E+02  0.31551070489E+02  0.51100000000E-03 0. -1.
        -11    1    3    3    0    0 -0.45102980077E+01  0.46964835667E+01 -0.50113508439E+01  0.82166528192E+01  0.51100000000E-03 0.  1.
        -12    1    3    3    0    0  0.56590560814E+01  0.44529046531E+01 -0.35298470327E+01  0.80195446040E+01  0.00000000000E+00 0.  1.
</event>
<event>
 7    1  0.3742599E-009  0.4778728E+02  0.7816164E-02  0.1312668E+00
        -11   -1    0    0    0    0  0.00000000000E+00  0.00000000000E+00  0.45593999997E+02  0.45594000000E+02  0.51100000000E-03 0.  1.
         11   -1    0    0    0    0 -0.00000000000E+00 -0.00000000000E+00 -0.45593999997E+02  0.45594000000E+02  0.51100000000E-03 0. -1.
    9900012    2    1    2    0    0 -0.19646155291E+02 -0.58408629582E+01 -0.38256186619E+02  0.47787275209E+02  0.20000018987E+02 0.  0.
        -12    1    1    2    0    0  0.19646155291E+02  0.58408629582E+01  0.38256186619E+02  0.43400724791E+02  0.00000000000E+00 0.  1.
         11    1    3    3    0    0 -0.23588343208E+01  0.32448938347E-02 -0.16743346523E+01  0.28926642860E+01  0.51100000000E-03 0. -1.
        -11    1    3    3    0    0 -0.17661269042E+02 -0.35528626792E+01 -0.15736256423E+02  0.23920138458E+02  0.51100000000E-03 0.  1.
         12    1    3    3    0    0  0.37394807248E+00 -0.22912451728E+01 -0.20845595543E+02  0.20974472465E+02  0.00000000000E+00 0. -1.
</event>
<event>
 7    1  0.3742599E-009  0.4778727E+02  0.7816164E-02  0.1312668E+00
        -11   -1    0    0    0    0  0.00000000000E+00  0.00000000000E+00  0.45593999997E+02  0.45594000000E+02  0.51100000000E-03 0.  1.
         11   -1    0    0    0    0 -0.00000000000E+00 -0.00000000000E+00 -0.45593999997E+02  0.45594000000E+02  0.51100000000E-03 0. -1.
    9900012    2    1    2    0    0  0.12127251844E+02 -0.19318432544E+01 -0.41627170926E+02  0.47787267115E+02  0.19999982083E+02 0.  0.
        -12    1    1    2    0    0 -0.12127251844E+02  0.19318432544E+01  0.41627170926E+02  0.43400732885E+02  0.00000000000E+00 0.  1.
         11    1    3    3    0    0 -0.13471502913E+01 -0.17698659500E+01 -0.75946487762E+00  0.23503247754E+01  0.51100000000E-03 0. -1.
        -11    1    3    3    0    0  0.17121113283E+01 -0.54287046231E+01 -0.60322292001E+01  0.82939706093E+01  0.51100000000E-03 0.  1.
         12    1    3    3    0    0  0.11762290807E+02  0.52667273187E+01 -0.34835476849E+02  0.37142971730E+02  0.00000000000E+00 0. -1.
</event>
<event>
 7    1  0.3742599E-009  0.4778728E+02  0.7816164E-02  0.1312668E+00
        -11   -1    0    0    0    0  0.00000000000E+00  0.00000000000E+00  0.45593999997E+02  0.45594000000E+02  0.51100000000E-03 0.  1.
         11   -1    0    0    0    0 -0.00000000000E+00 -0.00000000000E+00 -0.45593999997E+02  0.45594000000E+02  0.51100000000E-03 0. -1.
    9900012    2    1    2    0    0 -0.24402835301E+02 -0.11762121931E+02 -0.33908350032E+02  0.47787284741E+02  0.20000062450E+02 0.  0.
        -12    1    1    2    0    0  0.24402835301E+02  0.11762121931E+02  0.33908350032E+02  0.43400715259E+02  0.00000000000E+00 0.  1.
         11    1    3    3    0    0 -0.13022055506E+02 -0.99684971766E+01 -0.17960872766E+02  0.24321550451E+02  0.51100000000E-03 0. -1.
        -11    1    3    3    0    0 -0.12146540237E+02 -0.31953484168E+01 -0.70039188253E+01  0.14380666549E+02  0.51100000000E-03 0.  1.
         12    1    3    3    0    0  0.76576044160E+00  0.14017236621E+01 -0.89435584408E+01  0.90850677413E+01  0.00000000000E+00 0. -1.
</event>
<event>
 7    1  0.3742599E-009  0.4778726E+02  0.7816164E-02  0.1312668E+00
        -11   -1    0    0    0    0  0.00000000000E+00  0.00000000000E+00  0.45593999997E+02  0.45594000000E+02  0.51100000000E-03 0.  1.
         11   -1    0    0    0    0 -0.00000000000E+00 -0.00000000000E+00 -0.45593999997E+02  0.45594000000E+02  0.51100000000E-03 0. -1.
    9900012    2    1    2    0    0 -0.20819353150E+02 -0.12592821438E+02 -0.35938830832E+02  0.47787260617E+02  0.19999952459E+02 0.  0.
        -12    1    1    2    0    0  0.20819353150E+02  0.12592821438E+02  0.35938830832E+02  0.43400739383E+02  0.00000000000E+00 0.  1.
         11    1    3    3    0    0 -0.16704348313E+02 -0.75660099345E+01 -0.31360028354E+02  0.36328103962E+02  0.51100000000E-03 0. -1.
        -11    1    3    3    0    0 -0.38324819645E+01 -0.12166214651E+01 -0.61337265482E+01  0.73342134839E+01  0.51100000000E-03 0.  1.
        -12    1    3    3    0    0 -0.28252287243E+00 -0.38101900387E+01  0.15549240696E+01  0.41249431713E+01  0.00000000000E+00 0.  1.
</event>
<event>
 7    1  0.3742599E-009  0.4778727E+02  0.7816164E-02  0.1312668E+00
        -11   -1    0    0    0    0  0.00000000000E+00  0.00000000000E+00  0.45593999997E+02  0.45594000000E+02  0.51100000000E-03 0.  1.
         11   -1    0    0    0    0 -0.00000000000E+00 -0.00000000000E+00 -0.45593999997E+02  0.45594000000E+02  0.51100000000E-03 0. -1.
    9900012    2    1    2    0    0  0.50092447460E+00  0.56857341177E+01 -0.43023770586E+02  0.47787270361E+02  0.19999996883E+02 0.  0.
        -12    1    1    2    0    0 -0.50092447460E+00 -0.56857341177E+01  0.43023770586E+02  0.43400729639E+02  0.00000000000E+00 0.  1.
         11    1    3    3    0    0 -0.17642612013E+01 -0.19734107657E+01 -0.23928655828E+02  0.24074624350E+02  0.51100000000E-03 0. -1.
        -11    1    3    3    0    0  0.12597327855E+01 -0.27343287973E+01 -0.76437803001E+01  0.82152819916E+01  0.51100000000E-03 0.  1.
        -12    1    3    3    0    0  0.10054528904E+01  0.10393473681E+02 -0.11451334458E+02  0.15497364019E+02  0.00000000000E+00 0.  1.
</event>
<event>
 7    1  0.3742599E-009  0.4778727E+02  0.7816164E-02  0.1312668E+00
        -11   -1    0    0    0    0  0.00000000000E+00  0.00000000000E+00  0.45593999997E+02  0.45594000000E+02  0.51100000000E-03 0.  1.
         11   -1    0    0    0    0 -0.00000000000E+00 -0.00000000000E+00 -0.45593999997E+02  0.45594000000E+02  0.51100000000E-03 0. -1.
    9900012    2    1    2    0    0 -0.35062158307E+02  0.19110934691E+02 -0.17001188132E+02  0.47787272267E+02  0.20000005573E+02 0.  0.
        -12    1    1    2    0    0  0.35062158307E+02 -0.19110934691E+02  0.17001188132E+02  0.43400727733E+02  0.00000000000E+00 0.  1.
         11    1    3    3    0    0 -0.12288266282E+02  0.92853676329E+01 -0.55597122610E+01  0.16374673767E+02  0.51100000000E-03 0. -1.
        -11    1    3    3    0    0 -0.63223683053E+01  0.92548634961E+01 -0.97661382522E+01  0.14866145968E+02  0.51100000000E-03 0.  1.
         12    1    3    3    0    0 -0.16451523719E+02  0.57070356184E+00 -0.16753376188E+01  0.16546452532E+02  0.00000000000E+00 0. -1.
</event>
<event>
 7    1  0.3742599E-009  0.4778727E+02  0.7816164E-02  0.1312668E+00
        -11   -1    0    0    0    0  0.00000000000E+00  0.00000000000E+00  0.45593999997E+02  0.45594000000E+02  0.51100000000E-03 0. -1.
         11   -1    0    0    0    0 -0.00000000000E+00 -0.00000000000E+00 -0.45593999997E+02  0.45594000000E+02  0.51100000000E-03 0.  1.
    9900012    2    1    2    0    0 -0.41095121832E+02  0.11842779056E+02  0.73866777958E+01  0.47787268866E+02  0.19999990067E+02 0.  0.
        -12    1    1    2    0    0  0.41095121832E+02 -0.11842779056E+02 -0.73866777958E+01  0.43400731134E+02  0.00000000000E+00 0.  1.
         11    1    3    3    0    0 -0.23331417518E+02  0.65882971699E+01 -0.10732695154E+01  0.24267521726E+02  0.51100000000E-03 0. -1.
        -11    1    3    3    0    0 -0.95578195276E+01 -0.13126277541E+01 -0.56839512052E+00  0.96642629836E+01  0.51100000000E-03 0.  1.
        -12    1    3    3    0    0 -0.82058847857E+01  0.65671096398E+01  0.90283424317E+01  0.13855484156E+02  0.00000000000E+00 0.  1.
</event>
<event>
 7    1  0.3742599E-009  0.4778725E+02  0.7816164E-02  0.1312668E+00
        -11   -1    0    0    0    0  0.00000000000E+00  0.00000000000E+00  0.45593999997E+02  0.45594000000E+02  0.51100000000E-03 0.  1.
         11   -1    0    0    0    0 -0.00000000000E+00 -0.00000000000E+00 -0.45593999997E+02  0.45594000000E+02  0.51100000000E-03 0. -1.
    9900012    2    1    2    0    0  0.34416496385E+02  0.21438712757E+02 -0.15476146263E+02  0.47787254255E+02  0.19999923450E+02 0.  0.
        -12    1    1    2    0    0 -0.34416496385E+02 -0.21438712757E+02  0.15476146263E+02  0.43400745745E+02  0.00000000000E+00 0.  1.
         11    1    3    3    0    0  0.15622617127E+02  0.42737872759E+01 -0.10607109152E+02  0.19360841624E+02  0.51100000000E-03 0. -1.
        -11    1    3    3    0    0  0.81214723619E+01  0.40892235196E+00 -0.10987297222E+01  0.82056528125E+01  0.51100000000E-03 0.  1.
        -12    1    3    3    0    0  0.10672406896E+02  0.16756003129E+02 -0.37703073887E+01  0.20220759818E+02  0.00000000000E+00 0.  1.
</event>
<event>
 7    1  0.3742599E-009  0.4778728E+02  0.7816164E-02  0.1312668E+00
        -11   -1    0    0    0    0  0.00000000000E+00  0.00000000000E+00  0.45593999997E+02  0.45594000000E+02  0.51100000000E-03 0. -1.
         11   -1    0    0    0    0 -0.00000000000E+00 -0.00000000000E+00 -0.45593999997E+02  0.45594000000E+02  0.51100000000E-03 0.  1.
    9900012    2    1    2    0    0  0.36561320115E+02  0.11726521314E+02 -0.20233174833E+02  0.47787276567E+02  0.20000025182E+02 0.  0.
        -12    1    1    2    0    0 -0.36561320115E+02 -0.11726521314E+02  0.20233174833E+02  0.43400723433E+02  0.00000000000E+00 0.  1.
         11    1    3    3    0    0  0.12715435724E+02  0.44035561850E+01 -0.14971276174E+02  0.20129896256E+02  0.51100000000E-03 0. -1.
        -11    1    3    3    0    0  0.34922726623E+01 -0.26998983903E+01 -0.24076177388E+00  0.44207902188E+01  0.51100000000E-03 0.  1.
         12    1    3    3    0    0  0.20353611729E+02  0.10022863519E+02 -0.50211368844E+01  0.23236590093E+02  0.00000000000E+00 0. -1.
</event>
<event>
 7    1  0.3742599E-009  0.4778726E+02  0.7816164E-02  0.1312668E+00
        -11   -1    0    0    0    0  0.00000000000E+00  0.00000000000E+00  0.45593999997E+02  0.45594000000E+02  0.51100000000E-03 0. -1.
         11   -1    0    0    0    0 -0.00000000000E+00 -0.00000000000E+00 -0.45593999997E+02  0.45594000000E+02  0.51100000000E-03 0.  1.
    9900012    2    1    2    0    0 -0.39703832430E+02 -0.14592471238E+02  0.97102721929E+01  0.47787263686E+02  0.19999966452E+02 0.  0.
        -12    1    1    2    0    0  0.39703832430E+02  0.14592471238E+02 -0.97102721929E+01  0.43400736314E+02  0.00000000000E+00 0.  1.
         11    1    3    3    0    0 -0.96714070485E+01 -0.26023213340E+01  0.55474968633E+00  0.10030749628E+02  0.51100000000E-03 0. -1.
        -11    1    3    3    0    0 -0.98893401812E+01 -0.11032947971E+02  0.94772058001E+01  0.17588132936E+02  0.51100000000E-03 0.  1.
        -12    1    3    3    0    0 -0.20143085201E+02 -0.95720193300E+00 -0.32168329352E+00  0.20168381122E+02  0.00000000000E+00 0.  1.
</event>
<event>
 7    1  0.3742599E-009  0.4778727E+02  0.7816164E-02  0.1312668E+00
        -11   -1    0    0    0    0  0.00000000000E+00  0.00000000000E+00  0.45593999997E+02  0.45594000000E+02  0.51100000000E-03 0.  1.
         11   -1    0    0    0    0 -0.00000000000E+00 -0.00000000000E+00 -0.45593999997E+02  0.45594000000E+02  0.51100000000E-03 0. -1.
    9900012    2    1    2    0    0 -0.36332093260E+02  0.22498052620E+00 -0.23739245402E+02  0.47787269716E+02  0.19999993945E+02 0.  0.
        -12    1    1    2    0    0  0.36332093260E+02 -0.22498052620E+00  0.23739245402E+02  0.43400730284E+02  0.00000000000E+00 0.  1.
         11    1    3    3    0    0 -0.40834860645E+01  0.40574967911E+01 -0.19584762343E+00  0.57599040966E+01  0.51100000000E-03 0. -1.
        -11    1    3    3    0    0 -0.31540137380E+01 -0.42981912000E+01 -0.15487209157E+01  0.55516472319E+01  0.51100000000E-03 0.  1.
         12    1    3    3    0    0 -0.29094593457E+02  0.46567493509E+00 -0.21994676863E+02  0.36475718388E+02  0.00000000000E+00 0. -1.
</event>
<event>
 7    1  0.3742599E-009  0.4778728E+02  0.7816164E-02  0.1312668E+00
        -11   -1    0    0    0    0  0.00000000000E+00  0.00000000000E+00  0.45593999997E+02  0.45594000000E+02  0.51100000000E-03 0.  1.
         11   -1    0    0    0    0 -0.00000000000E+00 -0.00000000000E+00 -0.45593999997E+02  0.45594000000E+02  0.51100000000E-03 0. -1.
    9900012    2    1    2    0    0 -0.30475773776E+02  0.28665750552E+02 -0.11537975697E+02  0.47787275062E+02  0.20000018318E+02 0.  0.
        -12    1    1    2    0    0  0.30475773776E+02 -0.28665750552E+02  0.11537975697E+02  0.43400724938E+02  0.00000000000E+00 0.  1.
         11    1    3    3    0    0 -0.19316672882E+02  0.97176526742E+01 -0.90051194706E+01  0.23423466901E+02  0.51100000000E-03 0. -1.
        -11    1    3    3    0    0 -0.40739672985E+01  0.85004574255E-01 -0.64742534509E+00  0.41259659676E+01  0.51100000000E-03 0.  1.
        -12    1    3    3    0    0 -0.70851335957E+01  0.18863093303E+02 -0.18854308812E+01  0.20237842194E+02  0.00000000000E+00 0.  1.
</event>
<event>
 7    1  0.3742599E-009  0.4778729E+02  0.7816164E-02  0.1312668E+00
        -11   -1    0    0    0    0  0.00000000000E+00  0.00000000000E+00  0.45593999997E+02  0.45594000000E+02  0.51100000000E-03 0.  1.
         11   -1    0    0    0    0 -0.00000000000E+00 -0.00000000000E+00 -0.45593999997E+02  0.45594000000E+02  0.51100000000E-03 0. -1.
    9900012    2    1    2    0    0 -0.27617019985E+01 -0.71936435518E+01 -0.42711194309E+02  0.47787290042E+02  0.20000086620E+02 0.  0.
        -12    1    1    2    0    0  0.27617019985E+01  0.71936435518E+01  0.42711194309E+02  0.43400709958E+02  0.00000000000E+00 0.  1.
         11    1    3    3    0    0  0.97553393839E+00  0.40382463182E-01  0.56408199336E+00  0.11276018644E+01  0.51100000000E-03 0. -1.
        -11    1    3    3    0    0  0.64747833091E-02  0.29358199641E+01 -0.11338869690E+01  0.31471861565E+01  0.51100000000E-03 0.  1.
         12    1    3    3    0    0 -0.37437107202E+01 -0.10169845979E+02 -0.42141389334E+02  0.43512502022E+02  0.00000000000E+00 0. -1.
</event>
<event>
 7    1  0.3742599E-009  0.4778726E+02  0.7816164E-02  0.1312668E+00
        -11   -1    0    0    0    0  0.00000000000E+00  0.00000000000E+00  0.45593999997E+02  0.45594000000E+02  0.51100000000E-03 0.  1.
         11   -1    0    0    0    0 -0.00000000000E+00 -0.00000000000E+00 -0.45593999997E+02  0.45594000000E+02  0.51100000000E-03 0. -1.
    9900012    2    1    2    0    0 -0.37164767786E+02  0.19173040807E+02 -0.11610281797E+02  0.47787261507E+02  0.19999956515E+02 0.  0.
        -12    1    1    2    0    0  0.37164767786E+02 -0.19173040807E+02  0.11610281797E+02  0.43400738493E+02  0.00000000000E+00 0.  1.
         11    1    3    3    0    0 -0.14711220658E+02  0.63175832839E+01 -0.10386355545E+02  0.19084240975E+02  0.51100000000E-03 0. -1.
        -11    1    3    3    0    0 -0.87133894554E+01 -0.14144987604E+01  0.32007924650E+00  0.88332561114E+01  0.51100000000E-03 0.  1.
        -12    1    3    3    0    0 -0.13740157672E+02  0.14269956283E+02 -0.15440054981E+01  0.19869764421E+02  0.00000000000E+00 0.  1.
</event>
<event>
 7    1  0.3742599E-009  0.4778729E+02  0.7816164E-02  0.1312668E+00
        -11   -1    0    0    0    0  0.00000000000E+00  0.00000000000E+00  0.45593999997E+02  0.45594000000E+02  0.51100000000E-03 0.  1.
         11   -1    0    0    0    0 -0.00000000000E+00 -0.00000000000E+00 -0.45593999997E+02  0.45594000000E+02  0.51100000000E-03 0. -1.
    9900012    2    1    2    0    0 -0.20216557324E+00 -0.16909862113E+02 -0.39970454313E+02  0.47787291185E+02  0.20000091831E+02 0.  0.
        -12    1    1    2    0    0  0.20216557324E+00  0.16909862113E+02  0.39970454313E+02  0.43400708815E+02  0.00000000000E+00 0.  1.
         11    1    3    3    0    0  0.48040618646E+01 -0.60213165072E+01 -0.12437639034E+02  0.14629768552E+02  0.51100000000E-03 0. -1.
        -11    1    3    3    0    0  0.45554349153E+01 -0.55664705620E+01 -0.14124362161E+02  0.15850400263E+02  0.51100000000E-03 0.  1.
        -12    1    3    3    0    0 -0.95616623531E+01 -0.53220750434E+01 -0.13408453118E+02  0.17307122370E+02  0.00000000000E+00 0.  1.
</event>
<event>
 7    1  0.3742599E-009  0.4778728E+02  0.7816164E-02  0.1312668E+00
        -11   -1    0    0    0    0  0.00000000000E+00  0.00000000000E+00  0.45593999997E+02  0.45594000000E+02  0.51100000000E-03 0.  1.
         11   -1    0    0    0    0 -0.00000000000E+00 -0.00000000000E+00 -0.45593999997E+02  0.45594000000E+02  0.51100000000E-03 0. -1.
    9900012    2    1    2    0    0 -0.35898392962E+02 -0.72311481581E+01 -0.23294605825E+02  0.47787276717E+02  0.20000025863E+02 0.  0.
        -12    1    1    2    0    0  0.35898392962E+02  0.72311481581E+01  0.23294605825E+02  0.43400723283E+02  0.00000000000E+00 0.  1.
         11    1    3    3    0    0 -0.45029184128E+01 -0.17084068018E+00 -0.15663472739E+01  0.47706293939E+01  0.51100000000E-03 0. -1.
        -11    1    3    3    0    0 -0.22838672911E+02 -0.12090938389E+02 -0.10143935452E+02  0.27761397626E+02  0.51100000000E-03 0.  1.
        -12    1    3    3    0    0 -0.85568016390E+01  0.50306309112E+01 -0.11584323099E+02  0.15255249697E+02  0.00000000000E+00 0.  1.
</event>
<event>
 7    1  0.3742599E-009  0.4778728E+02  0.7816164E-02  0.1312668E+00
        -11   -1    0    0    0    0  0.00000000000E+00  0.00000000000E+00  0.45593999997E+02  0.45594000000E+02  0.51100000000E-03 0.  1.
         11   -1    0    0    0    0 -0.00000000000E+00 -0.00000000000E+00 -0.45593999997E+02  0.45594000000E+02  0.51100000000E-03 0. -1.
    9900012    2    1    2    0    0  0.26637727470E+02  0.14695475851E+02 -0.30953135770E+02  0.47787284001E+02  0.20000059072E+02 0.  0.
        -12    1    1    2    0    0 -0.26637727470E+02 -0.14695475851E+02  0.30953135770E+02  0.43400715999E+02  0.00000000000E+00 0.  1.
         11    1    3    3    0    0  0.12975519863E+02  0.31893116890E+01 -0.15903305540E+02  0.20771397452E+02  0.51100000000E-03 0. -1.
        -11    1    3    3    0    0  0.76897451473E+01  0.14069990418E+01 -0.12905513812E+02  0.15088542466E+02  0.51100000000E-03 0.  1.
        -12    1    3    3    0    0  0.59724624598E+01  0.10099165120E+02 -0.21443164181E+01  0.11927344082E+02  0.00000000000E+00 0.  1.
</event>
<event>
 7    1  0.3742599E-009  0.4778727E+02  0.7816164E-02  0.1312668E+00
        -11   -1    0    0    0    0  0.00000000000E+00  0.00000000000E+00  0.45593999997E+02  0.45594000000E+02  0.51100000000E-03 0. -1.
         11   -1    0    0    0    0 -0.00000000000E+00 -0.00000000000E+00 -0.45593999997E+02  0.45594000000E+02  0.51100000000E-03 0.  1.
    9900012    2    1    2    0    0  0.24285247505E+02 -0.31063400757E+02 -0.18136018196E+02  0.47787271101E+02  0.20000000256E+02 0.  0.
        -12    1    1    2    0    0 -0.24285247505E+02  0.31063400757E+02  0.18136018196E+02  0.43400728899E+02  0.00000000000E+00 0.  1.
         11    1    3    3    0    0  0.34373211971E+01  0.10809221880E+01 -0.18608433133E+01  0.40554047746E+01  0.51100000000E-03 0. -1.
        -11    1    3    3    0    0  0.13351490428E+02 -0.14441551323E+02 -0.19644749707E+01  0.19765623275E+02  0.51100000000E-03 0.  1.
         12    1    3    3    0    0  0.74964358800E+01 -0.17702771622E+02 -0.14310699912E+02  0.23966243051E+02  0.00000000000E+00 0. -1.
</event>
<event>
 7    1  0.3742599E-009  0.4778727E+02  0.7816164E-02  0.1312668E+00
        -11   -1    0    0    0    0  0.00000000000E+00  0.00000000000E+00  0.45593999997E+02  0.45594000000E+02  0.51100000000E-03 0.  1.
         11   -1    0    0    0    0 -0.00000000000E+00 -0.00000000000E+00 -0.45593999997E+02  0.45594000000E+02  0.51100000000E-03 0. -1.
    9900012    2    1    2    0    0  0.17588504404E+02  0.14486842311E+02 -0.36937776619E+02  0.47787269258E+02  0.19999991857E+02 0.  0.
        -12    1    1    2    0    0 -0.17588504404E+02 -0.14486842311E+02  0.36937776619E+02  0.43400730742E+02  0.00000000000E+00 0.  1.
         11    1    3    3    0    0  0.59624375449E+01  0.25625546089E+00 -0.10357233268E+02  0.11953602368E+02  0.51100000000E-03 0. -1.
        -11    1    3    3    0    0  0.15091550134E+02  0.99184115583E+01 -0.17176615314E+02  0.24923199779E+02  0.51100000000E-03 0.  1.
         12    1    3    3    0    0 -0.34654832748E+01  0.43121752917E+01 -0.94039280372E+01  0.10910467112E+02  0.00000000000E+00 0. -1.
</event>
<event>
 7    1  0.3742599E-009  0.4778727E+02  0.7816164E-02  0.1312668E+00
        -11   -1    0    0    0    0  0.00000000000E+00  0.00000000000E+00  0.45593999997E+02  0.45594000000E+02  0.51100000000E-03 0.  1.
         11   -1    0    0    0    0 -0.00000000000E+00 -0.00000000000E+00 -0.45593999997E+02  0.45594000000E+02  0.51100000000E-03 0. -1.
    9900012    2    1    2    0    0 -0.20386448196E+02  0.17613921506E+02 -0.34025954852E+02  0.47787272996E+02  0.20000008900E+02 0.  0.
        -12    1    1    2    0    0  0.20386448196E+02 -0.17613921506E+02  0.34025954852E+02  0.43400727004E+02  0.00000000000E+00 0.  1.
         11    1    3    3    0    0 -0.63619243979E+01  0.11270128975E+02 -0.17923668978E+02  0.22107641192E+02  0.51100000000E-03 0. -1.
        -11    1    3    3    0    0 -0.12078691200E+02  0.80733911977E+01 -0.17483851824E+02  0.22732344828E+02  0.51100000000E-03 0.  1.
        -12    1    3    3    0    0 -0.19458325983E+01 -0.17295986665E+01  0.13815659503E+01  0.29472869767E+01  0.00000000000E+00 0.  1.
</event>
<event>
 7    1  0.3742599E-009  0.4778727E+02  0.7816164E-02  0.1312668E+00
        -11   -1    0    0    0    0  0.00000000000E+00  0.00000000000E+00  0.45593999997E+02  0.45594000000E+02  0.51100000000E-03 0.  1.
         11   -1    0    0    0    0 -0.00000000000E+00 -0.00000000000E+00 -0.45593999997E+02  0.45594000000E+02  0.51100000000E-03 0. -1.
    9900012    2    1    2    0    0 -0.10325944172E+02  0.24698167034E+02 -0.34161358222E+02  0.47787274506E+02  0.20000015781E+02 0.  0.
        -12    1    1    2    0    0  0.10325944172E+02 -0.24698167034E+02  0.34161358222E+02  0.43400725494E+02  0.00000000000E+00 0.  1.
         11    1    3    3    0    0 -0.84665486069E+00  0.12478231851E+02 -0.23922330829E+02  0.26994462527E+02  0.51100000000E-03 0. -1.
        -11    1    3    3    0    0 -0.20740617477E+01  0.57956129293E+01 -0.90108177538E+01  0.10912639379E+02  0.51100000000E-03 0.  1.
        -12    1    3    3    0    0 -0.74052275632E+01  0.64243222539E+01 -0.12282096392E+01  0.98801725999E+01  0.00000000000E+00 0.  1.
</event>
<event>
 7    1  0.3742599E-009  0.4778727E+02  0.7816164E-02  0.1312668E+00
        -11   -1    0    0    0    0  0.00000000000E+00  0.00000000000E+00  0.45593999997E+02  0.45594000000E+02  0.51100000000E-03 0. -1.
         11   -1    0    0    0    0 -0.00000000000E+00 -0.00000000000E+00 -0.45593999997E+02  0.45594000000E+02  0.51100000000E-03 0.  1.
    9900012    2    1    2    0    0 -0.39619799895E+02 -0.17156150959E+01  0.17633814719E+02  0.47787270739E+02  0.19999998608E+02 0.  0.
        -12    1    1    2    0    0  0.39619799895E+02  0.17156150959E+01 -0.17633814719E+02  0.43400729261E+02  0.00000000000E+00 0.  1.
         11    1    3    3    0    0 -0.75064650720E+01 -0.30598851207E+01  0.17316120963E+00  0.81080145470E+01  0.51100000000E-03 0. -1.
        -11    1    3    3    0    0  0.14254770430E+01 -0.13648295324E+01  0.76219453045E+00  0.21155815314E+01  0.51100000000E-03 0.  1.
         12    1    3    3    0    0 -0.33538811866E+02  0.27090995572E+01  0.16698458979E+02  0.37563674661E+02  0.00000000000E+00 0. -1.
</event>
<event>
 7    1  0.3742599E-009  0.4778727E+02  0.7816164E-02  0.1312668E+00
        -11   -1    0    0    0    0  0.00000000000E+00  0.00000000000E+00  0.45593999997E+02  0.45594000000E+02  0.51100000000E-03 0.  1.
         11   -1    0    0    0    0 -0.00000000000E+00 -0.00000000000E+00 -0.45593999997E+02  0.45594000000E+02  0.51100000000E-03 0. -1.
    9900012    2    1    2    0    0 -0.12175807725E+02 -0.29993281204E+02  0.28909791563E+02  0.47787271212E+02  0.20000000764E+02 0.  0.
        -12    1    1    2    0    0  0.12175807725E+02  0.29993281204E+02 -0.28909791563E+02  0.43400728788E+02  0.00000000000E+00 0.  1.
         11    1    3    3    0    0  0.10617137869E+01  0.12241697252E+00  0.51731966287E+01  0.52824412634E+01  0.51100000000E-03 0.  1.
        -11    1    3    3    0    0 -0.98816133580E+01 -0.77732077986E+01  0.70185860437E+01  0.14398944140E+02  0.51100000000E-03 0. -1.
        -12    1    3    3    0    0 -0.33559081534E+01 -0.22342490378E+02  0.16718008890E+02  0.28105885808E+02  0.00000000000E+00 0.  1.
</event>
<event>
 7    1  0.3742599E-009  0.4778728E+02  0.7816164E-02  0.1312668E+00
        -11   -1    0    0    0    0  0.00000000000E+00  0.00000000000E+00  0.45593999997E+02  0.45594000000E+02  0.51100000000E-03 0.  1.
         11   -1    0    0    0    0 -0.00000000000E+00 -0.00000000000E+00 -0.45593999997E+02  0.45594000000E+02  0.51100000000E-03 0. -1.
    9900012    2    1    2    0    0 -0.15375372711E+02  0.34092085926E+02 -0.22021588607E+02  0.47787276808E+02  0.20000026280E+02 0.  0.
        -12    1    1    2    0    0  0.15375372711E+02 -0.34092085926E+02  0.22021588607E+02  0.43400723192E+02  0.00000000000E+00 0.  1.
         11    1    3    3    0    0 -0.17392255412E+01  0.65160080871E+01 -0.97561925218E+01  0.11860293405E+02  0.51100000000E-03 0. -1.
        -11    1    3    3    0    0  0.16452478491E+01  0.15984914731E+01 -0.41056116853E+01  0.47029844829E+01  0.51100000000E-03 0.  1.
         12    1    3    3    0    0 -0.15281395019E+02  0.25977586366E+02 -0.81597843996E+01  0.31223998920E+02  0.00000000000E+00 0. -1.
</event>
<event>
 7    1  0.3742599E-009  0.4778728E+02  0.7816164E-02  0.1312668E+00
        -11   -1    0    0    0    0  0.00000000000E+00  0.00000000000E+00  0.45593999997E+02  0.45594000000E+02  0.51100000000E-03 0.  1.
         11   -1    0    0    0    0 -0.00000000000E+00 -0.00000000000E+00 -0.45593999997E+02  0.45594000000E+02  0.51100000000E-03 0. -1.
    9900012    2    1    2    0    0  0.20036111958E+02 -0.12343550696E+02 -0.36466604642E+02  0.47787282491E+02  0.20000052188E+02 0.  0.
        -12    1    1    2    0    0 -0.20036111958E+02  0.12343550696E+02  0.36466604642E+02  0.43400717509E+02  0.00000000000E+00 0.  1.
         11    1    3    3    0    0  0.61369599234E+01 -0.14502079234E+01 -0.19466743700E+02  0.20462636455E+02  0.51100000000E-03 0. -1.
        -11    1    3    3    0    0  0.64307976520E+00 -0.55143585078E+00 -0.83948587156E+01  0.84374928858E+01  0.51100000000E-03 0.  1.
         12    1    3    3    0    0  0.13256072270E+02 -0.10341906922E+02 -0.86050022263E+01  0.18887153150E+02  0.00000000000E+00 0. -1.
</event>
<event>
 7    1  0.3742599E-009  0.4778727E+02  0.7816164E-02  0.1312668E+00
        -11   -1    0    0    0    0  0.00000000000E+00  0.00000000000E+00  0.45593999997E+02  0.45594000000E+02  0.51100000000E-03 0.  1.
         11   -1    0    0    0    0 -0.00000000000E+00 -0.00000000000E+00 -0.45593999997E+02  0.45594000000E+02  0.51100000000E-03 0. -1.
    9900012    2    1    2    0    0  0.54340641325E+01 -0.96987489797E+01 -0.41952692305E+02  0.47787272168E+02  0.20000005121E+02 0.  0.
        -12    1    1    2    0    0 -0.54340641325E+01  0.96987489797E+01  0.41952692305E+02  0.43400727832E+02  0.00000000000E+00 0.  1.
         11    1    3    3    0    0  0.15120847058E-01  0.56972478316E+01 -0.62729384242E+01  0.84739965913E+01  0.51100000000E-03 0. -1.
        -11    1    3    3    0    0  0.38260349285E+00 -0.48053490731E+00 -0.26971732202E+01  0.27662326133E+01  0.51100000000E-03 0.  1.
        -12    1    3    3    0    0  0.50363397926E+01 -0.14915461904E+02 -0.32982580660E+02  0.36547042963E+02  0.00000000000E+00 0.  1.
</event>
<event>
 7    1  0.3742599E-009  0.4778727E+02  0.7816164E-02  0.1312668E+00
        -11   -1    0    0    0    0  0.00000000000E+00  0.00000000000E+00  0.45593999997E+02  0.45594000000E+02  0.51100000000E-03 0.  1.
         11   -1    0    0    0    0 -0.00000000000E+00 -0.00000000000E+00 -0.45593999997E+02  0.45594000000E+02  0.51100000000E-03 0. -1.
    9900012    2    1    2    0    0  0.17943106142E+02 -0.21137323078E+02 -0.33389846830E+02  0.47787270095E+02  0.19999995671E+02 0.  0.
        -12    1    1    2    0    0 -0.17943106142E+02  0.21137323078E+02  0.33389846830E+02  0.43400729905E+02  0.00000000000E+00 0.  1.
         11    1    3    3    0    0  0.13740739742E+02 -0.14798616037E+02 -0.90828179516E+01  0.22142821579E+02  0.51100000000E-03 0. -1.
        -11    1    3    3    0    0 -0.44996485253E+00 -0.52065991644E+00 -0.28188450804E+01  0.29016276407E+01  0.51100000000E-03 0.  1.
        -12    1    3    3    0    0  0.46523312529E+01 -0.58180471248E+01 -0.21488183798E+02  0.22742820876E+02  0.00000000000E+00 0.  1.
</event>
<event>
 7    1  0.3742599E-009  0.4778727E+02  0.7816164E-02  0.1312668E+00
        -11   -1    0    0    0    0  0.00000000000E+00  0.00000000000E+00  0.45593999997E+02  0.45594000000E+02  0.51100000000E-03 0. -1.
         11   -1    0    0    0    0 -0.00000000000E+00 -0.00000000000E+00 -0.45593999997E+02  0.45594000000E+02  0.51100000000E-03 0.  1.
    9900012    2    1    2    0    0 -0.37384871225E+02 -0.32201601104E+01  0.21808844279E+02  0.47787265946E+02  0.19999976753E+02 0.  0.
        -12    1    1    2    0    0  0.37384871225E+02  0.32201601104E+01 -0.21808844279E+02  0.43400734054E+02  0.00000000000E+00 0.  1.
         11    1    3    3    0    0 -0.15010530554E+02 -0.31082658873E+01  0.54124422940E+01  0.16256441067E+02  0.51100000000E-03 0.  1.
        -11    1    3    3    0    0 -0.72975581160E+01 -0.72099026827E+01  0.58367900200E+01  0.11802761082E+02  0.51100000000E-03 0. -1.
        -12    1    3    3    0    0 -0.15076782556E+02  0.70980084595E+01  0.10559611965E+02  0.19728063797E+02  0.00000000000E+00 0.  1.
</event>
<event>
 7    1  0.3742599E-009  0.4778727E+02  0.7816164E-02  0.1312668E+00
        -11   -1    0    0    0    0  0.00000000000E+00  0.00000000000E+00  0.45593999997E+02  0.45594000000E+02  0.51100000000E-03 0.  1.
         11   -1    0    0    0    0 -0.00000000000E+00 -0.00000000000E+00 -0.45593999997E+02  0.45594000000E+02  0.51100000000E-03 0. -1.
    9900012    2    1    2    0    0  0.22561964236E+02 -0.36967008405E+02  0.28322148265E+01  0.47787269805E+02  0.19999994350E+02 0.  0.
        -12    1    1    2    0    0 -0.22561964236E+02  0.36967008405E+02 -0.28322148265E+01  0.43400730195E+02  0.00000000000E+00 0.  1.
         11    1    3    3    0    0  0.14576281233E+02 -0.13869464188E+02  0.82204019587E+01  0.21734880264E+02  0.51100000000E-03 0. -1.
        -11    1    3    3    0    0  0.17600769979E+01 -0.10378196195E+02  0.88579738517E+00  0.10563591461E+02  0.51100000000E-03 0.  1.
         12    1    3    3    0    0  0.62256060052E+01 -0.12719348022E+02 -0.62739845174E+01  0.15488798080E+02  0.00000000000E+00 0. -1.
</event>
<event>
 7    1  0.3742599E-009  0.4778727E+02  0.7816164E-02  0.1312668E+00
        -11   -1    0    0    0    0  0.00000000000E+00  0.00000000000E+00  0.45593999997E+02  0.45594000000E+02  0.51100000000E-03 0.  1.
         11   -1    0    0    0    0 -0.00000000000E+00 -0.00000000000E+00 -0.45593999997E+02  0.45594000000E+02  0.51100000000E-03 0. -1.
    9900012    2    1    2    0    0 -0.15782253084E+02 -0.14256343554E+02 -0.37832528087E+02  0.47787273907E+02  0.20000013053E+02 0.  0.
        -12    1    1    2    0    0  0.15782253084E+02  0.14256343554E+02  0.37832528087E+02  0.43400726093E+02  0.00000000000E+00 0.  1.
         11    1    3    3    0    0 -0.33316761714E+01  0.20432414141E+01 -0.14627210977E+02  0.15140350155E+02  0.51100000000E-03 0. -1.
        -11    1    3    3    0    0  0.20574703343E+00 -0.57782371387E+01 -0.99769887147E+01  0.11531290489E+02  0.51100000000E-03 0.  1.
        -12    1    3    3    0    0 -0.12656323946E+02 -0.10521347830E+02 -0.13228328395E+02  0.21115633263E+02  0.00000000000E+00 0.  1.
</event>
<event>
 7    1  0.3742599E-009  0.4778728E+02  0.7816164E-02  0.1312668E+00
        -11   -1    0    0    0    0  0.00000000000E+00  0.00000000000E+00  0.45593999997E+02  0.45594000000E+02  0.51100000000E-03 0. -1.
         11   -1    0    0    0    0 -0.00000000000E+00 -0.00000000000E+00 -0.45593999997E+02  0.45594000000E+02  0.51100000000E-03 0.  1.
    9900012    2    1    2    0    0 -0.27986771255E+02  0.12227637115E+02  0.30835828033E+02  0.47787276905E+02  0.20000026721E+02 0.  0.
        -12    1    1    2    0    0  0.27986771255E+02 -0.12227637115E+02 -0.30835828033E+02  0.43400723095E+02  0.00000000000E+00 0.  1.
         11    1    3    3    0    0 -0.18235553219E+01  0.97466393714E+01  0.68114190045E+01  0.12029869582E+02  0.51100000000E-03 0.  1.
        -11    1    3    3    0    0 -0.84753406720E+01  0.18354537412E+01  0.94851188993E+01  0.12851761387E+02  0.51100000000E-03 0. -1.
        -12    1    3    3    0    0 -0.17687875261E+02  0.64554400202E+00  0.14539290129E+02  0.22905645936E+02  0.00000000000E+00 0.  1.
</event>
<event>
 7    1  0.3742599E-009  0.4778727E+02  0.7816164E-02  0.1312668E+00
        -11   -1    0    0    0    0  0.00000000000E+00  0.00000000000E+00  0.45593999997E+02  0.45594000000E+02  0.51100000000E-03 0. -1.
         11   -1    0    0    0    0 -0.00000000000E+00 -0.00000000000E+00 -0.45593999997E+02  0.45594000000E+02  0.51100000000E-03 0.  1.
    9900012    2    1    2    0    0 -0.38079514249E+02 -0.20654885724E+02  0.26361901637E+01  0.47787271800E+02  0.20000003444E+02 0.  0.
        -12    1    1    2    0    0  0.38079514249E+02  0.20654885724E+02 -0.26361901637E+01  0.43400728200E+02  0.00000000000E+00 0.  1.
         11    1    3    3    0    0 -0.60033676926E+01 -0.65377928853E+01 -0.12899970868E+01  0.89692392213E+01  0.51100000000E-03 0.  1.
        -11    1    3    3    0    0 -0.18969206680E+02 -0.12654489964E+02 -0.43971485916E+01  0.23222873084E+02  0.51100000000E-03 0. -1.
         12    1    3    3    0    0 -0.13106939877E+02 -0.14626028748E+01  0.83233358420E+01  0.15595159494E+02  0.00000000000E+00 0. -1.
</event>
<event>
 7    1  0.3742599E-009  0.4778727E+02  0.7816164E-02  0.1312668E+00
        -11   -1    0    0    0    0  0.00000000000E+00  0.00000000000E+00  0.45593999997E+02  0.45594000000E+02  0.51100000000E-03 0.  1.
         11   -1    0    0    0    0 -0.00000000000E+00 -0.00000000000E+00 -0.45593999997E+02  0.45594000000E+02  0.51100000000E-03 0. -1.
    9900012    2    1    2    0    0 -0.22737502588E+02  0.33485039849E+02 -0.15664649812E+02  0.47787272225E+02  0.20000005384E+02 0.  0.
        -12    1    1    2    0    0  0.22737502588E+02 -0.33485039849E+02  0.15664649812E+02  0.43400727775E+02  0.00000000000E+00 0.  1.
         11    1    3    3    0    0 -0.78071369844E+01  0.18509982494E+02 -0.60338344283E+01  0.20975652505E+02  0.51100000000E-03 0. -1.
        -11    1    3    3    0    0 -0.14278908774E+02  0.11928644023E+02 -0.21768184253E+01  0.18732814063E+02  0.51100000000E-03 0.  1.
        -12    1    3    3    0    0 -0.65145682874E+00  0.30464133326E+01 -0.74539969586E+01  0.80788056575E+01  0.00000000000E+00 0.  1.
</event>
<event>
 7    1  0.3742599E-009  0.4778727E+02  0.7816164E-02  0.1312668E+00
        -11   -1    0    0    0    0  0.00000000000E+00  0.00000000000E+00  0.45593999997E+02  0.45594000000E+02  0.51100000000E-03 0.  1.
         11   -1    0    0    0    0 -0.00000000000E+00 -0.00000000000E+00 -0.45593999997E+02  0.45594000000E+02  0.51100000000E-03 0. -1.
    9900012    2    1    2    0    0  0.84761970532E+01  0.35942174067E+02 -0.22802137259E+02  0.47787271242E+02  0.20000000899E+02 0.  0.
        -12    1    1    2    0    0 -0.84761970532E+01 -0.35942174067E+02  0.22802137259E+02  0.43400728758E+02  0.00000000000E+00 0.  1.
         11    1    3    3    0    0 -0.34909686408E-01  0.97040635165E+01 -0.11028946250E+02  0.14690395606E+02  0.51100000000E-03 0. -1.
        -11    1    3    3    0    0 -0.35957638829E+01  0.86429993246E+01 -0.18324466210E+01  0.95388058008E+01  0.51100000000E-03 0.  1.
         12    1    3    3    0    0  0.12106870622E+02  0.17595111226E+02 -0.99407443877E+01  0.23558069834E+02  0.00000000000E+00 0. -1.
</event>
<event>
 7    1  0.3742599E-009  0.4778727E+02  0.7816164E-02  0.1312668E+00
        -11   -1    0    0    0    0  0.00000000000E+00  0.00000000000E+00  0.45593999997E+02  0.45594000000E+02  0.51100000000E-03 0.  1.
         11   -1    0    0    0    0 -0.00000000000E+00 -0.00000000000E+00 -0.45593999997E+02  0.45594000000E+02  0.51100000000E-03 0. -1.
    9900012    2    1    2    0    0 -0.29032758432E+01 -0.20968326386E+02 -0.37888305440E+02  0.47787269463E+02  0.19999992788E+02 0.  0.
        -12    1    1    2    0    0  0.29032758432E+01  0.20968326386E+02  0.37888305440E+02  0.43400730537E+02  0.00000000000E+00 0.  1.
         11    1    3    3    0    0  0.32308068381E+01 -0.11402212123E+02 -0.32665619562E+02  0.34748974888E+02  0.51100000000E-03 0. -1.
        -11    1    3    3    0    0 -0.13728446923E+01 -0.45849654041E+01 -0.35178791623E+01  0.59398724202E+01  0.51100000000E-03 0.  1.
         12    1    3    3    0    0 -0.47612379890E+01 -0.49811488591E+01 -0.17048067152E+01  0.70984221543E+01  0.00000000000E+00 0. -1.
</event>
<event>
 7    1  0.3742599E-009  0.4778727E+02  0.7816164E-02  0.1312668E+00
        -11   -1    0    0    0    0  0.00000000000E+00  0.00000000000E+00  0.45593999997E+02  0.45594000000E+02  0.51100000000E-03 0. -1.
         11   -1    0    0    0    0 -0.00000000000E+00 -0.00000000000E+00 -0.45593999997E+02  0.45594000000E+02  0.51100000000E-03 0.  1.
    9900012    2    1    2    0    0  0.66374189479E+01  0.36808862201E+02  0.22015353469E+02  0.47787268956E+02  0.19999990477E+02 0.  0.
        -12    1    1    2    0    0 -0.66374189479E+01 -0.36808862201E+02 -0.22015353469E+02  0.43400731044E+02  0.00000000000E+00 0.  1.
         11    1    3    3    0    0  0.55870071812E+01  0.19424163677E+02  0.80125256730E+01  0.21741972121E+02  0.51100000000E-03 0. -1.
        -11    1    3    3    0    0  0.56622404614E+01  0.78030795644E+01  0.11708249610E+02  0.15166810045E+02  0.51100000000E-03 0.  1.
        -12    1    3    3    0    0 -0.46118286947E+01  0.95816189592E+01  0.22945781855E+01  0.10878486790E+02  0.00000000000E+00 0.  1.
</event>
<event>
 7    1  0.3742599E-009  0.4778730E+02  0.7816164E-02  0.1312668E+00
        -11   -1    0    0    0    0  0.00000000000E+00  0.00000000000E+00  0.45593999997E+02  0.45594000000E+02  0.51100000000E-03 0.  1.
         11   -1    0    0    0    0 -0.00000000000E+00 -0.00000000000E+00 -0.45593999997E+02  0.45594000000E+02  0.51100000000E-03 0. -1.
    9900012    2    1    2    0    0  0.32094293582E+02  0.25314413635E+02 -0.14586220515E+02  0.47787296698E+02  0.20000116965E+02 0.  0.
        -12    1    1    2    0    0 -0.32094293582E+02 -0.25314413635E+02  0.14586220515E+02  0.43400703302E+02  0.00000000000E+00 0.  1.
         11    1    3    3    0    0  0.29840947938E+02  0.26528273019E+02 -0.13274694784E+02  0.42076703353E+02  0.51100000000E-03 0. -1.
        -11    1    3    3    0    0  0.11818324256E+01  0.18939507487E+01 -0.86012464660E+00  0.23924029739E+01  0.51100000000E-03 0.  1.
         12    1    3    3    0    0  0.10715132178E+01 -0.31078101328E+01 -0.45140108446E+00  0.33181903707E+01  0.00000000000E+00 0. -1.
</event>
<event>
 7    1  0.3742599E-009  0.4778727E+02  0.7816164E-02  0.1312668E+00
        -11   -1    0    0    0    0  0.00000000000E+00  0.00000000000E+00  0.45593999997E+02  0.45594000000E+02  0.51100000000E-03 0.  1.
         11   -1    0    0    0    0 -0.00000000000E+00 -0.00000000000E+00 -0.45593999997E+02  0.45594000000E+02  0.51100000000E-03 0. -1.
    9900012    2    1    2    0    0 -0.12934757424E+01 -0.13061672062E+02 -0.41368381390E+02  0.47787270336E+02  0.19999996770E+02 0.  0.
        -12    1    1    2    0    0  0.12934757424E+01  0.13061672062E+02  0.41368381390E+02  0.43400729664E+02  0.00000000000E+00 0.  1.
         11    1    3    3    0    0 -0.37527854568E+00 -0.65756575601E+01 -0.10663946741E+02  0.12533948567E+02  0.51100000000E-03 0. -1.
        -11    1    3    3    0    0 -0.84705959129E+01 -0.28695983146E+01 -0.16255734331E+02  0.18553557301E+02  0.51100000000E-03 0.  1.
         12    1    3    3    0    0  0.75523987162E+01 -0.36164161872E+01 -0.14448700318E+02  0.16699764468E+02  0.00000000000E+00 0. -1.
</event>
<event>
 7    1  0.3742599E-009  0.4778727E+02  0.7816164E-02  0.1312668E+00
        -11   -1    0    0    0    0  0.00000000000E+00  0.00000000000E+00  0.45593999997E+02  0.45594000000E+02  0.51100000000E-03 0.  1.
         11   -1    0    0    0    0 -0.00000000000E+00 -0.00000000000E+00 -0.45593999997E+02  0.45594000000E+02  0.51100000000E-03 0. -1.
    9900012    2    1    2    0    0 -0.25267254827E+02  0.10764164244E+02 -0.33605385603E+02  0.47787270284E+02  0.19999996532E+02 0.  0.
        -12    1    1    2    0    0  0.25267254827E+02 -0.10764164244E+02  0.33605385603E+02  0.43400729716E+02  0.00000000000E+00 0.  1.
         11    1    3    3    0    0  0.10845200118E+00 -0.77457655055E+00 -0.95809437696E+01  0.96128151156E+01  0.51100000000E-03 0. -1.
        -11    1    3    3    0    0 -0.88041310865E+01  0.64533429826E+01 -0.38480592072E+01  0.11574364767E+02  0.51100000000E-03 0.  1.
         12    1    3    3    0    0 -0.16571575741E+02  0.50853978124E+01 -0.20176382626E+02  0.26600090401E+02  0.00000000000E+00 0. -1.
</event>
<event>
 7    1  0.3742599E-009  0.4778727E+02  0.7816164E-02  0.1312668E+00
        -11   -1    0    0    0    0  0.00000000000E+00  0.00000000000E+00  0.45593999997E+02  0.45594000000E+02  0.51100000000E-03 0.  1.
         11   -1    0    0    0    0 -0.00000000000E+00 -0.00000000000E+00 -0.45593999997E+02  0.45594000000E+02  0.51100000000E-03 0. -1.
    9900012    2    1    2    0    0  0.12192548942E+02 -0.35453880179E+02 -0.21862919336E+02  0.47787272917E+02  0.20000008538E+02 0.  0.
        -12    1    1    2    0    0 -0.12192548942E+02  0.35453880179E+02  0.21862919336E+02  0.43400727083E+02  0.00000000000E+00 0.  1.
         11    1    3    3    0    0  0.90026893782E+01 -0.14610118634E+02 -0.12815922156E+02  0.21418493026E+02  0.51100000000E-03 0. -1.
        -11    1    3    3    0    0  0.62742815336E+01 -0.19544138628E+02 -0.50182581643E+01  0.21131087969E+02  0.51100000000E-03 0.  1.
         12    1    3    3    0    0 -0.30844219697E+01 -0.12996229163E+01 -0.40287390155E+01  0.52376919217E+01  0.00000000000E+00 0. -1.
</event>
<event>
 7    1  0.3742599E-009  0.4778727E+02  0.7816164E-02  0.1312668E+00
        -11   -1    0    0    0    0  0.00000000000E+00  0.00000000000E+00  0.45593999997E+02  0.45594000000E+02  0.51100000000E-03 0.  1.
         11   -1    0    0    0    0 -0.00000000000E+00 -0.00000000000E+00 -0.45593999997E+02  0.45594000000E+02  0.51100000000E-03 0. -1.
    9900012    2    1    2    0    0 -0.40584879793E+02 -0.11071322127E+02 -0.10673182109E+02  0.47787268925E+02  0.19999990339E+02 0.  0.
        -12    1    1    2    0    0  0.40584879793E+02  0.11071322127E+02  0.10673182109E+02  0.43400731075E+02  0.00000000000E+00 0.  1.
         11    1    3    3    0    0  0.12138366817E+01 -0.17549553206E+01 -0.31166112463E+01  0.37771065101E+01  0.51100000000E-03 0.  1.
        -11    1    3    3    0    0 -0.11497340051E+01  0.63970234658E+00  0.46956438837E+00  0.13969961885E+01  0.51100000000E-03 0. -1.
         12    1    3    3    0    0 -0.40648982470E+02 -0.99560691535E+01 -0.80261352506E+01  0.42613166227E+02  0.00000000000E+00 0. -1.
</event>
<event>
 7    1  0.3742599E-009  0.4778727E+02  0.7816164E-02  0.1312668E+00
        -11   -1    0    0    0    0  0.00000000000E+00  0.00000000000E+00  0.45593999997E+02  0.45594000000E+02  0.51100000000E-03 0.  1.
         11   -1    0    0    0    0 -0.00000000000E+00 -0.00000000000E+00 -0.45593999997E+02  0.45594000000E+02  0.51100000000E-03 0. -1.
    9900012    2    1    2    0    0 -0.23465550533E+02 -0.35775764280E+02 -0.72860142290E+01  0.47787269879E+02  0.19999994687E+02 0.  0.
        -12    1    1    2    0    0  0.23465550533E+02  0.35775764280E+02  0.72860142290E+01  0.43400730121E+02  0.00000000000E+00 0.  1.
         11    1    3    3    0    0  0.22009105564E+01 -0.35617830542E+01  0.15520844583E+01  0.44653412220E+01  0.51100000000E-03 0. -1.
        -11    1    3    3    0    0 -0.91614262056E+01 -0.61665448575E+01  0.63930437429E+00  0.11061949012E+02  0.51100000000E-03 0.  1.
         12    1    3    3    0    0 -0.16505034884E+02 -0.26047436369E+02 -0.94774030616E+01  0.32259979645E+02  0.00000000000E+00 0. -1.
</event>
<event>
 7    1  0.3742599E-009  0.4778727E+02  0.7816164E-02  0.1312668E+00
        -11   -1    0    0    0    0  0.00000000000E+00  0.00000000000E+00  0.45593999997E+02  0.45594000000E+02  0.51100000000E-03 0. -1.
         11   -1    0    0    0    0 -0.00000000000E+00 -0.00000000000E+00 -0.45593999997E+02  0.45594000000E+02  0.51100000000E-03 0.  1.
    9900012    2    1    2    0    0 -0.42519361477E+02 -0.83333329098E+01  0.25065889276E+01  0.47787268142E+02  0.19999986765E+02 0.  0.
        -12    1    1    2    0    0  0.42519361477E+02  0.83333329098E+01 -0.25065889276E+01  0.43400731858E+02  0.00000000000E+00 0.  1.
         11    1    3    3    0    0 -0.20420097759E+01 -0.46999986695E+01  0.21113149573E+01  0.55423318673E+01  0.51100000000E-03 0. -1.
        -11    1    3    3    0    0 -0.14368379509E+02 -0.28156691521E+01  0.54787166438E+01  0.15633126969E+02  0.51100000000E-03 0.  1.
        -12    1    3    3    0    0 -0.26108972192E+02 -0.81766508825E+00 -0.50834426735E+01  0.26611809306E+02  0.00000000000E+00 0.  1.
</event>
<event>
 7    1  0.3742599E-009  0.4778727E+02  0.7816164E-02  0.1312668E+00
        -11   -1    0    0    0    0  0.00000000000E+00  0.00000000000E+00  0.45593999997E+02  0.45594000000E+02  0.51100000000E-03 0.  1.
         11   -1    0    0    0    0 -0.00000000000E+00 -0.00000000000E+00 -0.45593999997E+02  0.45594000000E+02  0.51100000000E-03 0. -1.
    9900012    2    1    2    0    0 -0.33540505134E+02 -0.24838952399E+02  0.11903127398E+02  0.47787268637E+02  0.19999989025E+02 0.  0.
        -12    1    1    2    0    0  0.33540505134E+02  0.24838952399E+02 -0.11903127398E+02  0.43400731363E+02  0.00000000000E+00 0.  1.
         11    1    3    3    0    0 -0.95259768702E+01 -0.12000954792E+01 -0.69348789966E+00  0.96262864189E+01  0.51100000000E-03 0. -1.
        -11    1    3    3    0    0 -0.14135514068E+02 -0.81883273369E+01  0.79970366516E+00  0.16355457461E+02  0.51100000000E-03 0.  1.
         12    1    3    3    0    0 -0.98790141959E+01 -0.15450529583E+02  0.11796911632E+02  0.21805524757E+02  0.00000000000E+00 0. -1.
</event>
<event>
 7    1  0.3742599E-009  0.4778728E+02  0.7816164E-02  0.1312668E+00
        -11   -1    0    0    0    0  0.00000000000E+00  0.00000000000E+00  0.45593999997E+02  0.45594000000E+02  0.51100000000E-03 0. -1.
         11   -1    0    0    0    0 -0.00000000000E+00 -0.00000000000E+00 -0.45593999997E+02  0.45594000000E+02  0.51100000000E-03 0.  1.
    9900012    2    1    2    0    0 -0.31259761501E+02  0.27048793061E+02  0.13221684534E+02  0.47787276076E+02  0.20000022942E+02 0.  0.
        -12    1    1    2    0    0  0.31259761501E+02 -0.27048793061E+02 -0.13221684534E+02  0.43400723924E+02  0.00000000000E+00 0.  1.
         11    1    3    3    0    0 -0.66416991334E+01  0.71399280800E+01  0.67083270006E+01  0.11836063187E+02  0.51100000000E-03 0. -1.
        -11    1    3    3    0    0 -0.39994576633E+01 -0.26242474978E+01  0.13916934254E+01  0.49818819116E+01  0.51100000000E-03 0.  1.
        -12    1    3    3    0    0 -0.20618604705E+02  0.22533112479E+02  0.51216641082E+01  0.30969330977E+02  0.00000000000E+00 0.  1.
</event>
<event>
 7    1  0.3742599E-009  0.4778727E+02  0.7816164E-02  0.1312668E+00
        -11   -1    0    0    0    0  0.00000000000E+00  0.00000000000E+00  0.45593999997E+02  0.45594000000E+02  0.51100000000E-03 0.  1.
         11   -1    0    0    0    0 -0.00000000000E+00 -0.00000000000E+00 -0.45593999997E+02  0.45594000000E+02  0.51100000000E-03 0. -1.
    9900012    2    1    2    0    0 -0.23820269423E+02  0.55092309966E+01 -0.35858976473E+02  0.47787273563E+02  0.20000011484E+02 0.  0.
        -12    1    1    2    0    0  0.23820269423E+02 -0.55092309966E+01  0.35858976473E+02  0.43400726437E+02  0.00000000000E+00 0.  1.
         11    1    3    3    0    0 -0.88102252933E+01 -0.14293853987E+01 -0.89455429380E+01  0.12636690669E+02  0.51100000000E-03 0. -1.
        -11    1    3    3    0    0 -0.12361370784E+02  0.31713914939E+01 -0.66889910674E+01  0.14408463257E+02  0.51100000000E-03 0.  1.
        -12    1    3    3    0    0 -0.26486733461E+01  0.37672249014E+01 -0.20224442467E+02  0.20742119638E+02  0.00000000000E+00 0.  1.
</event>
<event>
 7    1  0.3742599E-009  0.4778727E+02  0.7816164E-02  0.1312668E+00
        -11   -1    0    0    0    0  0.00000000000E+00  0.00000000000E+00  0.45593999997E+02  0.45594000000E+02  0.51100000000E-03 0.  1.
         11   -1    0    0    0    0 -0.00000000000E+00 -0.00000000000E+00 -0.45593999997E+02  0.45594000000E+02  0.51100000000E-03 0. -1.
    9900012    2    1    2    0    0 -0.74949639774E+01  0.40670824524E+02 -0.13165597811E+02  0.47787269382E+02  0.19999992421E+02 0.  0.
        -12    1    1    2    0    0  0.74949639774E+01 -0.40670824524E+02  0.13165597811E+02  0.43400730618E+02  0.00000000000E+00 0.  1.
         11    1    3    3    0    0  0.12058927596E+01  0.43030926519E+01 -0.49056494608E+01  0.66359762366E+01  0.51100000000E-03 0.  1.
        -11    1    3    3    0    0 -0.72013404167E+01  0.30687208240E+02 -0.63731933813E+00  0.31527293406E+02  0.51100000000E-03 0. -1.
         12    1    3    3    0    0 -0.14995163203E+01  0.56805236321E+01 -0.76226290117E+01  0.96239997392E+01  0.00000000000E+00 0. -1.
</event>
<event>
 7    1  0.3742599E-009  0.4778727E+02  0.7816164E-02  0.1312668E+00
        -11   -1    0    0    0    0  0.00000000000E+00  0.00000000000E+00  0.45593999997E+02  0.45594000000E+02  0.51100000000E-03 0. -1.
         11   -1    0    0    0    0 -0.00000000000E+00 -0.00000000000E+00 -0.45593999997E+02  0.45594000000E+02  0.51100000000E-03 0.  1.
    9900012    2    1    2    0    0  0.38210264062E+02 -0.13959602720E+02  0.15123781825E+02  0.47787267697E+02  0.19999984736E+02 0.  0.
        -12    1    1    2    0    0 -0.38210264062E+02  0.13959602720E+02 -0.15123781825E+02  0.43400732303E+02  0.00000000000E+00 0.  1.
         11    1    3    3    0    0  0.30120155887E+02 -0.10689849881E+02  0.78764369047E+01  0.32917091908E+02  0.51100000000E-03 0. -1.
        -11    1    3    3    0    0  0.45472801789E+01  0.61299776505E+00 -0.13592356824E+01  0.47855036503E+01  0.51100000000E-03 0.  1.
         12    1    3    3    0    0  0.35428279960E+01 -0.38827506040E+01  0.86065806025E+01  0.10084672138E+02  0.00000000000E+00 0. -1.
</event>
<event>
 7    1  0.3742599E-009  0.4778730E+02  0.7816164E-02  0.1312668E+00
        -11   -1    0    0    0    0  0.00000000000E+00  0.00000000000E+00  0.45593999997E+02  0.45594000000E+02  0.51100000000E-03 0.  1.
         11   -1    0    0    0    0 -0.00000000000E+00 -0.00000000000E+00 -0.45593999997E+02  0.45594000000E+02  0.51100000000E-03 0. -1.
    9900012    2    1    2    0    0 -0.38852746066E+01 -0.38677577462E+02 -0.19302083415E+02  0.47787299760E+02  0.20000130927E+02 0.  0.
        -12    1    1    2    0    0  0.38852746066E+01  0.38677577462E+02  0.19302083415E+02  0.43400700240E+02  0.00000000000E+00 0.  1.
         11    1    3    3    0    0 -0.14150082250E+01 -0.76236732864E+00 -0.54898004691E+01  0.57202588816E+01  0.51100000000E-03 0. -1.
        -11    1    3    3    0    0  0.25440749431E+01 -0.19907892185E+02 -0.11762148891E+02  0.23262515672E+02  0.51100000000E-03 0.  1.
         12    1    3    3    0    0 -0.50143413247E+01 -0.18007317948E+02 -0.20501340542E+01  0.18804525207E+02  0.00000000000E+00 0. -1.
</event>
<event>
 7    1  0.3742599E-009  0.4778727E+02  0.7816164E-02  0.1312668E+00
        -11   -1    0    0    0    0  0.00000000000E+00  0.00000000000E+00  0.45593999997E+02  0.45594000000E+02  0.51100000000E-03 0.  1.
         11   -1    0    0    0    0 -0.00000000000E+00 -0.00000000000E+00 -0.45593999997E+02  0.45594000000E+02  0.51100000000E-03 0. -1.
    9900012    2    1    2    0    0 -0.39682886113E+02  0.38500774960E+01 -0.17148428544E+02  0.47787272489E+02  0.20000006586E+02 0.  0.
        -12    1    1    2    0    0  0.39682886113E+02 -0.38500774960E+01  0.17148428544E+02  0.43400727511E+02  0.00000000000E+00 0.  1.
         11    1    3    3    0    0 -0.18200795986E+01  0.10343049927E+01 -0.61962130304E+01  0.65403006615E+01  0.51100000000E-03 0.  1.
        -11    1    3    3    0    0 -0.67744307581E+01 -0.98243871605E+00 -0.68081135516E+01  0.96544553611E+01  0.51100000000E-03 0. -1.
        -12    1    3    3    0    0 -0.31088375756E+02  0.37982112193E+01 -0.41441019621E+01  0.31592516466E+02  0.00000000000E+00 0.  1.
</event>
<event>
 7    1  0.3742599E-009  0.4778734E+02  0.7816164E-02  0.1312667E+00
        -11   -1    0    0    0    0  0.00000000000E+00  0.00000000000E+00  0.45593999997E+02  0.45594000000E+02  0.51100000000E-03 0.  1.
         11   -1    0    0    0    0 -0.00000000000E+00 -0.00000000000E+00 -0.45593999997E+02  0.45594000000E+02  0.51100000000E-03 0. -1.
    9900012    2    1    2    0    0 -0.28728041561E+02 -0.60813564210E+01 -0.31958323292E+02  0.47787335310E+02  0.20000293012E+02 0.  0.
        -12    1    1    2    0    0  0.28728041561E+02  0.60813564210E+01  0.31958323292E+02  0.43400664690E+02  0.00000000000E+00 0.  1.
         11    1    3    3    0    0 -0.57376347831E+01  0.19675199485E+01 -0.37151680613E+01  0.71129502765E+01  0.51100000000E-03 0. -1.
        -11    1    3    3    0    0 -0.13225257538E+02  0.37721601207E+01 -0.15640216161E+02  0.20826737400E+02  0.51100000000E-03 0.  1.
        -12    1    3    3    0    0 -0.97651492405E+01 -0.11821036490E+02 -0.12602939070E+02  0.19847647634E+02  0.00000000000E+00 0.  1.
</event>
<event>
 7    1  0.3742599E-009  0.4778726E+02  0.7816164E-02  0.1312668E+00
        -11   -1    0    0    0    0  0.00000000000E+00  0.00000000000E+00  0.45593999997E+02  0.45594000000E+02  0.51100000000E-03 0.  1.
         11   -1    0    0    0    0 -0.00000000000E+00 -0.00000000000E+00 -0.45593999997E+02  0.45594000000E+02  0.51100000000E-03 0. -1.
    9900012    2    1    2    0    0 -0.30548864119E+02 -0.30624542316E+02  0.35395349905E+01  0.47787262690E+02  0.19999961911E+02 0.  0.
        -12    1    1    2    0    0  0.30548864119E+02  0.30624542316E+02 -0.35395349905E+01  0.43400737310E+02  0.00000000000E+00 0.  1.
         11    1    3    3    0    0 -0.12868303571E+02 -0.16004183807E+02 -0.39977994599E+01  0.20921508954E+02  0.51100000000E-03 0. -1.
        -11    1    3    3    0    0 -0.16869709464E+02 -0.15862867289E+02  0.46487237940E+01  0.23618388794E+02  0.51100000000E-03 0.  1.
        -12    1    3    3    0    0 -0.81085108403E+00  0.12425087795E+01  0.28886106564E+01  0.32473649428E+01  0.00000000000E+00 0.  1.
</event>
<event>
 7    1  0.3742599E-009  0.4778730E+02  0.7816164E-02  0.1312668E+00
        -11   -1    0    0    0    0  0.00000000000E+00  0.00000000000E+00  0.45593999997E+02  0.45594000000E+02  0.51100000000E-03 0. -1.
         11   -1    0    0    0    0 -0.00000000000E+00 -0.00000000000E+00 -0.45593999997E+02  0.45594000000E+02  0.51100000000E-03 0.  1.
    9900012    2    1    2    0    0  0.25262190062E+01 -0.36469430358E+02  0.23392729953E+02  0.47787297842E+02  0.20000122182E+02 0.  0.
        -12    1    1    2    0    0 -0.25262190062E+01  0.36469430358E+02 -0.23392729953E+02  0.43400702158E+02  0.00000000000E+00 0.  1.
         11    1    3    3    0    0 -0.60898481824E+00 -0.26521657200E+02  0.14506045053E+02  0.30235649596E+02  0.51100000000E-03 0. -1.
        -11    1    3    3    0    0 -0.32159195487E+01 -0.37131642684E+01 -0.87108354787E-01  0.49129742066E+01  0.51100000000E-03 0.  1.
        -12    1    3    3    0    0  0.63511233731E+01 -0.62346088898E+01  0.89737932549E+01  0.12638674040E+02  0.00000000000E+00 0.  1.
</event>
<event>
 7    1  0.3742599E-009  0.4778728E+02  0.7816164E-02  0.1312668E+00
        -11   -1    0    0    0    0  0.00000000000E+00  0.00000000000E+00  0.45593999997E+02  0.45594000000E+02  0.51100000000E-03 0. -1.
         11   -1    0    0    0    0 -0.00000000000E+00 -0.00000000000E+00 -0.45593999997E+02  0.45594000000E+02  0.51100000000E-03 0.  1.
    9900012    2    1    2    0    0 -0.10995987583E+02 -0.26696834525E+02  0.32403547963E+02  0.47787278380E+02  0.20000033445E+02 0.  0.
        -12    1    1    2    0    0  0.10995987583E+02  0.26696834525E+02 -0.32403547963E+02  0.43400721620E+02  0.00000000000E+00 0.  1.
         11    1    3    3    0    0 -0.31118310544E+01 -0.17995479710E+02  0.20522626476E+02  0.27471785167E+02  0.51100000000E-03 0. -1.
        -11    1    3    3    0    0 -0.86746928776E+01 -0.69363765375E+01  0.13716231709E+02  0.17649323742E+02  0.51100000000E-03 0.  1.
         12    1    3    3    0    0  0.79053634920E+00 -0.17649782772E+01 -0.18353102222E+01  0.26661694714E+01  0.00000000000E+00 0. -1.
</event>
<event>
 7    1  0.3742599E-009  0.4778727E+02  0.7816164E-02  0.1312668E+00
        -11   -1    0    0    0    0  0.00000000000E+00  0.00000000000E+00  0.45593999997E+02  0.45594000000E+02  0.51100000000E-03 0.  1.
         11   -1    0    0    0    0 -0.00000000000E+00 -0.00000000000E+00 -0.45593999997E+02  0.45594000000E+02  0.51100000000E-03 0. -1.
    9900012    2    1    2    0    0 -0.21217438354E+02 -0.40688132418E+01 -0.37641574644E+02  0.47787273356E+02  0.20000010539E+02 0.  0.
        -12    1    1    2    0    0  0.21217438354E+02  0.40688132418E+01  0.37641574644E+02  0.43400726644E+02  0.00000000000E+00 0.  1.
         11    1    3    3    0    0 -0.11853923009E+02  0.52926114094E+01 -0.10500363128E+02  0.16696851569E+02  0.51100000000E-03 0. -1.
        -11    1    3    3    0    0  0.99748539695E-02 -0.11056095995E+01  0.11181222646E+00  0.11112939842E+01  0.51100000000E-03 0.  1.
        -12    1    3    3    0    0 -0.93734901991E+01 -0.82558150517E+01 -0.27253023743E+02  0.29979127803E+02  0.00000000000E+00 0.  1.
</event>
<event>
 7    1  0.3742599E-009  0.4778727E+02  0.7816164E-02  0.1312668E+00
        -11   -1    0    0    0    0  0.00000000000E+00  0.00000000000E+00  0.45593999997E+02  0.45594000000E+02  0.51100000000E-03 0.  1.
         11   -1    0    0    0    0 -0.00000000000E+00 -0.00000000000E+00 -0.45593999997E+02  0.45594000000E+02  0.51100000000E-03 0. -1.
    9900012    2    1    2    0    0  0.24979433003E+02 -0.26209500779E+02  0.23931434377E+02  0.47787267799E+02  0.19999985203E+02 0.  0.
        -12    1    1    2    0    0 -0.24979433003E+02  0.26209500779E+02 -0.23931434377E+02  0.43400732201E+02  0.00000000000E+00 0.  1.
         11    1    3    3    0    0  0.18506504650E+02 -0.78308142656E+01  0.73335676352E+01  0.21391437094E+02  0.51100000000E-03 0. -1.
        -11    1    3    3    0    0  0.22627103518E+01 -0.12269455917E+01  0.37822747227E+01  0.45750252415E+01  0.51100000000E-03 0.  1.
         12    1    3    3    0    0  0.42102180007E+01 -0.17151740922E+02  0.12815592019E+02  0.21820805463E+02  0.00000000000E+00 0. -1.
</event>
<event>
 7    1  0.3742599E-009  0.4778727E+02  0.7816164E-02  0.1312668E+00
        -11   -1    0    0    0    0  0.00000000000E+00  0.00000000000E+00  0.45593999997E+02  0.45594000000E+02  0.51100000000E-03 0.  1.
         11   -1    0    0    0    0 -0.00000000000E+00 -0.00000000000E+00 -0.45593999997E+02  0.45594000000E+02  0.51100000000E-03 0. -1.
    9900012    2    1    2    0    0 -0.20751675246E+02 -0.24003576450E+02 -0.29611139955E+02  0.47787270544E+02  0.19999997718E+02 0.  0.
        -12    1    1    2    0    0  0.20751675246E+02  0.24003576450E+02  0.29611139955E+02  0.43400729456E+02  0.00000000000E+00 0.  1.
         11    1    3    3    0    0  0.19799431779E+00 -0.63511004586E+01 -0.60827571070E+00  0.63832341636E+01  0.51100000000E-03 0. -1.
        -11    1    3    3    0    0 -0.50971413600E+01  0.61536069636E+00 -0.32632625108E+01  0.60834530742E+01  0.51100000000E-03 0.  1.
         12    1    3    3    0    0 -0.15852528204E+02 -0.18267836688E+02 -0.25739601733E+02  0.35320583306E+02  0.00000000000E+00 0. -1.
</event>
<event>
 7    1  0.3742599E-009  0.4778727E+02  0.7816164E-02  0.1312668E+00
        -11   -1    0    0    0    0  0.00000000000E+00  0.00000000000E+00  0.45593999997E+02  0.45594000000E+02  0.51100000000E-03 0.  1.
         11   -1    0    0    0    0 -0.00000000000E+00 -0.00000000000E+00 -0.45593999997E+02  0.45594000000E+02  0.51100000000E-03 0. -1.
    9900012    2    1    2    0    0  0.18428498021E+02 -0.66958061002E+01 -0.38719245153E+02  0.47787270699E+02  0.19999998425E+02 0.  0.
        -12    1    1    2    0    0 -0.18428498021E+02  0.66958061002E+01  0.38719245153E+02  0.43400729301E+02  0.00000000000E+00 0.  1.
         11    1    3    3    0    0  0.35762361421E+01 -0.74792287852E-02 -0.56215044126E+01  0.66626445954E+01  0.51100000000E-03 0. -1.
        -11    1    3    3    0    0  0.14348985153E+02 -0.11270767604E+02 -0.31190967580E+02  0.36135855271E+02  0.51100000000E-03 0.  1.
        -12    1    3    3    0    0  0.50327672548E+00  0.45824407330E+01 -0.19067731598E+01  0.49887708322E+01  0.00000000000E+00 0.  1.
</event>
<event>
 7    1  0.3742599E-009  0.4778727E+02  0.7816164E-02  0.1312668E+00
        -11   -1    0    0    0    0  0.00000000000E+00  0.00000000000E+00  0.45593999997E+02  0.45594000000E+02  0.51100000000E-03 0.  1.
         11   -1    0    0    0    0 -0.00000000000E+00 -0.00000000000E+00 -0.45593999997E+02  0.45594000000E+02  0.51100000000E-03 0. -1.
    9900012    2    1    2    0    0 -0.29061102947E+02 -0.32214170346E+02 -0.11501447734E+01  0.47787270645E+02  0.19999998180E+02 0.  0.
        -12    1    1    2    0    0  0.29061102947E+02  0.32214170346E+02  0.11501447734E+01  0.43400729355E+02  0.00000000000E+00 0.  1.
         11    1    3    3    0    0 -0.11558077135E+02 -0.22950650933E+02  0.35918264366E+01  0.25946536237E+02  0.51100000000E-03 0. -1.
        -11    1    3    3    0    0 -0.93840963562E+01 -0.52003134413E+01  0.14858560983E+01  0.10831079952E+02  0.51100000000E-03 0.  1.
        -12    1    3    3    0    0 -0.81189294554E+01 -0.40632059715E+01 -0.62278273083E+01  0.11009654456E+02  0.00000000000E+00 0.  1.
</event>
<event>
 7    1  0.3742599E-009  0.4778727E+02  0.7816164E-02  0.1312668E+00
        -11   -1    0    0    0    0  0.00000000000E+00  0.00000000000E+00  0.45593999997E+02  0.45594000000E+02  0.51100000000E-03 0.  1.
         11   -1    0    0    0    0 -0.00000000000E+00 -0.00000000000E+00 -0.45593999997E+02  0.45594000000E+02  0.51100000000E-03 0. -1.
    9900012    2    1    2    0    0 -0.55700579143E+01 -0.49403798721E+01 -0.42757340827E+02  0.47787273128E+02  0.20000009501E+02 0.  0.
        -12    1    1    2    0    0  0.55700579143E+01  0.49403798721E+01  0.42757340827E+02  0.43400726872E+02  0.00000000000E+00 0.  1.
         11    1    3    3    0    0 -0.23463393128E+01  0.51666086978E+00 -0.14871184369E+02  0.15064009141E+02  0.51100000000E-03 0.  1.
        -11    1    3    3    0    0  0.14944175169E+01 -0.26898438033E+01 -0.27008887450E+02  0.27183608019E+02  0.51100000000E-03 0. -1.
        -12    1    3    3    0    0 -0.47181361184E+01 -0.27671969386E+01 -0.87726900828E+00  0.55396559678E+01  0.00000000000E+00 0.  1.
</event>
<event>
 7    1  0.3742599E-009  0.4778727E+02  0.7816164E-02  0.1312668E+00
        -11   -1    0    0    0    0  0.00000000000E+00  0.00000000000E+00  0.45593999997E+02  0.45594000000E+02  0.51100000000E-03 0.  1.
         11   -1    0    0    0    0 -0.00000000000E+00 -0.00000000000E+00 -0.45593999997E+02  0.45594000000E+02  0.51100000000E-03 0. -1.
    9900012    2    1    2    0    0  0.29283073783E+02  0.29481735811E+02 -0.12528062279E+02  0.47787268427E+02  0.19999988068E+02 0.  0.
        -12    1    1    2    0    0 -0.29283073783E+02 -0.29481735811E+02  0.12528062279E+02  0.43400731573E+02  0.00000000000E+00 0.  1.
         11    1    3    3    0    0 -0.54511305137E-01  0.66548905559E+01 -0.96881206192E+00  0.67252611002E+01  0.51100000000E-03 0. -1.
        -11    1    3    3    0    0 -0.16770355107E+00  0.18783691610E+01  0.16848091084E+01  0.25288292111E+01  0.51100000000E-03 0.  1.
         12    1    3    3    0    0  0.29505288639E+02  0.20948476094E+02 -0.13244059326E+02  0.38533178116E+02  0.00000000000E+00 0. -1.
</event>
<event>
 7    1  0.3742599E-009  0.4778727E+02  0.7816164E-02  0.1312668E+00
        -11   -1    0    0    0    0  0.00000000000E+00  0.00000000000E+00  0.45593999997E+02  0.45594000000E+02  0.51100000000E-03 0. -1.
         11   -1    0    0    0    0 -0.00000000000E+00 -0.00000000000E+00 -0.45593999997E+02  0.45594000000E+02  0.51100000000E-03 0.  1.
    9900012    2    1    2    0    0  0.17805827464E+01 -0.25342918887E+02  0.35187911073E+02  0.47787273067E+02  0.20000009221E+02 0.  0.
        -12    1    1    2    0    0 -0.17805827464E+01  0.25342918887E+02 -0.35187911073E+02  0.43400726933E+02  0.00000000000E+00 0.  1.
         11    1    3    3    0    0  0.23834706873E+01 -0.10306762564E+02  0.24967843026E+02  0.27116479725E+02  0.51100000000E-03 0. -1.
        -11    1    3    3    0    0  0.53040664487E+00 -0.12832906394E+02  0.12033606724E+02  0.17600355359E+02  0.51100000000E-03 0.  1.
         12    1    3    3    0    0 -0.11332945858E+01 -0.22032499296E+01 -0.18135386771E+01  0.30704379824E+01  0.00000000000E+00 0. -1.
</event>
<event>
 7    1  0.3742599E-009  0.4778727E+02  0.7816164E-02  0.1312668E+00
        -11   -1    0    0    0    0  0.00000000000E+00  0.00000000000E+00  0.45593999997E+02  0.45594000000E+02  0.51100000000E-03 0.  1.
         11   -1    0    0    0    0 -0.00000000000E+00 -0.00000000000E+00 -0.45593999997E+02  0.45594000000E+02  0.51100000000E-03 0. -1.
    9900012    2    1    2    0    0 -0.28233516668E+02 -0.17332037327E+02 -0.28037335748E+02  0.47787272158E+02  0.20000005076E+02 0.  0.
        -12    1    1    2    0    0  0.28233516668E+02  0.17332037327E+02  0.28037335748E+02  0.43400727842E+02  0.00000000000E+00 0.  1.
         11    1    3    3    0    0 -0.11542036394E+02 -0.13330808532E+02 -0.17642892539E+02  0.24943951524E+02  0.51100000000E-03 0. -1.
        -11    1    3    3    0    0 -0.74153932015E+01 -0.24967654606E+01 -0.10917109435E+02  0.13431499275E+02  0.51100000000E-03 0.  1.
        -12    1    3    3    0    0 -0.92760870731E+01 -0.15044633345E+01  0.52266622525E+00  0.94118213591E+01  0.00000000000E+00 0.  1.
</event>
<event>
 7    1  0.3742599E-009  0.4778727E+02  0.7816164E-02  0.1312668E+00
        -11   -1    0    0    0    0  0.00000000000E+00  0.00000000000E+00  0.45593999997E+02  0.45594000000E+02  0.51100000000E-03 0. -1.
         11   -1    0    0    0    0 -0.00000000000E+00 -0.00000000000E+00 -0.45593999997E+02  0.45594000000E+02  0.51100000000E-03 0.  1.
    9900012    2    1    2    0    0 -0.14998513572E+01 -0.12789760761E+02  0.41446298363E+02  0.47787272098E+02  0.20000004802E+02 0.  0.
        -12    1    1    2    0    0  0.14998513572E+01  0.12789760761E+02 -0.41446298363E+02  0.43400727902E+02  0.00000000000E+00 0.  1.
         11    1    3    3    0    0  0.80099698657E+00 -0.35568922917E+01  0.27241450881E+02  0.27484354191E+02  0.51100000000E-03 0. -1.
        -11    1    3    3    0    0 -0.89635075386E+00 -0.86419739613E+01  0.15840941621E+02  0.18067168852E+02  0.51100000000E-03 0.  1.
        -12    1    3    3    0    0 -0.14044975899E+01 -0.59089450807E+00 -0.16360941392E+01  0.22357490539E+01  0.00000000000E+00 0.  1.
</event>
<event>
 7    1  0.3742599E-009  0.4778727E+02  0.7816164E-02  0.1312668E+00
        -11   -1    0    0    0    0  0.00000000000E+00  0.00000000000E+00  0.45593999997E+02  0.45594000000E+02  0.51100000000E-03 0. -1.
         11   -1    0    0    0    0 -0.00000000000E+00 -0.00000000000E+00 -0.45593999997E+02  0.45594000000E+02  0.51100000000E-03 0.  1.
    9900012    2    1    2    0    0 -0.19845994702E+02 -0.31797621136E+02  0.21878559395E+02  0.47787267555E+02  0.19999984090E+02 0.  0.
        -12    1    1    2    0    0  0.19845994702E+02  0.31797621136E+02 -0.21878559395E+02  0.43400732445E+02  0.00000000000E+00 0.  1.
         11    1    3    3    0    0 -0.15885234504E+01  0.14782685653E+01  0.24334291935E+01  0.32604083494E+01  0.51100000000E-03 0. -1.
        -11    1    3    3    0    0 -0.31134462321E-01  0.82319649866E+00 -0.55746201325E+00  0.99467883636E+00  0.51100000000E-03 0.  1.
         12    1    3    3    0    0 -0.18226336789E+02 -0.34099086200E+02  0.20002592214E+02  0.43532180369E+02  0.00000000000E+00 0. -1.
</event>
<event>
 7    1  0.3742599E-009  0.4778727E+02  0.7816164E-02  0.1312668E+00
        -11   -1    0    0    0    0  0.00000000000E+00  0.00000000000E+00  0.45593999997E+02  0.45594000000E+02  0.51100000000E-03 0.  1.
         11   -1    0    0    0    0 -0.00000000000E+00 -0.00000000000E+00 -0.45593999997E+02  0.45594000000E+02  0.51100000000E-03 0. -1.
    9900012    2    1    2    0    0 -0.24371632544E+02 -0.19711496213E+02 -0.30018389055E+02  0.47787271466E+02  0.20000001922E+02 0.  0.
        -12    1    1    2    0    0  0.24371632544E+02  0.19711496213E+02  0.30018389055E+02  0.43400728534E+02  0.00000000000E+00 0.  1.
         11    1    3    3    0    0 -0.10244385662E+02 -0.27578277310E+01 -0.73583019481E+01  0.12911144767E+02  0.51100000000E-03 0. -1.
        -11    1    3    3    0    0 -0.25399889084E+01  0.26278114040E+01 -0.42697970835E+01  0.56203295121E+01  0.51100000000E-03 0.  1.
         12    1    3    3    0    0 -0.11587257974E+02 -0.19581479886E+02 -0.18390290024E+02  0.29255797187E+02  0.00000000000E+00 0. -1.
</event>
<event>
 7    1  0.3742599E-009  0.4778725E+02  0.7816164E-02  0.1312668E+00
        -11   -1    0    0    0    0  0.00000000000E+00  0.00000000000E+00  0.45593999997E+02  0.45594000000E+02  0.51100000000E-03 0.  1.
         11   -1    0    0    0    0 -0.00000000000E+00 -0.00000000000E+00 -0.45593999997E+02  0.45594000000E+02  0.51100000000E-03 0. -1.
    9900012    2    1    2    0    0  0.14151536726E+02  0.28893176372E+02 -0.29129764629E+02  0.47787253233E+02  0.19999918790E+02 0.  0.
        -12    1    1    2    0    0 -0.14151536726E+02 -0.28893176372E+02  0.29129764629E+02  0.43400746767E+02  0.00000000000E+00 0.  1.
         11    1    3    3    0    0  0.93765904349E+01  0.11243259117E+02 -0.17985459805E+02  0.23190689692E+02  0.51100000000E-03 0. -1.
        -11    1    3    3    0    0  0.82489709362E+01  0.81909428243E+01 -0.42068907787E+01  0.12362645192E+02  0.51100000000E-03 0.  1.
         12    1    3    3    0    0 -0.34740246452E+01  0.94589744309E+01 -0.69374140460E+01  0.12233918349E+02  0.00000000000E+00 0. -1.
</event>
<event>
 7    1  0.3742599E-009  0.4778727E+02  0.7816164E-02  0.1312668E+00
        -11   -1    0    0    0    0  0.00000000000E+00  0.00000000000E+00  0.45593999997E+02  0.45594000000E+02  0.51100000000E-03 0.  1.
         11   -1    0    0    0    0 -0.00000000000E+00 -0.00000000000E+00 -0.45593999997E+02  0.45594000000E+02  0.51100000000E-03 0. -1.
    9900012    2    1    2    0    0 -0.11213855307E+02 -0.37715832063E+02 -0.18313628929E+02  0.47787267937E+02  0.19999985833E+02 0.  0.
        -12    1    1    2    0    0  0.11213855307E+02  0.37715832063E+02  0.18313628929E+02  0.43400732063E+02  0.00000000000E+00 0.  1.
         11    1    3    3    0    0 -0.27444322119E+01 -0.29968679253E+02 -0.17949903864E+02  0.35040729063E+02  0.51100000000E-03 0. -1.
        -11    1    3    3    0    0 -0.53193883568E+00  0.62419873770E+00 -0.87473259957E+00  0.11990581182E+01  0.51100000000E-03 0.  1.
         12    1    3    3    0    0 -0.79374842594E+01 -0.83713515475E+01  0.51100753419E+00  0.11547480756E+02  0.00000000000E+00 0. -1.
</event>
<event>
 7    1  0.3742599E-009  0.4778726E+02  0.7816164E-02  0.1312668E+00
        -11   -1    0    0    0    0  0.00000000000E+00  0.00000000000E+00  0.45593999997E+02  0.45594000000E+02  0.51100000000E-03 0. -1.
         11   -1    0    0    0    0 -0.00000000000E+00 -0.00000000000E+00 -0.45593999997E+02  0.45594000000E+02  0.51100000000E-03 0.  1.
    9900012    2    1    2    0    0  0.35833286273E+02  0.21674170282E+02 -0.11394291958E+02  0.47787263234E+02  0.19999964390E+02 0.  0.
        -12    1    1    2    0    0 -0.35833286273E+02 -0.21674170282E+02  0.11394291958E+02  0.43400736766E+02  0.00000000000E+00 0.  1.
         11    1    3    3    0    0  0.66575151078E+01  0.24889825112E+01  0.35807176488E+01  0.79585853324E+01  0.51100000000E-03 0. -1.
        -11    1    3    3    0    0 -0.17382427613E+00  0.37248400228E+01 -0.17079963686E+01  0.41014509544E+01  0.51100000000E-03 0.  1.
         12    1    3    3    0    0  0.29349595442E+02  0.15460347748E+02 -0.13267013238E+02  0.35727226948E+02  0.00000000000E+00 0. -1.
</event>
<event>
 7    1  0.4886861E-009  0.4778728E+02  0.7816164E-02  0.1312668E+00
        -11   -1    0    0    0    0  0.00000000000E+00  0.00000000000E+00  0.45593999997E+02  0.45594000000E+02  0.51100000000E-03 0.  1.
         11   -1    0    0    0    0 -0.00000000000E+00 -0.00000000000E+00 -0.45593999997E+02  0.45594000000E+02  0.51100000000E-03 0. -1.
    9900012    2    1    2    0    0 -0.29766661681E+02 -0.30241341424E+02 -0.91120570686E+01  0.47787280389E+02  0.20000042606E+02 0.  0.
        -12    1    1    2    0    0  0.29766661681E+02  0.30241341424E+02  0.91120570686E+01  0.43400719611E+02  0.00000000000E+00 0.  1.
         11    1    3    3    0    0 -0.20107608170E+02 -0.18264401276E+02 -0.74769736896E+01  0.28174623265E+02  0.51100000000E-03 0. -1.
        -11    1    3    3    0    0 -0.82455711195E+01 -0.14345000133E+02 -0.30002730592E+00  0.16548670296E+02  0.51100000000E-03 0.  1.
        -12    1    3    3    0    0 -0.14134823915E+01  0.23680599858E+01 -0.13350560731E+01  0.30639868286E+01  0.00000000000E+00 0.  1.
</event>
<event>
 7    1  0.8320995E-009  0.4778729E+02  0.7816164E-02  0.1312668E+00
        -11   -1    0    0    0    0  0.00000000000E+00  0.00000000000E+00  0.45593999997E+02  0.45594000000E+02  0.51100000000E-03 0.  1.
         11   -1    0    0    0    0 -0.00000000000E+00 -0.00000000000E+00 -0.45593999997E+02  0.45594000000E+02  0.51100000000E-03 0. -1.
    9900012    2    1    2    0    0  0.32646450491E+02 -0.13133666382E+02 -0.25403505529E+02  0.47787285543E+02  0.20000066103E+02 0.  0.
        -12    1    1    2    0    0 -0.32646450491E+02  0.13133666382E+02  0.25403505529E+02  0.43400714457E+02  0.00000000000E+00 0.  1.
         11    1    3    3    0    0  0.14120463387E+02 -0.14271032159E+01 -0.10090700269E+02  0.17413969738E+02  0.51100000000E-03 0. -1.
        -11    1    3    3    0    0  0.18772474706E+02 -0.12627740836E+02 -0.95923851716E+01  0.24573959770E+02  0.51100000000E-03 0.  1.
        -12    1    3    3    0    0 -0.24648760302E+00  0.92117766933E+00 -0.57204200881E+01  0.57993560350E+01  0.00000000000E+00 0.  1.
</event>
<event>
 7    1  0.3742599E-009  0.4778727E+02  0.7816164E-02  0.1312668E+00
        -11   -1    0    0    0    0  0.00000000000E+00  0.00000000000E+00  0.45593999997E+02  0.45594000000E+02  0.51100000000E-03 0.  1.
         11   -1    0    0    0    0 -0.00000000000E+00 -0.00000000000E+00 -0.45593999997E+02  0.45594000000E+02  0.51100000000E-03 0. -1.
    9900012    2    1    2    0    0 -0.27536357614E+02  0.19493764682E+02 -0.27301383127E+02  0.47787269905E+02  0.19999994806E+02 0.  0.
        -12    1    1    2    0    0  0.27536357614E+02 -0.19493764682E+02  0.27301383127E+02  0.43400730095E+02  0.00000000000E+00 0.  1.
         11    1    3    3    0    0  0.10330015691E+01  0.30171419153E+01 -0.23598157532E+01  0.39672368507E+01  0.51100000000E-03 0. -1.
        -11    1    3    3    0    0 -0.50363921356E+01  0.68644341777E+01 -0.45761399445E+00  0.85261429235E+01  0.51100000000E-03 0.  1.
        -12    1    3    3    0    0 -0.23532967047E+02  0.96121885895E+01 -0.24483953379E+02  0.35293890131E+02  0.00000000000E+00 0.  1.
</event>
<event>
 7    1  0.3742599E-009  0.4778727E+02  0.7816164E-02  0.1312668E+00
        -11   -1    0    0    0    0  0.00000000000E+00  0.00000000000E+00  0.45593999997E+02  0.45594000000E+02  0.51100000000E-03 0. -1.
         11   -1    0    0    0    0 -0.00000000000E+00 -0.00000000000E+00 -0.45593999997E+02  0.45594000000E+02  0.51100000000E-03 0.  1.
    9900012    2    1    2    0    0  0.20550057110E+02  0.25347586897E+02  0.28614999274E+02  0.47787271985E+02  0.20000004288E+02 0.  0.
        -12    1    1    2    0    0 -0.20550057110E+02 -0.25347586897E+02 -0.28614999274E+02  0.43400728015E+02  0.00000000000E+00 0.  1.
         11    1    3    3    0    0  0.41909199044E+01  0.22503224646E+01  0.13173557371E+02  0.14006083496E+02  0.51100000000E-03 0. -1.
        -11    1    3    3    0    0  0.28418268491E+00  0.60459069984E+00  0.36746110873E+01  0.37348435866E+01  0.51100000000E-03 0.  1.
        -12    1    3    3    0    0  0.16074954521E+02  0.22492673733E+02  0.11766830817E+02  0.30046344902E+02  0.00000000000E+00 0.  1.
</event>
<event>
 7    1  0.3742599E-009  0.4778727E+02  0.7816164E-02  0.1312668E+00
        -11   -1    0    0    0    0  0.00000000000E+00  0.00000000000E+00  0.45593999997E+02  0.45594000000E+02  0.51100000000E-03 0. -1.
         11   -1    0    0    0    0 -0.00000000000E+00 -0.00000000000E+00 -0.45593999997E+02  0.45594000000E+02  0.51100000000E-03 0.  1.
    9900012    2    1    2    0    0 -0.19327336905E+02 -0.24939615130E+02 -0.29800883642E+02  0.47787273963E+02  0.20000013308E+02 0.  0.
        -12    1    1    2    0    0  0.19327336905E+02  0.24939615130E+02  0.29800883642E+02  0.43400726037E+02  0.00000000000E+00 0.  1.
         11    1    3    3    0    0  0.24893330304E+01 -0.22783599981E+01 -0.55773369673E+01  0.65187722100E+01  0.51100000000E-03 0. -1.
        -11    1    3    3    0    0 -0.47583178345E+01 -0.31848172028E+01 -0.10514590035E+02  0.11972520750E+02  0.51100000000E-03 0.  1.
        -12    1    3    3    0    0 -0.17058352101E+02 -0.19476437929E+02 -0.13708956639E+02  0.29295981003E+02  0.00000000000E+00 0.  1.
</event>
<event>
 7    1  0.3742599E-009  0.4778727E+02  0.7816164E-02  0.1312668E+00
        -11   -1    0    0    0    0  0.00000000000E+00  0.00000000000E+00  0.45593999997E+02  0.45594000000E+02  0.51100000000E-03 0.  1.
         11   -1    0    0    0    0 -0.00000000000E+00 -0.00000000000E+00 -0.45593999997E+02  0.45594000000E+02  0.51100000000E-03 0. -1.
    9900012    2    1    2    0    0  0.25615913610E+02  0.34745191403E+02 -0.44966299585E+01  0.47787273777E+02  0.20000012460E+02 0.  0.
        -12    1    1    2    0    0 -0.25615913610E+02 -0.34745191403E+02  0.44966299585E+01  0.43400726223E+02  0.00000000000E+00 0.  1.
         11    1    3    3    0    0  0.14127547789E+02  0.10126576584E+02  0.87852332346E+00  0.17404222572E+02  0.51100000000E-03 0. -1.
        -11    1    3    3    0    0  0.97322112493E+01  0.16496201650E+02  0.20195130190E+01  0.19259258495E+02  0.51100000000E-03 0.  1.
         12    1    3    3    0    0  0.17561545718E+01  0.81224131681E+01 -0.73946663010E+01  0.11123792710E+02  0.00000000000E+00 0. -1.
</event>
<event>
 7    1  0.3742599E-009  0.4778727E+02  0.7816164E-02  0.1312668E+00
        -11   -1    0    0    0    0  0.00000000000E+00  0.00000000000E+00  0.45593999997E+02  0.45594000000E+02  0.51100000000E-03 0.  1.
         11   -1    0    0    0    0 -0.00000000000E+00 -0.00000000000E+00 -0.45593999997E+02  0.45594000000E+02  0.51100000000E-03 0. -1.
    9900012    2    1    2    0    0  0.25503956948E+02 -0.32451327729E+02 -0.13419493988E+02  0.47787270625E+02  0.19999998089E+02 0.  0.
        -12    1    1    2    0    0 -0.25503956948E+02  0.32451327729E+02  0.13419493988E+02  0.43400729375E+02  0.00000000000E+00 0.  1.
         11    1    3    3    0    0  0.79632607934E+01 -0.17247611179E+02 -0.89032247043E+01  0.20980014877E+02  0.51100000000E-03 0. -1.
        -11    1    3    3    0    0  0.17617872105E+02 -0.12693287246E+02 -0.74394154611E+01  0.22953297395E+02  0.51100000000E-03 0.  1.
        -12    1    3    3    0    0 -0.77175950517E-01 -0.25104293039E+01  0.29231461772E+01  0.38539583536E+01  0.00000000000E+00 0.  1.
</event>
<event>
 7    1  0.3742599E-009  0.4778728E+02  0.7816164E-02  0.1312668E+00
        -11   -1    0    0    0    0  0.00000000000E+00  0.00000000000E+00  0.45593999997E+02  0.45594000000E+02  0.51100000000E-03 0. -1.
         11   -1    0    0    0    0 -0.00000000000E+00 -0.00000000000E+00 -0.45593999997E+02  0.45594000000E+02  0.51100000000E-03 0.  1.
    9900012    2    1    2    0    0 -0.18447352783E+02 -0.39285057181E+02  0.48711953350E-01  0.47787275176E+02  0.20000018835E+02 0.  0.
        -12    1    1    2    0    0  0.18447352783E+02  0.39285057181E+02 -0.48711953350E-01  0.43400724824E+02  0.00000000000E+00 0.  1.
         11    1    3    3    0    0 -0.65994432993E+01 -0.15532656688E+02  0.48079671569E+01  0.17548009120E+02  0.51100000000E-03 0.  1.
        -11    1    3    3    0    0 -0.76391144295E+01 -0.22679074724E+02 -0.18561662865E+00  0.23931797955E+02  0.51100000000E-03 0. -1.
        -12    1    3    3    0    0 -0.42087950541E+01 -0.10733257698E+01 -0.45736385749E+01  0.63074680997E+01  0.00000000000E+00 0.  1.
</event>
<event>
 7    1  0.3742599E-009  0.4778727E+02  0.7816164E-02  0.1312668E+00
        -11   -1    0    0    0    0  0.00000000000E+00  0.00000000000E+00  0.45593999997E+02  0.45594000000E+02  0.51100000000E-03 0.  1.
         11   -1    0    0    0    0 -0.00000000000E+00 -0.00000000000E+00 -0.45593999997E+02  0.45594000000E+02  0.51100000000E-03 0. -1.
    9900012    2    1    2    0    0  0.29828809854E+02  0.26757853359E+02 -0.16669815193E+02  0.47787270141E+02  0.19999995882E+02 0.  0.
        -12    1    1    2    0    0 -0.29828809854E+02 -0.26757853359E+02  0.16669815193E+02  0.43400729859E+02  0.00000000000E+00 0.  1.
         11    1    3    3    0    0  0.18743267404E+02  0.12988705902E+02 -0.74356453519E+01  0.23985524303E+02  0.51100000000E-03 0. -1.
        -11    1    3    3    0    0  0.12295921123E+02  0.15140671805E+02 -0.65925756881E+01  0.20588629712E+02  0.51100000000E-03 0.  1.
        -12    1    3    3    0    0 -0.12103786735E+01 -0.13715243482E+01 -0.26415941533E+01  0.32131161264E+01  0.00000000000E+00 0.  1.
</event>
<event>
 7    1  0.3742599E-009  0.4778727E+02  0.7816164E-02  0.1312668E+00
        -11   -1    0    0    0    0  0.00000000000E+00  0.00000000000E+00  0.45593999997E+02  0.45594000000E+02  0.51100000000E-03 0.  1.
         11   -1    0    0    0    0 -0.00000000000E+00 -0.00000000000E+00 -0.45593999997E+02  0.45594000000E+02  0.51100000000E-03 0. -1.
    9900012    2    1    2    0    0 -0.15672138181E+02 -0.29143992669E+02 -0.28082651353E+02  0.47787268084E+02  0.19999986501E+02 0.  0.
        -12    1    1    2    0    0  0.15672138181E+02  0.29143992669E+02  0.28082651353E+02  0.43400731916E+02  0.00000000000E+00 0.  1.
         11    1    3    3    0    0 -0.90516035249E+01 -0.20482907095E+02 -0.16767770493E+02  0.27975688320E+02  0.51100000000E-03 0. -1.
        -11    1    3    3    0    0 -0.66779737717E+01 -0.55361150315E+01 -0.13465533679E+02  0.16017630938E+02  0.51100000000E-03 0.  1.
         12    1    3    3    0    0  0.57439115817E-01 -0.31249705422E+01  0.21506528191E+01  0.37939488254E+01  0.00000000000E+00 0. -1.
</event>
<event>
 7    1  0.3742599E-009  0.4778727E+02  0.7816164E-02  0.1312668E+00
        -11   -1    0    0    0    0  0.00000000000E+00  0.00000000000E+00  0.45593999997E+02  0.45594000000E+02  0.51100000000E-03 0.  1.
         11   -1    0    0    0    0 -0.00000000000E+00 -0.00000000000E+00 -0.45593999997E+02  0.45594000000E+02  0.51100000000E-03 0. -1.
    9900012    2    1    2    0    0  0.36479924582E+02 -0.14290708382E+02 -0.18671218623E+02  0.47787266729E+02  0.19999980325E+02 0.  0.
        -12    1    1    2    0    0 -0.36479924582E+02  0.14290708382E+02  0.18671218623E+02  0.43400733271E+02  0.00000000000E+00 0.  1.
         11    1    3    3    0    0  0.58850326141E+01  0.30523653310E+00  0.19497964709E+01  0.62071317651E+01  0.51100000000E-03 0. -1.
        -11    1    3    3    0    0  0.19349529740E+01  0.21472523292E+01 -0.20737110229E+01  0.35573885428E+01  0.51100000000E-03 0.  1.
         12    1    3    3    0    0  0.28659938994E+02 -0.16743197244E+02 -0.18547304071E+02  0.38022746421E+02  0.00000000000E+00 0. -1.
</event>
<event>
 7    1  0.3742599E-009  0.4778727E+02  0.7816164E-02  0.1312668E+00
        -11   -1    0    0    0    0  0.00000000000E+00  0.00000000000E+00  0.45593999997E+02  0.45594000000E+02  0.51100000000E-03 0. -1.
         11   -1    0    0    0    0 -0.00000000000E+00 -0.00000000000E+00 -0.45593999997E+02  0.45594000000E+02  0.51100000000E-03 0.  1.
    9900012    2    1    2    0    0  0.37626084954E+00 -0.28052692173E+02  0.33113866141E+02  0.47787271421E+02  0.20000001716E+02 0.  0.
        -12    1    1    2    0    0 -0.37626084954E+00  0.28052692173E+02 -0.33113866141E+02  0.43400728579E+02  0.00000000000E+00 0.  1.
         11    1    3    3    0    0  0.57121582587E+01 -0.99487442546E+01  0.10557443034E+02  0.15590569838E+02  0.51100000000E-03 0.  1.
        -11    1    3    3    0    0  0.28296348754E+01 -0.12291688979E+02  0.97949680236E+01  0.15969779282E+02  0.51100000000E-03 0. -1.
        -12    1    3    3    0    0 -0.81655322846E+01 -0.58122589400E+01  0.12761455084E+02  0.16226922300E+02  0.00000000000E+00 0.  1.
</event>
<event>
 7    1  0.3742599E-009  0.4778727E+02  0.7816164E-02  0.1312668E+00
        -11   -1    0    0    0    0  0.00000000000E+00  0.00000000000E+00  0.45593999997E+02  0.45594000000E+02  0.51100000000E-03 0.  1.
         11   -1    0    0    0    0 -0.00000000000E+00 -0.00000000000E+00 -0.45593999997E+02  0.45594000000E+02  0.51100000000E-03 0. -1.
    9900012    2    1    2    0    0 -0.95240625899E+01  0.16210291270E+02 -0.39117028168E+02  0.47787271850E+02  0.20000003673E+02 0.  0.
        -12    1    1    2    0    0  0.95240625899E+01 -0.16210291270E+02  0.39117028168E+02  0.43400728150E+02  0.00000000000E+00 0.  1.
         11    1    3    3    0    0 -0.72277769081E+01  0.14682965057E+02 -0.17101427579E+02  0.23670425585E+02  0.51100000000E-03 0. -1.
        -11    1    3    3    0    0 -0.49473050055E+01  0.36204114764E+01 -0.10975356985E+02  0.12571462417E+02  0.51100000000E-03 0.  1.
        -12    1    3    3    0    0  0.26510193237E+01 -0.20930852630E+01 -0.11040243604E+02  0.11545383848E+02  0.00000000000E+00 0.  1.
</event>
<event>
 7    1  0.3742599E-009  0.4778727E+02  0.7816164E-02  0.1312668E+00
        -11   -1    0    0    0    0  0.00000000000E+00  0.00000000000E+00  0.45593999997E+02  0.45594000000E+02  0.51100000000E-03 0. -1.
         11   -1    0    0    0    0 -0.00000000000E+00 -0.00000000000E+00 -0.45593999997E+02  0.45594000000E+02  0.51100000000E-03 0.  1.
    9900012    2    1    2    0    0  0.43342117833E+02  0.10692198588E+01 -0.19852164077E+01  0.47787268514E+02  0.19999988463E+02 0.  0.
        -12    1    1    2    0    0 -0.43342117833E+02 -0.10692198588E+01  0.19852164077E+01  0.43400731486E+02  0.00000000000E+00 0.  1.
         11    1    3    3    0    0  0.20190976565E+02  0.86896515597E+00 -0.38195495385E+01  0.20567440143E+02  0.51100000000E-03 0. -1.
        -11    1    3    3    0    0  0.91868296571E+01 -0.56768957202E+01 -0.31852930884E+01  0.11259266250E+02  0.51100000000E-03 0.  1.
         12    1    3    3    0    0  0.13964311611E+02  0.58771504230E+01  0.50196262192E+01  0.15960562122E+02  0.00000000000E+00 0. -1.
</event>
<event>
 7    1  0.3742599E-009  0.4778727E+02  0.7816164E-02  0.1312668E+00
        -11   -1    0    0    0    0  0.00000000000E+00  0.00000000000E+00  0.45593999997E+02  0.45594000000E+02  0.51100000000E-03 0.  1.
         11   -1    0    0    0    0 -0.00000000000E+00 -0.00000000000E+00 -0.45593999997E+02  0.45594000000E+02  0.51100000000E-03 0. -1.
    9900012    2    1    2    0    0  0.52344258813E+01 -0.32600384707E+02 -0.28168047502E+02  0.47787271925E+02  0.20000004013E+02 0.  0.
        -12    1    1    2    0    0 -0.52344258813E+01  0.32600384707E+02  0.28168047502E+02  0.43400728075E+02  0.00000000000E+00 0.  1.
         11    1    3    3    0    0 -0.35372202500E+01 -0.12874033980E+02 -0.54679118373E+01  0.14427430060E+02  0.51100000000E-03 0. -1.
        -11    1    3    3    0    0  0.54962181137E+00 -0.12540732124E+02 -0.16727524014E+02  0.20913682274E+02  0.51100000000E-03 0.  1.
         12    1    3    3    0    0  0.82220243199E+01 -0.71856186038E+01 -0.59726116507E+01  0.12446159591E+02  0.00000000000E+00 0. -1.
</event>
<event>
 7    1  0.3742599E-009  0.4778728E+02  0.7816164E-02  0.1312668E+00
        -11   -1    0    0    0    0  0.00000000000E+00  0.00000000000E+00  0.45593999997E+02  0.45594000000E+02  0.51100000000E-03 0.  1.
         11   -1    0    0    0    0 -0.00000000000E+00 -0.00000000000E+00 -0.45593999997E+02  0.45594000000E+02  0.51100000000E-03 0. -1.
    9900012    2    1    2    0    0 -0.34254411252E+02  0.23867631259E+02 -0.11857239805E+02  0.47787278256E+02  0.20000032878E+02 0.  0.
        -12    1    1    2    0    0  0.34254411252E+02 -0.23867631259E+02  0.11857239805E+02  0.43400721744E+02  0.00000000000E+00 0.  1.
         11    1    3    3    0    0 -0.28205887944E+02  0.18945799962E+02 -0.44420079264E+01  0.34267285938E+02  0.51100000000E-03 0. -1.
        -11    1    3    3    0    0 -0.49492843405E+01  0.63339977978E+01 -0.27050191657E+01  0.84812777654E+01  0.51100000000E-03 0.  1.
        -12    1    3    3    0    0 -0.10992389678E+01 -0.14121665007E+01 -0.47102127130E+01  0.50387145519E+01  0.00000000000E+00 0.  1.
</event>
<event>
 7    1  0.3742599E-009  0.4778727E+02  0.7816164E-02  0.1312668E+00
        -11   -1    0    0    0    0  0.00000000000E+00  0.00000000000E+00  0.45593999997E+02  0.45594000000E+02  0.51100000000E-03 0.  1.
         11   -1    0    0    0    0 -0.00000000000E+00 -0.00000000000E+00 -0.45593999997E+02  0.45594000000E+02  0.51100000000E-03 0. -1.
    9900012    2    1    2    0    0 -0.10707838741E+02  0.11195691099E+02 -0.40541608973E+02  0.47787269963E+02  0.19999995068E+02 0.  0.
        -12    1    1    2    0    0  0.10707838741E+02 -0.11195691099E+02  0.40541608973E+02  0.43400730037E+02  0.00000000000E+00 0.  1.
         11    1    3    3    0    0  0.88634486581E+00  0.47257235195E+00 -0.38885676035E+01  0.40162034456E+01  0.51100000000E-03 0.  1.
        -11    1    3    3    0    0 -0.16338188562E+02  0.99104201781E+01 -0.29598319225E+02  0.35230857708E+02  0.51100000000E-03 0. -1.
         12    1    3    3    0    0  0.47440049553E+01  0.81269856908E+00 -0.70547221436E+01  0.85402088091E+01  0.00000000000E+00 0. -1.
</event>
<event>
 7    1  0.3742599E-009  0.4778727E+02  0.7816164E-02  0.1312668E+00
        -11   -1    0    0    0    0  0.00000000000E+00  0.00000000000E+00  0.45593999997E+02  0.45594000000E+02  0.51100000000E-03 0.  1.
         11   -1    0    0    0    0 -0.00000000000E+00 -0.00000000000E+00 -0.45593999997E+02  0.45594000000E+02  0.51100000000E-03 0. -1.
    9900012    2    1    2    0    0 -0.15310902345E+02 -0.67780677118E+01 -0.40040699014E+02  0.47787268323E+02  0.19999987594E+02 0.  0.
        -12    1    1    2    0    0  0.15310902345E+02  0.67780677118E+01  0.40040699014E+02  0.43400731677E+02  0.00000000000E+00 0.  1.
         11    1    3    3    0    0 -0.67236189698E+01  0.21498458666E+01 -0.22217722697E+02  0.23312144719E+02  0.51100000000E-03 0. -1.
        -11    1    3    3    0    0 -0.11801694206E+01 -0.40872904610E+01 -0.14353493784E+02  0.14970688937E+02  0.51100000000E-03 0.  1.
         12    1    3    3    0    0 -0.74071139542E+01 -0.48406231174E+01 -0.34694825328E+01  0.95044346671E+01  0.00000000000E+00 0. -1.
</event>
<event>
 7    1  0.3742599E-009  0.4778727E+02  0.7816164E-02  0.1312668E+00
        -11   -1    0    0    0    0  0.00000000000E+00  0.00000000000E+00  0.45593999997E+02  0.45594000000E+02  0.51100000000E-03 0.  1.
         11   -1    0    0    0    0 -0.00000000000E+00 -0.00000000000E+00 -0.45593999997E+02  0.45594000000E+02  0.51100000000E-03 0. -1.
    9900012    2    1    2    0    0 -0.35620050151E+02 -0.21583971800E+02  0.12205237327E+02  0.47787266946E+02  0.19999981313E+02 0.  0.
        -12    1    1    2    0    0  0.35620050151E+02  0.21583971800E+02 -0.12205237327E+02  0.43400733054E+02  0.00000000000E+00 0.  1.
         11    1    3    3    0    0 -0.91362832921E+00  0.20913762161E+01 -0.24934920698E+00  0.22958106388E+01  0.51100000000E-03 0. -1.
        -11    1    3    3    0    0 -0.41714299474E+01 -0.19951557395E+01  0.58628498095E+01  0.74668924179E+01  0.51100000000E-03 0.  1.
         12    1    3    3    0    0 -0.30534991874E+02 -0.21680192277E+02  0.65917367244E+01  0.38024563889E+02  0.00000000000E+00 0. -1.
</event>
<event>
 7    1  0.3742599E-009  0.4778727E+02  0.7816164E-02  0.1312668E+00
        -11   -1    0    0    0    0  0.00000000000E+00  0.00000000000E+00  0.45593999997E+02  0.45594000000E+02  0.51100000000E-03 0.  1.
         11   -1    0    0    0    0 -0.00000000000E+00 -0.00000000000E+00 -0.45593999997E+02  0.45594000000E+02  0.51100000000E-03 0. -1.
    9900012    2    1    2    0    0 -0.43171716791E+02 -0.27404860852E+01 -0.35094590147E+01  0.47787266167E+02  0.19999977763E+02 0.  0.
        -12    1    1    2    0    0  0.43171716791E+02  0.27404860852E+01  0.35094590147E+01  0.43400733833E+02  0.00000000000E+00 0.  1.
         11    1    3    3    0    0 -0.16313097372E+02  0.96990612174E+00  0.55648140291E+01  0.17263401148E+02  0.51100000000E-03 0. -1.
        -11    1    3    3    0    0 -0.31576147420E+01  0.31360220143E+01 -0.18332115290E+01  0.48130894137E+01  0.51100000000E-03 0.  1.
         12    1    3    3    0    0 -0.23701004677E+02 -0.68464142212E+01 -0.72410615149E+01  0.25710775606E+02  0.00000000000E+00 0. -1.
</event>
<event>
 7    1  0.3742599E-009  0.4778729E+02  0.7816164E-02  0.1312668E+00
        -11   -1    0    0    0    0  0.00000000000E+00  0.00000000000E+00  0.45593999997E+02  0.45594000000E+02  0.51100000000E-03 0.  1.
         11   -1    0    0    0    0 -0.00000000000E+00 -0.00000000000E+00 -0.45593999997E+02  0.45594000000E+02  0.51100000000E-03 0. -1.
    9900012    2    1    2    0    0  0.71265367448E+01  0.91559783226E+01 -0.41821077631E+02  0.47787285729E+02  0.20000066952E+02 0.  0.
        -12    1    1    2    0    0 -0.71265367448E+01 -0.91559783226E+01  0.41821077631E+02  0.43400714271E+02  0.00000000000E+00 0.  1.
         11    1    3    3    0    0  0.13880272313E-01  0.16003131400E+01 -0.16236568748E+02  0.16315249302E+02  0.51100000000E-03 0. -1.
        -11    1    3    3    0    0  0.62038819955E+01  0.86872767684E+01 -0.27247951365E+02  0.29264445721E+02  0.51100000000E-03 0.  1.
        -12    1    3    3    0    0  0.90877447693E+00 -0.11316115858E+01  0.16634424829E+01  0.22075907060E+01  0.00000000000E+00 0.  1.
</event>
<event>
 7    1  0.3742599E-009  0.4778727E+02  0.7816164E-02  0.1312668E+00
        -11   -1    0    0    0    0  0.00000000000E+00  0.00000000000E+00  0.45593999997E+02  0.45594000000E+02  0.51100000000E-03 0.  1.
         11   -1    0    0    0    0 -0.00000000000E+00 -0.00000000000E+00 -0.45593999997E+02  0.45594000000E+02  0.51100000000E-03 0. -1.
    9900012    2    1    2    0    0  0.71230384703E+01 -0.21339907777E+01 -0.42758999621E+02  0.47787266800E+02  0.19999980650E+02 0.  0.
        -12    1    1    2    0    0 -0.71230384703E+01  0.21339907777E+01  0.42758999621E+02  0.43400733200E+02  0.00000000000E+00 0.  1.
         11    1    3    3    0    0  0.80892781245E+01  0.12577237318E+01 -0.11847962770E+02  0.14401128831E+02  0.51100000000E-03 0.  1.
        -11    1    3    3    0    0  0.25839018718E+01  0.14106505609E+01 -0.24297474312E+02  0.24475165823E+02  0.51100000000E-03 0. -1.
        -12    1    3    3    0    0 -0.35501415260E+01 -0.48023650704E+01 -0.66135625394E+01  0.89109721460E+01  0.00000000000E+00 0.  1.
</event>
<event>
 7    1  0.3742599E-009  0.4778727E+02  0.7816164E-02  0.1312668E+00
        -11   -1    0    0    0    0  0.00000000000E+00  0.00000000000E+00  0.45593999997E+02  0.45594000000E+02  0.51100000000E-03 0.  1.
         11   -1    0    0    0    0 -0.00000000000E+00 -0.00000000000E+00 -0.45593999997E+02  0.45594000000E+02  0.51100000000E-03 0. -1.
    9900012    2    1    2    0    0  0.11971949698E+01  0.27994954659E+01 -0.43293794318E+02  0.47787273311E+02  0.20000010335E+02 0.  0.
        -12    1    1    2    0    0 -0.11971949698E+01 -0.27994954659E+01  0.43293794318E+02  0.43400726689E+02  0.00000000000E+00 0.  1.
         11    1    3    3    0    0  0.92956240895E+00 -0.21245406544E+01 -0.39670810848E+02  0.39738532847E+02  0.51100000000E-03 0. -1.
        -11    1    3    3    0    0  0.94109864401E+00  0.92573629149E+00 -0.37669516291E+01  0.39915635002E+01  0.51100000000E-03 0.  1.
        -12    1    3    3    0    0 -0.67346608319E+00  0.39982998288E+01  0.14396815853E+00  0.40571769640E+01  0.00000000000E+00 0.  1.
</event>
<event>
 7    1  0.3742599E-009  0.4778727E+02  0.7816164E-02  0.1312668E+00
        -11   -1    0    0    0    0  0.00000000000E+00  0.00000000000E+00  0.45593999997E+02  0.45594000000E+02  0.51100000000E-03 0.  1.
         11   -1    0    0    0    0 -0.00000000000E+00 -0.00000000000E+00 -0.45593999997E+02  0.45594000000E+02  0.51100000000E-03 0. -1.
    9900012    2    1    2    0    0 -0.28536758901E+02 -0.18714418687E+02 -0.26815052692E+02  0.47787272745E+02  0.20000007754E+02 0.  0.
        -12    1    1    2    0    0  0.28536758901E+02  0.18714418687E+02  0.26815052692E+02  0.43400727255E+02  0.00000000000E+00 0.  1.
         11    1    3    3    0    0 -0.24133752648E+01  0.12345916377E+01 -0.56944117697E+01  0.63067362673E+01  0.51100000000E-03 0. -1.
        -11    1    3    3    0    0 -0.39352167257E+01 -0.11161205940E+02 -0.71630552407E+01  0.13833575436E+02  0.51100000000E-03 0.  1.
        -12    1    3    3    0    0 -0.22188166911E+02 -0.87878043851E+01 -0.13957585682E+02  0.27646961041E+02  0.00000000000E+00 0.  1.
</event>
<event>
 7    1  0.3742599E-009  0.4778727E+02  0.7816164E-02  0.1312668E+00
        -11   -1    0    0    0    0  0.00000000000E+00  0.00000000000E+00  0.45593999997E+02  0.45594000000E+02  0.51100000000E-03 0.  1.
         11   -1    0    0    0    0 -0.00000000000E+00 -0.00000000000E+00 -0.45593999997E+02  0.45594000000E+02  0.51100000000E-03 0. -1.
    9900012    2    1    2    0    0  0.15112551991E+02  0.18721624443E+02 -0.36121112248E+02  0.47787271902E+02  0.20000003908E+02 0.  0.
        -12    1    1    2    0    0 -0.15112551991E+02 -0.18721624443E+02  0.36121112248E+02  0.43400728098E+02  0.00000000000E+00 0.  1.
         11    1    3    3    0    0  0.89087778974E+00  0.72390656174E+01 -0.10428887743E+02  0.12726328381E+02  0.51100000000E-03 0. -1.
        -11    1    3    3    0    0  0.28515895038E+01  0.49195448563E+01 -0.19927210630E+02  0.20722625510E+02  0.51100000000E-03 0.  1.
         12    1    3    3    0    0  0.11370084697E+02  0.65630139689E+01 -0.57650138752E+01  0.14338318010E+02  0.00000000000E+00 0. -1.
</event>
<event>
 7    1  0.3742599E-009  0.4778725E+02  0.7816164E-02  0.1312668E+00
        -11   -1    0    0    0    0  0.00000000000E+00  0.00000000000E+00  0.45593999997E+02  0.45594000000E+02  0.51100000000E-03 0.  1.
         11   -1    0    0    0    0 -0.00000000000E+00 -0.00000000000E+00 -0.45593999997E+02  0.45594000000E+02  0.51100000000E-03 0. -1.
    9900012    2    1    2    0    0  0.28137098105E+02  0.27191261076E+02 -0.18776700852E+02  0.47787245818E+02  0.19999884980E+02 0.  0.
        -12    1    1    2    0    0 -0.28137098105E+02 -0.27191261076E+02  0.18776700852E+02  0.43400754182E+02  0.00000000000E+00 0.  1.
         11    1    3    3    0    0  0.29037655595E+01 -0.57788021852E-01  0.23298277346E+01  0.37233441170E+01  0.51100000000E-03 0. -1.
        -11    1    3    3    0    0  0.58789234886E+01  0.35609233352E+01  0.45563252319E-01  0.68734265585E+01  0.51100000000E-03 0.  1.
         12    1    3    3    0    0  0.19354409057E+02  0.23688125763E+02 -0.21152091839E+02  0.37190475142E+02  0.00000000000E+00 0. -1.
</event>
<event>
 7    1  0.3742599E-009  0.4778727E+02  0.7816164E-02  0.1312668E+00
        -11   -1    0    0    0    0  0.00000000000E+00  0.00000000000E+00  0.45593999997E+02  0.45594000000E+02  0.51100000000E-03 0. -1.
         11   -1    0    0    0    0 -0.00000000000E+00 -0.00000000000E+00 -0.45593999997E+02  0.45594000000E+02  0.51100000000E-03 0.  1.
    9900012    2    1    2    0    0 -0.36042119723E+02  0.17724958429E+02 -0.16444292606E+02  0.47787270689E+02  0.19999998379E+02 0.  0.
        -12    1    1    2    0    0  0.36042119723E+02 -0.17724958429E+02  0.16444292606E+02  0.43400729311E+02  0.00000000000E+00 0.  1.
         11    1    3    3    0    0 -0.77663798618E+00 -0.86573677640E-01 -0.20802500726E+01  0.22221841033E+01  0.51100000000E-03 0. -1.
        -11    1    3    3    0    0 -0.22127856862E+02  0.18236853689E+01 -0.10304059817E+02  0.24477367640E+02  0.51100000000E-03 0.  1.
         12    1    3    3    0    0 -0.13137624875E+02  0.15987846738E+02 -0.40599827165E+01  0.21087718946E+02  0.00000000000E+00 0. -1.
</event>
<event>
 7    1  0.3742599E-009  0.4778728E+02  0.7816164E-02  0.1312668E+00
        -11   -1    0    0    0    0  0.00000000000E+00  0.00000000000E+00  0.45593999997E+02  0.45594000000E+02  0.51100000000E-03 0. -1.
         11   -1    0    0    0    0 -0.00000000000E+00 -0.00000000000E+00 -0.45593999997E+02  0.45594000000E+02  0.51100000000E-03 0.  1.
    9900012    2    1    2    0    0 -0.17286081516E+02 -0.12261307210E+02  0.37874453207E+02  0.47787280255E+02  0.20000041994E+02 0.  0.
        -12    1    1    2    0    0  0.17286081516E+02  0.12261307210E+02 -0.37874453207E+02  0.43400719745E+02  0.00000000000E+00 0.  1.
         11    1    3    3    0    0 -0.61589950371E+01 -0.12053899083E+02  0.31031125064E+02  0.33854991153E+02  0.51100000000E-03 0. -1.
        -11    1    3    3    0    0 -0.50901445070E+01  0.23164121913E+01  0.31808493290E+01  0.64337500151E+01  0.51100000000E-03 0.  1.
         12    1    3    3    0    0 -0.60369419719E+01 -0.25238203179E+01  0.36624788135E+01  0.74985390863E+01  0.00000000000E+00 0. -1.
</event>
<event>
 7    1  0.3834319E-009  0.4778727E+02  0.7816164E-02  0.1312668E+00
        -11   -1    0    0    0    0  0.00000000000E+00  0.00000000000E+00  0.45593999997E+02  0.45594000000E+02  0.51100000000E-03 0. -1.
         11   -1    0    0    0    0 -0.00000000000E+00 -0.00000000000E+00 -0.45593999997E+02  0.45594000000E+02  0.51100000000E-03 0.  1.
    9900012    2    1    2    0    0  0.18589754100E+02  0.30152267726E+02  0.25077586612E+02  0.47787267785E+02  0.19999985137E+02 0.  0.
        -12    1    1    2    0    0 -0.18589754100E+02 -0.30152267726E+02 -0.25077586612E+02  0.43400732215E+02  0.00000000000E+00 0.  1.
         11    1    3    3    0    0  0.50838912173E+01  0.12948244324E+02  0.15976668038E+02  0.21183883092E+02  0.51100000000E-03 0. -1.
        -11    1    3    3    0    0  0.79896424444E+01  0.17067714947E+02  0.94355123842E+01  0.21075345172E+02  0.51100000000E-03 0.  1.
        -12    1    3    3    0    0  0.55162204387E+01  0.13630845538E+00 -0.33459381072E+00  0.55280395207E+01  0.00000000000E+00 0.  1.
</event>
<event>
 7    1  0.3742599E-009  0.4778722E+02  0.7816164E-02  0.1312668E+00
        -11   -1    0    0    0    0  0.00000000000E+00  0.00000000000E+00  0.45593999997E+02  0.45594000000E+02  0.51100000000E-03 0.  1.
         11   -1    0    0    0    0 -0.00000000000E+00 -0.00000000000E+00 -0.45593999997E+02  0.45594000000E+02  0.51100000000E-03 0. -1.
    9900012    2    1    2    0    0  0.13201680459E+01  0.43067992096E+02  0.51992809525E+01  0.47787224554E+02  0.19999788032E+02 0.  0.
        -12    1    1    2    0    0 -0.13201680459E+01 -0.43067992096E+02 -0.51992809525E+01  0.43400775446E+02  0.00000000000E+00 0.  1.
         11    1    3    3    0    0  0.57442352963E+01  0.22604068136E+02  0.30234155953E+01  0.23517677980E+02  0.51100000000E-03 0. -1.
        -11    1    3    3    0    0  0.77883579622E+00  0.15692089466E+02  0.52557763150E+01  0.16567179662E+02  0.51100000000E-03 0.  1.
         12    1    3    3    0    0 -0.52029030467E+01  0.47718344941E+01 -0.30799109577E+01  0.77023669128E+01  0.00000000000E+00 0. -1.
</event>
<event>
 7    1  0.3742599E-009  0.4778727E+02  0.7816164E-02  0.1312668E+00
        -11   -1    0    0    0    0  0.00000000000E+00  0.00000000000E+00  0.45593999997E+02  0.45594000000E+02  0.51100000000E-03 0. -1.
         11   -1    0    0    0    0 -0.00000000000E+00 -0.00000000000E+00 -0.45593999997E+02  0.45594000000E+02  0.51100000000E-03 0.  1.
    9900012    2    1    2    0    0  0.39953757704E+02  0.14303636583E+02  0.90954291868E+01  0.47787267215E+02  0.19999982539E+02 0.  0.
        -12    1    1    2    0    0 -0.39953757704E+02 -0.14303636583E+02 -0.90954291868E+01  0.43400732785E+02  0.00000000000E+00 0.  1.
         11    1    3    3    0    0  0.20631170706E+02  0.99592138897E+01  0.40048355476E+01  0.23256608825E+02  0.51100000000E-03 0. -1.
        -11    1    3    3    0    0  0.18672884987E+02  0.78403942829E+01  0.31997103434E+01  0.20503330530E+02  0.51100000000E-03 0.  1.
        -12    1    3    3    0    0  0.64970201124E+00 -0.34959715897E+01  0.18908832958E+01  0.40273278607E+01  0.00000000000E+00 0.  1.
</event>
<event>
 7    1  0.3742599E-009  0.4778727E+02  0.7816164E-02  0.1312668E+00
        -11   -1    0    0    0    0  0.00000000000E+00  0.00000000000E+00  0.45593999997E+02  0.45594000000E+02  0.51100000000E-03 0.  1.
         11   -1    0    0    0    0 -0.00000000000E+00 -0.00000000000E+00 -0.45593999997E+02  0.45594000000E+02  0.51100000000E-03 0. -1.
    9900012    2    1    2    0    0  0.23282908423E+02  0.15958489119E+01 -0.36592114195E+02  0.47787269826E+02  0.19999994446E+02 0.  0.
        -12    1    1    2    0    0 -0.23282908423E+02 -0.15958489119E+01  0.36592114195E+02  0.43400730174E+02  0.00000000000E+00 0.  1.
         11    1    3    3    0    0  0.57286519110E+01 -0.42446467756E+01 -0.46791153430E+01  0.85281064499E+01  0.51100000000E-03 0. -1.
        -11    1    3    3    0    0  0.14211868084E+02  0.14808132985E+01 -0.12179413911E+02  0.18775199758E+02  0.51100000000E-03 0.  1.
         12    1    3    3    0    0  0.33423884280E+01  0.43596823890E+01 -0.19733584941E+02  0.20483963619E+02  0.00000000000E+00 0. -1.
</event>
<event>
 7    1  0.3742599E-009  0.4778727E+02  0.7816164E-02  0.1312668E+00
        -11   -1    0    0    0    0  0.00000000000E+00  0.00000000000E+00  0.45593999997E+02  0.45594000000E+02  0.51100000000E-03 0. -1.
         11   -1    0    0    0    0 -0.00000000000E+00 -0.00000000000E+00 -0.45593999997E+02  0.45594000000E+02  0.51100000000E-03 0.  1.
    9900012    2    1    2    0    0  0.10321163833E+02  0.41940885703E+02 -0.42496039153E+01  0.47787269017E+02  0.19999990757E+02 0.  0.
        -12    1    1    2    0    0 -0.10321163833E+02 -0.41940885703E+02  0.42496039153E+01  0.43400730983E+02  0.00000000000E+00 0.  1.
         11    1    3    3    0    0  0.12689791414E+02  0.23440062526E+02  0.34875977873E+01  0.26881790788E+02  0.51100000000E-03 0. -1.
        -11    1    3    3    0    0  0.14671590815E+01  0.37560459492E+01 -0.27242770529E+01  0.48664281218E+01  0.51100000000E-03 0.  1.
        -12    1    3    3    0    0 -0.38357866628E+01  0.14744777228E+02 -0.50129246497E+01  0.16039050108E+02  0.00000000000E+00 0.  1.
</event>
<event>
 7    1  0.3742599E-009  0.4778727E+02  0.7816164E-02  0.1312668E+00
        -11   -1    0    0    0    0  0.00000000000E+00  0.00000000000E+00  0.45593999997E+02  0.45594000000E+02  0.51100000000E-03 0.  1.
         11   -1    0    0    0    0 -0.00000000000E+00 -0.00000000000E+00 -0.45593999997E+02  0.45594000000E+02  0.51100000000E-03 0. -1.
    9900012    2    1    2    0    0  0.92975656708E+01 -0.30095877166E+01 -0.42286180777E+02  0.47787269242E+02  0.19999991780E+02 0.  0.
        -12    1    1    2    0    0 -0.92975656708E+01  0.30095877166E+01  0.42286180777E+02  0.43400730758E+02  0.00000000000E+00 0.  1.
         11    1    3    3    0    0  0.66238129772E+01  0.19661585723E+01 -0.17471690751E+02  0.18788311682E+02  0.51100000000E-03 0. -1.
        -11    1    3    3    0    0  0.46266126920E+01  0.25866820039E+01 -0.17547590589E+02  0.18330695692E+02  0.51100000000E-03 0.  1.
        -12    1    3    3    0    0 -0.19528599985E+01 -0.75624282928E+01 -0.72668994372E+01  0.10668261868E+02  0.00000000000E+00 0.  1.
</event>
<event>
 7    1  0.3742599E-009  0.4778727E+02  0.7816164E-02  0.1312668E+00
        -11   -1    0    0    0    0  0.00000000000E+00  0.00000000000E+00  0.45593999997E+02  0.45594000000E+02  0.51100000000E-03 0. -1.
         11   -1    0    0    0    0 -0.00000000000E+00 -0.00000000000E+00 -0.45593999997E+02  0.45594000000E+02  0.51100000000E-03 0.  1.
    9900012    2    1    2    0    0  0.18427709363E+02  0.39293828974E+02  0.19397749483E+00  0.47787273105E+02  0.20000009393E+02 0.  0.
        -12    1    1    2    0    0 -0.18427709363E+02 -0.39293828974E+02 -0.19397749483E+00  0.43400726895E+02  0.00000000000E+00 0.  1.
         11    1    3    3    0    0  0.20155780877E+02  0.31630765227E+02  0.16337788581E+01  0.37542376660E+02  0.51100000000E-03 0. -1.
        -11    1    3    3    0    0  0.16007265226E+01  0.44910381068E+01 -0.26973685060E+01  0.54779143655E+01  0.51100000000E-03 0.  1.
        -12    1    3    3    0    0 -0.33287980368E+01  0.31720256396E+01  0.12575671427E+01  0.47669820795E+01  0.00000000000E+00 0.  1.
</event>
<event>
 7    1  0.3742599E-009  0.4778727E+02  0.7816164E-02  0.1312668E+00
        -11   -1    0    0    0    0  0.00000000000E+00  0.00000000000E+00  0.45593999997E+02  0.45594000000E+02  0.51100000000E-03 0. -1.
         11   -1    0    0    0    0 -0.00000000000E+00 -0.00000000000E+00 -0.45593999997E+02  0.45594000000E+02  0.51100000000E-03 0.  1.
    9900012    2    1    2    0    0 -0.13554339766E+02 -0.41568554844E+01  0.41019793317E+02  0.47787273995E+02  0.20000013451E+02 0.  0.
        -12    1    1    2    0    0  0.13554339766E+02  0.41568554844E+01 -0.41019793317E+02  0.43400726005E+02  0.00000000000E+00 0.  1.
         11    1    3    3    0    0 -0.27108000822E+00 -0.31785361032E+01  0.29021200356E+02  0.29196003947E+02  0.51100000000E-03 0. -1.
        -11    1    3    3    0    0 -0.45757126185E+01 -0.13626153156E+01  0.72071957704E+01  0.86450874836E+01  0.51100000000E-03 0.  1.
         12    1    3    3    0    0 -0.87075471393E+01  0.38429593438E+00  0.47913971907E+01  0.99461825636E+01  0.00000000000E+00 0. -1.
</event>
<event>
 7    1  0.3742599E-009  0.4778727E+02  0.7816164E-02  0.1312668E+00
        -11   -1    0    0    0    0  0.00000000000E+00  0.00000000000E+00  0.45593999997E+02  0.45594000000E+02  0.51100000000E-03 0. -1.
         11   -1    0    0    0    0 -0.00000000000E+00 -0.00000000000E+00 -0.45593999997E+02  0.45594000000E+02  0.51100000000E-03 0.  1.
    9900012    2    1    2    0    0 -0.14220217715E+02 -0.13593677432E+02  0.38686181583E+02  0.47787270704E+02  0.19999998449E+02 0.  0.
        -12    1    1    2    0    0  0.14220217715E+02  0.13593677432E+02 -0.38686181583E+02  0.43400729296E+02  0.00000000000E+00 0.  1.
         11    1    3    3    0    0 -0.75686269322E+01 -0.51222742282E+01  0.20565925790E+02  0.22505090775E+02  0.51100000000E-03 0. -1.
        -11    1    3    3    0    0  0.34922366637E+01 -0.27523937815E+01  0.10399636389E+02  0.11310341539E+02  0.51100000000E-03 0.  1.
        -12    1    3    3    0    0 -0.10143827447E+02 -0.57190094219E+01  0.77206194027E+01  0.13971838390E+02  0.00000000000E+00 0.  1.
</event>
<event>
 7    1  0.3742599E-009  0.4778727E+02  0.7816164E-02  0.1312668E+00
        -11   -1    0    0    0    0  0.00000000000E+00  0.00000000000E+00  0.45593999997E+02  0.45594000000E+02  0.51100000000E-03 0. -1.
         11   -1    0    0    0    0 -0.00000000000E+00 -0.00000000000E+00 -0.45593999997E+02  0.45594000000E+02  0.51100000000E-03 0.  1.
    9900012    2    1    2    0    0  0.38716614277E+02 -0.15464236359E+02  0.12062519970E+02  0.47787271720E+02  0.20000003080E+02 0.  0.
        -12    1    1    2    0    0 -0.38716614277E+02  0.15464236359E+02 -0.12062519970E+02  0.43400728280E+02  0.00000000000E+00 0.  1.
         11    1    3    3    0    0  0.71560901891E+01 -0.11270004389E+02  0.40567315207E+01  0.13952766630E+02  0.51100000000E-03 0. -1.
        -11    1    3    3    0    0  0.13333536640E+02 -0.58229689881E+01  0.41956838213E+01  0.15142454562E+02  0.51100000000E-03 0.  1.
        -12    1    3    3    0    0  0.18226987447E+02  0.16287370186E+01  0.38101046284E+01  0.18692050528E+02  0.00000000000E+00 0.  1.
</event>
<event>
 7    1  0.3742599E-009  0.4778727E+02  0.7816164E-02  0.1312668E+00
        -11   -1    0    0    0    0  0.00000000000E+00  0.00000000000E+00  0.45593999997E+02  0.45594000000E+02  0.51100000000E-03 0.  1.
         11   -1    0    0    0    0 -0.00000000000E+00 -0.00000000000E+00 -0.45593999997E+02  0.45594000000E+02  0.51100000000E-03 0. -1.
    9900012    2    1    2    0    0  0.13663592320E+02  0.15866290376E+02 -0.38015660821E+02  0.47787269671E+02  0.19999993740E+02 0.  0.
        -12    1    1    2    0    0 -0.13663592320E+02 -0.15866290376E+02  0.38015660821E+02  0.43400730329E+02  0.00000000000E+00 0.  1.
         11    1    3    3    0    0  0.47986373077E+01  0.34975819953E+01 -0.19665421135E+02  0.20542365699E+02  0.51100000000E-03 0. -1.
        -11    1    3    3    0    0  0.90704553027E+01  0.13508431161E+02 -0.19644610666E+02  0.25508069317E+02  0.51100000000E-03 0.  1.
        -12    1    3    3    0    0 -0.20550029070E+00 -0.11397227802E+01  0.12943709799E+01  0.17368346550E+01  0.00000000000E+00 0.  1.
</event>
<event>
 7    1  0.3742599E-009  0.4778727E+02  0.7816164E-02  0.1312668E+00
        -11   -1    0    0    0    0  0.00000000000E+00  0.00000000000E+00  0.45593999997E+02  0.45594000000E+02  0.51100000000E-03 0.  1.
         11   -1    0    0    0    0 -0.00000000000E+00 -0.00000000000E+00 -0.45593999997E+02  0.45594000000E+02  0.51100000000E-03 0. -1.
    9900012    2    1    2    0    0 -0.17094073220E+02  0.32549533005E+02 -0.23063907574E+02  0.47787271082E+02  0.20000000169E+02 0.  0.
        -12    1    1    2    0    0  0.17094073220E+02 -0.32549533005E+02  0.23063907574E+02  0.43400728918E+02  0.00000000000E+00 0.  1.
         11    1    3    3    0    0 -0.64197615941E+01  0.14037388790E+02 -0.11270364084E+02  0.19112371120E+02  0.51100000000E-03 0. -1.
        -11    1    3    3    0    0 -0.63154432706E+01  0.20364962885E+02 -0.87645620413E+01  0.23052854162E+02  0.51100000000E-03 0.  1.
        -12    1    3    3    0    0 -0.43588683551E+01 -0.18528186696E+01 -0.30289814482E+01  0.56220457996E+01  0.00000000000E+00 0.  1.
</event>
<event>
 7    1  0.3742599E-009  0.4778727E+02  0.7816164E-02  0.1312668E+00
        -11   -1    0    0    0    0  0.00000000000E+00  0.00000000000E+00  0.45593999997E+02  0.45594000000E+02  0.51100000000E-03 0.  1.
         11   -1    0    0    0    0 -0.00000000000E+00 -0.00000000000E+00 -0.45593999997E+02  0.45594000000E+02  0.51100000000E-03 0. -1.
    9900012    2    1    2    0    0 -0.36293676947E+02  0.17196240621E+02 -0.16452416440E+02  0.47787266313E+02  0.19999978428E+02 0.  0.
        -12    1    1    2    0    0  0.36293676947E+02 -0.17196240621E+02  0.16452416440E+02  0.43400733687E+02  0.00000000000E+00 0.  1.
         11    1    3    3    0    0 -0.13170327075E+02  0.11264135837E+01 -0.11193137718E+01  0.13265714697E+02  0.51100000000E-03 0. -1.
        -11    1    3    3    0    0  0.11710434607E+01 -0.62915389679E+00 -0.86382736420E-01  0.13321560160E+01  0.51100000000E-03 0.  1.
         12    1    3    3    0    0 -0.24294393332E+02  0.16698980934E+02 -0.15246719932E+02  0.33189395600E+02  0.00000000000E+00 0. -1.
</event>
<event>
 7    1  0.3742599E-009  0.4778727E+02  0.7816164E-02  0.1312668E+00
        -11   -1    0    0    0    0  0.00000000000E+00  0.00000000000E+00  0.45593999997E+02  0.45594000000E+02  0.51100000000E-03 0.  1.
         11   -1    0    0    0    0 -0.00000000000E+00 -0.00000000000E+00 -0.45593999997E+02  0.45594000000E+02  0.51100000000E-03 0. -1.
    9900012    2    1    2    0    0 -0.75302798230E+01 -0.11131503683E+01 -0.42727966912E+02  0.47787269887E+02  0.19999994722E+02 0.  0.
        -12    1    1    2    0    0  0.75302798230E+01  0.11131503683E+01  0.42727966912E+02  0.43400730113E+02  0.00000000000E+00 0.  1.
         11    1    3    3    0    0  0.39934426130E+01 -0.60308300098E+00 -0.18258390119E+02  0.18699735372E+02  0.51100000000E-03 0. -1.
        -11    1    3    3    0    0 -0.36212716005E+01  0.64624302079E+00 -0.19129891075E+02  0.19480348324E+02  0.51100000000E-03 0.  1.
        -12    1    3    3    0    0 -0.79024508356E+01 -0.11563103881E+01 -0.53396857181E+01  0.96071861900E+01  0.00000000000E+00 0.  1.
</event>
<event>
 7    1  0.3742599E-009  0.4778728E+02  0.7816164E-02  0.1312668E+00
        -11   -1    0    0    0    0  0.00000000000E+00  0.00000000000E+00  0.45593999997E+02  0.45594000000E+02  0.51100000000E-03 0. -1.
         11   -1    0    0    0    0 -0.00000000000E+00 -0.00000000000E+00 -0.45593999997E+02  0.45594000000E+02  0.51100000000E-03 0.  1.
    9900012    2    1    2    0    0  0.34980064983E+02  0.25665718794E+02  0.11351820132E+01  0.47787277591E+02  0.20000029849E+02 0.  0.
        -12    1    1    2    0    0 -0.34980064983E+02 -0.25665718794E+02 -0.11351820132E+01  0.43400722409E+02  0.00000000000E+00 0.  1.
         11    1    3    3    0    0  0.17010587925E+02  0.18878227341E+02 -0.64687073960E+00  0.25419795654E+02  0.51100000000E-03 0. -1.
        -11    1    3    3    0    0 -0.13536489871E+01  0.14933344393E+01 -0.79602527041E+00  0.21670417209E+01  0.51100000000E-03 0.  1.
         12    1    3    3    0    0  0.19323126045E+02  0.52941570137E+01  0.25780780232E+01  0.20200440216E+02  0.00000000000E+00 0. -1.
</event>
<event>
 7    1  0.3742599E-009  0.4778728E+02  0.7816164E-02  0.1312668E+00
        -11   -1    0    0    0    0  0.00000000000E+00  0.00000000000E+00  0.45593999997E+02  0.45594000000E+02  0.51100000000E-03 0.  1.
         11   -1    0    0    0    0 -0.00000000000E+00 -0.00000000000E+00 -0.45593999997E+02  0.45594000000E+02  0.51100000000E-03 0. -1.
    9900012    2    1    2    0    0  0.24343403359E+02 -0.34645123634E+02 -0.95255944082E+01  0.47787276187E+02  0.20000023446E+02 0.  0.
        -12    1    1    2    0    0 -0.24343403359E+02  0.34645123634E+02  0.95255944082E+01  0.43400723813E+02  0.00000000000E+00 0.  1.
         11    1    3    3    0    0  0.14012173902E+01  0.87360046843E+00 -0.79564117331E+00  0.18329301925E+01  0.51100000000E-03 0. -1.
        -11    1    3    3    0    0  0.56731201629E+01 -0.13484553079E+01  0.20475257340E+01  0.61802092192E+01  0.51100000000E-03 0.  1.
         12    1    3    3    0    0  0.17269065805E+02 -0.34170268794E+02 -0.10777478969E+02  0.39774136775E+02  0.00000000000E+00 0. -1.
</event>
<event>
 7    1  0.3742599E-009  0.4778726E+02  0.7816164E-02  0.1312668E+00
        -11   -1    0    0    0    0  0.00000000000E+00  0.00000000000E+00  0.45593999997E+02  0.45594000000E+02  0.51100000000E-03 0.  1.
         11   -1    0    0    0    0 -0.00000000000E+00 -0.00000000000E+00 -0.45593999997E+02  0.45594000000E+02  0.51100000000E-03 0. -1.
    9900012    2    1    2    0    0 -0.16716011623E+02  0.32825500247E+02 -0.22949628387E+02  0.47787263207E+02  0.19999964265E+02 0.  0.
        -12    1    1    2    0    0  0.16716011623E+02 -0.32825500247E+02  0.22949628387E+02  0.43400736793E+02  0.00000000000E+00 0.  1.
         11    1    3    3    0    0 -0.70914285680E+01  0.80989144500E+01 -0.23243591140E+01  0.11012875190E+02  0.51100000000E-03 0. -1.
        -11    1    3    3    0    0 -0.44100775064E+01  0.52833780552E+01  0.13062358141E+01  0.70049353709E+01  0.51100000000E-03 0.  1.
         12    1    3    3    0    0 -0.52145055490E+01  0.19443207742E+02 -0.21931505087E+02  0.29769452646E+02  0.00000000000E+00 0. -1.
</event>
<event>
 7    1  0.3742599E-009  0.4778727E+02  0.7816164E-02  0.1312668E+00
        -11   -1    0    0    0    0  0.00000000000E+00  0.00000000000E+00  0.45593999997E+02  0.45594000000E+02  0.51100000000E-03 0. -1.
         11   -1    0    0    0    0 -0.00000000000E+00 -0.00000000000E+00 -0.45593999997E+02  0.45594000000E+02  0.51100000000E-03 0.  1.
    9900012    2    1    2    0    0  0.13151156879E+02 -0.13421680029E+02  0.39121974583E+02  0.47787270544E+02  0.19999997717E+02 0.  0.
        -12    1    1    2    0    0 -0.13151156879E+02  0.13421680029E+02 -0.39121974583E+02  0.43400729456E+02  0.00000000000E+00 0.  1.
         11    1    3    3    0    0  0.90302922310E+01 -0.48773460219E+01  0.94824344608E+01  0.13973233182E+02  0.51100000000E-03 0. -1.
        -11    1    3    3    0    0 -0.20648678099E+01 -0.17538220532E+01 -0.76966921270E-01  0.27102573743E+01  0.51100000000E-03 0.  1.
         12    1    3    3    0    0  0.61857324583E+01 -0.67905119541E+01  0.29716507043E+02  0.31103779987E+02  0.00000000000E+00 0. -1.
</event>
<event>
 7    1  0.3742599E-009  0.4778727E+02  0.7816164E-02  0.1312668E+00
        -11   -1    0    0    0    0  0.00000000000E+00  0.00000000000E+00  0.45593999997E+02  0.45594000000E+02  0.51100000000E-03 0.  1.
         11   -1    0    0    0    0 -0.00000000000E+00 -0.00000000000E+00 -0.45593999997E+02  0.45594000000E+02  0.51100000000E-03 0. -1.
    9900012    2    1    2    0    0  0.87214011016E+01  0.27665758956E+02 -0.32282597170E+02  0.47787272635E+02  0.20000007251E+02 0.  0.
        -12    1    1    2    0    0 -0.87214011016E+01 -0.27665758956E+02  0.32282597170E+02  0.43400727365E+02  0.00000000000E+00 0.  1.
         11    1    3    3    0    0  0.62673477818E+01  0.54170153839E+01 -0.15817331261E+02  0.17855298159E+02  0.51100000000E-03 0. -1.
        -11    1    3    3    0    0 -0.12140282538E+00 -0.12982872816E+01 -0.72939865861E+00  0.14940920908E+01  0.51100000000E-03 0.  1.
        -12    1    3    3    0    0  0.25754561452E+01  0.23547030854E+02 -0.15735867251E+02  0.28437882384E+02  0.00000000000E+00 0.  1.
</event>
<event>
 7    1  0.3742599E-009  0.4778727E+02  0.7816164E-02  0.1312668E+00
        -11   -1    0    0    0    0  0.00000000000E+00  0.00000000000E+00  0.45593999997E+02  0.45594000000E+02  0.51100000000E-03 0. -1.
         11   -1    0    0    0    0 -0.00000000000E+00 -0.00000000000E+00 -0.45593999997E+02  0.45594000000E+02  0.51100000000E-03 0.  1.
    9900012    2    1    2    0    0 -0.65069204385E+01 -0.92768465918E+01  0.41895385436E+02  0.47787271698E+02  0.20000002982E+02 0.  0.
        -12    1    1    2    0    0  0.65069204385E+01  0.92768465918E+01 -0.41895385436E+02  0.43400728302E+02  0.00000000000E+00 0.  1.
         11    1    3    3    0    0  0.45196814568E+01 -0.10516518221E+00  0.87043951118E+01  0.98084185631E+01  0.51100000000E-03 0. -1.
        -11    1    3    3    0    0 -0.37001688731E+01 -0.33183445798E+01  0.25118076902E+02  0.25605086368E+02  0.51100000000E-03 0.  1.
        -12    1    3    3    0    0 -0.73264330223E+01 -0.58533368297E+01  0.80729134226E+01  0.12373766767E+02  0.00000000000E+00 0.  1.
</event>
<event>
 7    1  0.3742599E-009  0.4778727E+02  0.7816164E-02  0.1312668E+00
        -11   -1    0    0    0    0  0.00000000000E+00  0.00000000000E+00  0.45593999997E+02  0.45594000000E+02  0.51100000000E-03 0.  1.
         11   -1    0    0    0    0 -0.00000000000E+00 -0.00000000000E+00 -0.45593999997E+02  0.45594000000E+02  0.51100000000E-03 0. -1.
    9900012    2    1    2    0    0  0.96434445544E+01 -0.17151200015E+01 -0.42281033263E+02  0.47787269208E+02  0.19999991626E+02 0.  0.
        -12    1    1    2    0    0 -0.96434445544E+01  0.17151200015E+01  0.42281033263E+02  0.43400730792E+02  0.00000000000E+00 0.  1.
         11    1    3    3    0    0  0.42716146836E+01  0.41975568740E+00 -0.38403742492E+01  0.57594584361E+01  0.51100000000E-03 0. -1.
        -11    1    3    3    0    0  0.41605641302E+01  0.61107261311E+01 -0.10295882834E+02  0.12675033386E+02  0.51100000000E-03 0.  1.
         12    1    3    3    0    0  0.12112657406E+01 -0.82456018200E+01 -0.28144776180E+02  0.29352777386E+02  0.00000000000E+00 0. -1.
</event>
<event>
 7    1  0.3742599E-009  0.4778727E+02  0.7816164E-02  0.1312668E+00
        -11   -1    0    0    0    0  0.00000000000E+00  0.00000000000E+00  0.45593999997E+02  0.45594000000E+02  0.51100000000E-03 0.  1.
         11   -1    0    0    0    0 -0.00000000000E+00 -0.00000000000E+00 -0.45593999997E+02  0.45594000000E+02  0.51100000000E-03 0. -1.
    9900012    2    1    2    0    0  0.42345589891E+02 -0.94582389289E+01  0.10079655286E+01  0.47787271189E+02  0.20000000658E+02 0.  0.
        -12    1    1    2    0    0 -0.42345589891E+02  0.94582389289E+01 -0.10079655286E+01  0.43400728811E+02  0.00000000000E+00 0.  1.
         11    1    3    3    0    0  0.96901640543E+01  0.19643153867E+01  0.57280225490E+01  0.11426638041E+02  0.51100000000E-03 0. -1.
        -11    1    3    3    0    0  0.49887482912E+01  0.18800456085E+01 -0.23794452552E+00  0.53365530880E+01  0.51100000000E-03 0.  1.
        -12    1    3    3    0    0  0.27666677545E+02 -0.13302599924E+02 -0.44821124949E+01  0.31024080060E+02  0.00000000000E+00 0.  1.
</event>
<event>
 7    1  0.3742599E-009  0.4778727E+02  0.7816164E-02  0.1312668E+00
        -11   -1    0    0    0    0  0.00000000000E+00  0.00000000000E+00  0.45593999997E+02  0.45594000000E+02  0.51100000000E-03 0. -1.
         11   -1    0    0    0    0 -0.00000000000E+00 -0.00000000000E+00 -0.45593999997E+02  0.45594000000E+02  0.51100000000E-03 0.  1.
    9900012    2    1    2    0    0 -0.15845139024E+02  0.39796206122E+02  0.69869039507E+01  0.47787270982E+02  0.19999999718E+02 0.  0.
        -12    1    1    2    0    0  0.15845139024E+02 -0.39796206122E+02 -0.69869039507E+01  0.43400729018E+02  0.00000000000E+00 0.  1.
         11    1    3    3    0    0 -0.61086059796E+00  0.14299449774E+02  0.45350545189E+01  0.15013798129E+02  0.51100000000E-03 0. -1.
        -11    1    3    3    0    0 -0.23970404037E+00  0.58045350948E+01 -0.41707780935E+01  0.71516065230E+01  0.51100000000E-03 0.  1.
         12    1    3    3    0    0 -0.14994574386E+02  0.19692221253E+02  0.66226275254E+01  0.25621866330E+02  0.00000000000E+00 0. -1.
</event>
<event>
 7    1  0.3742599E-009  0.4778727E+02  0.7816164E-02  0.1312668E+00
        -11   -1    0    0    0    0  0.00000000000E+00  0.00000000000E+00  0.45593999997E+02  0.45594000000E+02  0.51100000000E-03 0. -1.
         11   -1    0    0    0    0 -0.00000000000E+00 -0.00000000000E+00 -0.45593999997E+02  0.45594000000E+02  0.51100000000E-03 0.  1.
    9900012    2    1    2    0    0  0.48640155719E+01 -0.12760721338E+02  0.41196223616E+02  0.47787268476E+02  0.19999988291E+02 0.  0.
        -12    1    1    2    0    0 -0.48640155719E+01  0.12760721338E+02 -0.41196223616E+02  0.43400731524E+02  0.00000000000E+00 0.  1.
         11    1    3    3    0    0 -0.24366732718E+01 -0.28868106130E+01  0.14890825626E+02  0.15362543416E+02  0.51100000000E-03 0. -1.
        -11    1    3    3    0    0  0.37973754848E+01 -0.76127492349E+01  0.26899721472E+02  0.28212923050E+02  0.51100000000E-03 0.  1.
        -12    1    3    3    0    0  0.35033133589E+01 -0.22611614897E+01 -0.59432348085E+00  0.42118020102E+01  0.00000000000E+00 0.  1.
</event>
<event>
 7    1  0.3742599E-009  0.4778727E+02  0.7816164E-02  0.1312668E+00
        -11   -1    0    0    0    0  0.00000000000E+00  0.00000000000E+00  0.45593999997E+02  0.45594000000E+02  0.51100000000E-03 0. -1.
         11   -1    0    0    0    0 -0.00000000000E+00 -0.00000000000E+00 -0.45593999997E+02  0.45594000000E+02  0.51100000000E-03 0.  1.
    9900012    2    1    2    0    0  0.42598760313E+02 -0.79178055060E+01 -0.25054598890E+01  0.47787270127E+02  0.19999995817E+02 0.  0.
        -12    1    1    2    0    0 -0.42598760313E+02  0.79178055060E+01  0.25054598890E+01  0.43400729873E+02  0.00000000000E+00 0.  1.
         11    1    3    3    0    0  0.26963344242E+02 -0.21280290337E+01 -0.37065384866E+01  0.27299979269E+02  0.51100000000E-03 0. -1.
        -11    1    3    3    0    0  0.93537361713E+01 -0.45714270128E+01 -0.50241546080E+01  0.11559950479E+02  0.51100000000E-03 0.  1.
         12    1    3    3    0    0  0.62816798998E+01 -0.12183494594E+01  0.62252332056E+01  0.89273403785E+01  0.00000000000E+00 0. -1.
</event>
<event>
 7    1  0.3742599E-009  0.4778727E+02  0.7816164E-02  0.1312668E+00
        -11   -1    0    0    0    0  0.00000000000E+00  0.00000000000E+00  0.45593999997E+02  0.45594000000E+02  0.51100000000E-03 0.  1.
         11   -1    0    0    0    0 -0.00000000000E+00 -0.00000000000E+00 -0.45593999997E+02  0.45594000000E+02  0.51100000000E-03 0. -1.
    9900012    2    1    2    0    0  0.16885618210E+02 -0.37565255404E+02 -0.13687618329E+02  0.47787269460E+02  0.19999992776E+02 0.  0.
        -12    1    1    2    0    0 -0.16885618210E+02  0.37565255404E+02  0.13687618329E+02  0.43400730540E+02  0.00000000000E+00 0.  1.
         11    1    3    3    0    0  0.30484322523E+01 -0.15070406245E+02 -0.57188854112E+01  0.16404747307E+02  0.51100000000E-03 0.  1.
        -11    1    3    3    0    0  0.14252812728E+02 -0.24436693076E+02 -0.79914629123E+01  0.29396566448E+02  0.51100000000E-03 0. -1.
        -12    1    3    3    0    0 -0.41562677028E+00  0.19418439176E+01  0.22729994940E-01  0.19859557058E+01  0.00000000000E+00 0.  1.
</event>
<event>
 7    1  0.3742599E-009  0.4778727E+02  0.7816164E-02  0.1312668E+00
        -11   -1    0    0    0    0  0.00000000000E+00  0.00000000000E+00  0.45593999997E+02  0.45594000000E+02  0.51100000000E-03 0.  1.
         11   -1    0    0    0    0 -0.00000000000E+00 -0.00000000000E+00 -0.45593999997E+02  0.45594000000E+02  0.51100000000E-03 0. -1.
    9900012    2    1    2    0    0  0.24786723029E+02 -0.81369533116E+01 -0.34684748768E+02  0.47787269075E+02  0.19999991021E+02 0.  0.
        -12    1    1    2    0    0 -0.24786723029E+02  0.81369533116E+01  0.34684748768E+02  0.43400730925E+02  0.00000000000E+00 0.  1.
         11    1    3    3    0    0 -0.11939244702E+01 -0.31962838938E+00 -0.80934156610E+00  0.14773801067E+01  0.51100000000E-03 0. -1.
        -11    1    3    3    0    0 -0.12369931138E+01 -0.59327542861E+00 -0.78379363868E+01  0.79570958749E+01  0.51100000000E-03 0.  1.
         12    1    3    3    0    0  0.27217640613E+02 -0.72240494937E+01 -0.26037470815E+02  0.38352793094E+02  0.00000000000E+00 0. -1.
</event>
<event>
 7    1  0.3742599E-009  0.4778727E+02  0.7816164E-02  0.1312668E+00
        -11   -1    0    0    0    0  0.00000000000E+00  0.00000000000E+00  0.45593999997E+02  0.45594000000E+02  0.51100000000E-03 0.  1.
         11   -1    0    0    0    0 -0.00000000000E+00 -0.00000000000E+00 -0.45593999997E+02  0.45594000000E+02  0.51100000000E-03 0. -1.
    9900012    2    1    2    0    0  0.19210641247E+02  0.16999143154E+02 -0.35008623002E+02  0.47787270863E+02  0.19999999174E+02 0.  0.
        -12    1    1    2    0    0 -0.19210641247E+02 -0.16999143154E+02  0.35008623002E+02  0.43400729137E+02  0.00000000000E+00 0.  1.
         11    1    3    3    0    0  0.10318625330E+02  0.13255186047E+01 -0.14361973736E+02  0.17734072238E+02  0.51100000000E-03 0. -1.
        -11    1    3    3    0    0  0.11438704940E+02  0.92319566047E+01 -0.15914059328E+02  0.21664031897E+02  0.51100000000E-03 0.  1.
        -12    1    3    3    0    0 -0.25466890227E+01  0.64416679446E+01 -0.47325899376E+01  0.83891667289E+01  0.00000000000E+00 0.  1.
</event>
<event>
 7    1  0.3742599E-009  0.4778727E+02  0.7816164E-02  0.1312668E+00
        -11   -1    0    0    0    0  0.00000000000E+00  0.00000000000E+00  0.45593999997E+02  0.45594000000E+02  0.51100000000E-03 0.  1.
         11   -1    0    0    0    0 -0.00000000000E+00 -0.00000000000E+00 -0.45593999997E+02  0.45594000000E+02  0.51100000000E-03 0. -1.
    9900012    2    1    2    0    0  0.25445502131E+02  0.96612285240E+01 -0.33805480513E+02  0.47787269269E+02  0.19999991903E+02 0.  0.
        -12    1    1    2    0    0 -0.25445502131E+02 -0.96612285240E+01  0.33805480513E+02  0.43400730731E+02  0.00000000000E+00 0.  1.
         11    1    3    3    0    0  0.37710068752E+01 -0.14023313048E+01 -0.44601275685E-01  0.40235575646E+01  0.51100000000E-03 0. -1.
        -11    1    3    3    0    0  0.15311154158E+02  0.94185561041E+01 -0.13549876160E+02  0.22510881479E+02  0.51100000000E-03 0.  1.
        -12    1    3    3    0    0  0.63633410980E+01  0.16450037247E+01 -0.20211003078E+02  0.21252830225E+02  0.00000000000E+00 0.  1.
</event>
<event>
 7    1  0.3742599E-009  0.4778727E+02  0.7816164E-02  0.1312668E+00
        -11   -1    0    0    0    0  0.00000000000E+00  0.00000000000E+00  0.45593999997E+02  0.45594000000E+02  0.51100000000E-03 0. -1.
         11   -1    0    0    0    0 -0.00000000000E+00 -0.00000000000E+00 -0.45593999997E+02  0.45594000000E+02  0.51100000000E-03 0.  1.
    9900012    2    1    2    0    0  0.26279834136E+02  0.32726593456E+02  0.11043706492E+02  0.47787273572E+02  0.20000011525E+02 0.  0.
        -12    1    1    2    0    0 -0.26279834136E+02 -0.32726593456E+02 -0.11043706492E+02  0.43400726428E+02  0.00000000000E+00 0.  1.
         11    1    3    3    0    0  0.11138169805E+02  0.16061945004E+02  0.10906083691E+02  0.22382751521E+02  0.51100000000E-03 0. -1.
        -11    1    3    3    0    0  0.25888450606E+01  0.16938660416E+01  0.44281813421E+01  0.54018599736E+01  0.51100000000E-03 0.  1.
        -12    1    3    3    0    0  0.12552819270E+02  0.14970782410E+02 -0.42905585413E+01  0.20002662078E+02  0.00000000000E+00 0.  1.
</event>
<event>
 7    1  0.3742599E-009  0.4778728E+02  0.7816164E-02  0.1312668E+00
        -11   -1    0    0    0    0  0.00000000000E+00  0.00000000000E+00  0.45593999997E+02  0.45594000000E+02  0.51100000000E-03 0. -1.
         11   -1    0    0    0    0 -0.00000000000E+00 -0.00000000000E+00 -0.45593999997E+02  0.45594000000E+02  0.51100000000E-03 0.  1.
    9900012    2    1    2    0    0  0.30966631737E+02 -0.21927142590E+02  0.21068719507E+02  0.47787276446E+02  0.20000024628E+02 0.  0.
        -12    1    1    2    0    0 -0.30966631737E+02  0.21927142590E+02 -0.21068719507E+02  0.43400723554E+02  0.00000000000E+00 0.  1.
         11    1    3    3    0    0  0.15630912736E+02 -0.20744595098E+01  0.15299446962E+02  0.21970477756E+02  0.51100000000E-03 0. -1.
        -11    1    3    3    0    0  0.89933134698E+01 -0.10884771188E+02  0.41303412430E+01  0.14711140337E+02  0.51100000000E-03 0.  1.
        -12    1    3    3    0    0  0.63424055311E+01 -0.89679118930E+01  0.16389313026E+01  0.11105658353E+02  0.00000000000E+00 0.  1.
</event>
<event>
 7    1  0.3742599E-009  0.4778727E+02  0.7816164E-02  0.1312668E+00
        -11   -1    0    0    0    0  0.00000000000E+00  0.00000000000E+00  0.45593999997E+02  0.45594000000E+02  0.51100000000E-03 0. -1.
         11   -1    0    0    0    0 -0.00000000000E+00 -0.00000000000E+00 -0.45593999997E+02  0.45594000000E+02  0.51100000000E-03 0.  1.
    9900012    2    1    2    0    0  0.16525184892E+02  0.42336783413E+01  0.39907610721E+02  0.47787272340E+02  0.20000005905E+02 0.  0.
        -12    1    1    2    0    0 -0.16525184892E+02 -0.42336783413E+01 -0.39907610721E+02  0.43400727660E+02  0.00000000000E+00 0.  1.
         11    1    3    3    0    0  0.44847673729E+01  0.27259619907E+01  0.24851054877E+02  0.25399191640E+02  0.51100000000E-03 0. -1.
        -11    1    3    3    0    0  0.11322352520E+02  0.73824285408E+00  0.16846754380E+02  0.20311420495E+02  0.51100000000E-03 0.  1.
        -12    1    3    3    0    0  0.71806499925E+00  0.76947349654E+00 -0.17901985372E+01  0.20766602052E+01  0.00000000000E+00 0.  1.
</event>
<event>
 7    1  0.3742599E-009  0.4778727E+02  0.7816164E-02  0.1312668E+00
        -11   -1    0    0    0    0  0.00000000000E+00  0.00000000000E+00  0.45593999997E+02  0.45594000000E+02  0.51100000000E-03 0. -1.
         11   -1    0    0    0    0 -0.00000000000E+00 -0.00000000000E+00 -0.45593999997E+02  0.45594000000E+02  0.51100000000E-03 0.  1.
    9900012    2    1    2    0    0 -0.42335618062E+02 -0.81940045732E+01  0.49170065534E+01  0.47787271652E+02  0.20000002771E+02 0.  0.
        -12    1    1    2    0    0  0.42335618062E+02  0.81940045732E+01 -0.49170065534E+01  0.43400728348E+02  0.00000000000E+00 0.  1.
         11    1    3    3    0    0 -0.35693143245E+02 -0.77032820877E+01 -0.12382516585E+01  0.36535931589E+02  0.51100000000E-03 0. -1.
        -11    1    3    3    0    0 -0.53869063683E+01  0.17185703307E+01  0.13466045408E+01  0.58125371614E+01  0.51100000000E-03 0.  1.
        -12    1    3    3    0    0 -0.12555684493E+01 -0.22092928161E+01  0.48086536711E+01  0.54388029020E+01  0.00000000000E+00 0.  1.
</event>
<event>
 7    1  0.3742599E-009  0.4778728E+02  0.7816164E-02  0.1312668E+00
        -11   -1    0    0    0    0  0.00000000000E+00  0.00000000000E+00  0.45593999997E+02  0.45594000000E+02  0.51100000000E-03 0. -1.
         11   -1    0    0    0    0 -0.00000000000E+00 -0.00000000000E+00 -0.45593999997E+02  0.45594000000E+02  0.51100000000E-03 0.  1.
    9900012    2    1    2    0    0 -0.12954709719E+01 -0.43017933852E+02  0.56037221848E+01  0.47787279036E+02  0.20000036435E+02 0.  0.
        -12    1    1    2    0    0  0.12954709719E+01  0.43017933852E+02 -0.56037221848E+01  0.43400720964E+02  0.00000000000E+00 0.  1.
         11    1    3    3    0    0 -0.43771708751E+01 -0.21142808519E+02  0.45709304906E+01  0.22069693762E+02  0.51100000000E-03 0. -1.
        -11    1    3    3    0    0  0.54380110783E+00 -0.19764152392E+02 -0.35316126470E+01  0.20084564411E+02  0.51100000000E-03 0.  1.
         12    1    3    3    0    0  0.25378987954E+01 -0.21109729407E+01  0.45644043412E+01  0.56330208629E+01  0.00000000000E+00 0. -1.
</event>
<event>
 7    1  0.3742599E-009  0.4778727E+02  0.7816164E-02  0.1312668E+00
        -11   -1    0    0    0    0  0.00000000000E+00  0.00000000000E+00  0.45593999997E+02  0.45594000000E+02  0.51100000000E-03 0.  1.
         11   -1    0    0    0    0 -0.00000000000E+00 -0.00000000000E+00 -0.45593999997E+02  0.45594000000E+02  0.51100000000E-03 0. -1.
    9900012    2    1    2    0    0 -0.43274729379E+02  0.10950648479E+01 -0.31180080647E+01  0.47787270235E+02  0.19999996308E+02 0.  0.
        -12    1    1    2    0    0  0.43274729379E+02 -0.10950648479E+01  0.31180080647E+01  0.43400729765E+02  0.00000000000E+00 0.  1.
         11    1    3    3    0    0 -0.10130521235E+02 -0.14551266843E+01 -0.24087680103E+01  0.10514134190E+02  0.51100000000E-03 0. -1.
        -11    1    3    3    0    0 -0.32468231162E+02  0.21408948010E+01  0.37411772245E+01  0.32753104779E+02  0.51100000000E-03 0.  1.
        -12    1    3    3    0    0 -0.67597698155E+00  0.40929673121E+00 -0.44504172789E+01  0.45200312665E+01  0.00000000000E+00 0.  1.
</event>
<event>
 7    1  0.3742599E-009  0.4778728E+02  0.7816164E-02  0.1312668E+00
        -11   -1    0    0    0    0  0.00000000000E+00  0.00000000000E+00  0.45593999997E+02  0.45594000000E+02  0.51100000000E-03 0.  1.
         11   -1    0    0    0    0 -0.00000000000E+00 -0.00000000000E+00 -0.45593999997E+02  0.45594000000E+02  0.51100000000E-03 0. -1.
    9900012    2    1    2    0    0  0.10610732173E+01  0.22533389787E+02 -0.37077521358E+02  0.47787284318E+02  0.20000060517E+02 0.  0.
        -12    1    1    2    0    0 -0.10610732173E+01 -0.22533389787E+02  0.37077521358E+02  0.43400715682E+02  0.00000000000E+00 0.  1.
         11    1    3    3    0    0  0.46082223502E+01  0.41696355213E+01 -0.12493870261E+02  0.13954152356E+02  0.51100000000E-03 0. -1.
        -11    1    3    3    0    0  0.26628597616E+01  0.11056078681E+02 -0.20430943033E+02  0.23382710095E+02  0.51100000000E-03 0.  1.
        -12    1    3    3    0    0 -0.62100088945E+01  0.73076755848E+01 -0.41527080643E+01  0.10450421867E+02  0.00000000000E+00 0.  1.
</event>
<event>
 7    1  0.3742599E-009  0.4778728E+02  0.7816164E-02  0.1312668E+00
        -11   -1    0    0    0    0  0.00000000000E+00  0.00000000000E+00  0.45593999997E+02  0.45594000000E+02  0.51100000000E-03 0. -1.
         11   -1    0    0    0    0 -0.00000000000E+00 -0.00000000000E+00 -0.45593999997E+02  0.45594000000E+02  0.51100000000E-03 0.  1.
    9900012    2    1    2    0    0  0.24691309006E+02 -0.12775673300E+02  0.33327831619E+02  0.47787275017E+02  0.20000018111E+02 0.  0.
        -12    1    1    2    0    0 -0.24691309006E+02  0.12775673300E+02 -0.33327831619E+02  0.43400724983E+02  0.00000000000E+00 0.  1.
         11    1    3    3    0    0 -0.36499535623E-01 -0.30242018459E+01  0.19717162746E+01  0.36103731593E+01  0.51100000000E-03 0. -1.
        -11    1    3    3    0    0  0.71692074908E+01  0.19007429028E+00  0.34600618833E+00  0.71800685809E+01  0.51100000000E-03 0.  1.
         12    1    3    3    0    0  0.17558601050E+02 -0.99415457444E+01  0.31010109156E+02  0.36996833276E+02  0.00000000000E+00 0. -1.
</event>
<event>
 7    1  0.3742599E-009  0.4778727E+02  0.7816164E-02  0.1312668E+00
        -11   -1    0    0    0    0  0.00000000000E+00  0.00000000000E+00  0.45593999997E+02  0.45594000000E+02  0.51100000000E-03 0. -1.
         11   -1    0    0    0    0 -0.00000000000E+00 -0.00000000000E+00 -0.45593999997E+02  0.45594000000E+02  0.51100000000E-03 0.  1.
    9900012    2    1    2    0    0  0.40262598631E+02  0.14079178801E+02 -0.80201707279E+01  0.47787271172E+02  0.20000000583E+02 0.  0.
        -12    1    1    2    0    0 -0.40262598631E+02 -0.14079178801E+02  0.80201707279E+01  0.43400728828E+02  0.00000000000E+00 0.  1.
         11    1    3    3    0    0  0.49662486822E+01  0.78901587028E+01  0.14769083630E+01  0.94392525606E+01  0.51100000000E-03 0.  1.
        -11    1    3    3    0    0  0.10493609710E+02 -0.45107820385E+00  0.11209811069E+01  0.10562950118E+02  0.51100000000E-03 0. -1.
        -12    1    3    3    0    0  0.24802740240E+02  0.66400983022E+01 -0.10618060198E+02  0.27785068494E+02  0.00000000000E+00 0.  1.
</event>
<event>
 7    1  0.3742599E-009  0.4778727E+02  0.7816164E-02  0.1312668E+00
        -11   -1    0    0    0    0  0.00000000000E+00  0.00000000000E+00  0.45593999997E+02  0.45594000000E+02  0.51100000000E-03 0.  1.
         11   -1    0    0    0    0 -0.00000000000E+00 -0.00000000000E+00 -0.45593999997E+02  0.45594000000E+02  0.51100000000E-03 0. -1.
    9900012    2    1    2    0    0  0.43386586017E+02 -0.43205270377E+00  0.10204150279E+01  0.47787265415E+02  0.19999974332E+02 0.  0.
        -12    1    1    2    0    0 -0.43386586017E+02  0.43205270377E+00 -0.10204150279E+01  0.43400734585E+02  0.00000000000E+00 0.  1.
         11    1    3    3    0    0  0.17184561705E+02 -0.13842914430E+01  0.47293276600E+01  0.17877135234E+02  0.51100000000E-03 0. -1.
        -11    1    3    3    0    0  0.23080117014E+02 -0.38783011919E+01 -0.68872830390E+00  0.23413828573E+02  0.51100000000E-03 0.  1.
        -12    1    3    3    0    0  0.31219072972E+01  0.48305399311E+01 -0.30201843283E+01  0.64963016074E+01  0.00000000000E+00 0.  1.
</event>
<event>
 7    1  0.3742599E-009  0.4778727E+02  0.7816164E-02  0.1312668E+00
        -11   -1    0    0    0    0  0.00000000000E+00  0.00000000000E+00  0.45593999997E+02  0.45594000000E+02  0.51100000000E-03 0. -1.
         11   -1    0    0    0    0 -0.00000000000E+00 -0.00000000000E+00 -0.45593999997E+02  0.45594000000E+02  0.51100000000E-03 0.  1.
    9900012    2    1    2    0    0 -0.18903154354E+02  0.38693008859E+02  0.53986522775E+01  0.47787266993E+02  0.19999981528E+02 0.  0.
        -12    1    1    2    0    0  0.18903154354E+02 -0.38693008859E+02 -0.53986522775E+01  0.43400733007E+02  0.00000000000E+00 0.  1.
         11    1    3    3    0    0 -0.52176818321E+01  0.31443529114E+01 -0.85566106688E+00  0.61516920481E+01  0.51100000000E-03 0. -1.
        -11    1    3    3    0    0 -0.29062320160E+01 -0.30626017946E+00  0.27818948214E+01  0.40347142262E+01  0.51100000000E-03 0.  1.
         12    1    3    3    0    0 -0.10779240506E+02  0.35854916127E+02  0.34724185230E+01  0.37600860719E+02  0.00000000000E+00 0. -1.
</event>
<event>
 7    1  0.3742599E-009  0.4778727E+02  0.7816164E-02  0.1312668E+00
        -11   -1    0    0    0    0  0.00000000000E+00  0.00000000000E+00  0.45593999997E+02  0.45594000000E+02  0.51100000000E-03 0. -1.
         11   -1    0    0    0    0 -0.00000000000E+00 -0.00000000000E+00 -0.45593999997E+02  0.45594000000E+02  0.51100000000E-03 0.  1.
    9900012    2    1    2    0    0 -0.37432217195E+02  0.21529328964E+02  0.43520173487E+01  0.47787274836E+02  0.20000017287E+02 0.  0.
        -12    1    1    2    0    0  0.37432217195E+02 -0.21529328964E+02 -0.43520173487E+01  0.43400725164E+02  0.00000000000E+00 0.  1.
         11    1    3    3    0    0 -0.66518332528E+01  0.81152104914E+01  0.21004279674E+01  0.10701183339E+02  0.51100000000E-03 0. -1.
        -11    1    3    3    0    0 -0.29526176599E+01  0.53401741682E+00  0.54850082212E+01  0.62520749431E+01  0.51100000000E-03 0.  1.
         12    1    3    3    0    0 -0.27827766282E+02  0.12880101056E+02 -0.32334188399E+01  0.30834016554E+02  0.00000000000E+00 0. -1.
</event>
<event>
 7    1  0.3742599E-009  0.4778727E+02  0.7816164E-02  0.1312668E+00
        -11   -1    0    0    0    0  0.00000000000E+00  0.00000000000E+00  0.45593999997E+02  0.45594000000E+02  0.51100000000E-03 0. -1.
         11   -1    0    0    0    0 -0.00000000000E+00 -0.00000000000E+00 -0.45593999997E+02  0.45594000000E+02  0.51100000000E-03 0.  1.
    9900012    2    1    2    0    0 -0.18036611162E+02  0.38439076468E+02  0.89856122925E+01  0.47787272239E+02  0.20000005448E+02 0.  0.
        -12    1    1    2    0    0  0.18036611162E+02 -0.38439076468E+02 -0.89856122925E+01  0.43400727761E+02  0.00000000000E+00 0.  1.
         11    1    3    3    0    0 -0.15287659706E+01  0.89323564456E+01  0.13257661789E+01  0.91586993229E+01  0.51100000000E-03 0. -1.
        -11    1    3    3    0    0 -0.52031370195E+01  0.46595564978E+01  0.88867981035E+01  0.11303065177E+02  0.51100000000E-03 0.  1.
        -12    1    3    3    0    0 -0.11304708172E+02  0.24847163524E+02 -0.12269519899E+01  0.27325507740E+02  0.00000000000E+00 0.  1.
</event>
<event>
 7    1  0.3742599E-009  0.4778727E+02  0.7816164E-02  0.1312668E+00
        -11   -1    0    0    0    0  0.00000000000E+00  0.00000000000E+00  0.45593999997E+02  0.45594000000E+02  0.51100000000E-03 0. -1.
         11   -1    0    0    0    0 -0.00000000000E+00 -0.00000000000E+00 -0.45593999997E+02  0.45594000000E+02  0.51100000000E-03 0.  1.
    9900012    2    1    2    0    0  0.69688445002E+01 -0.33522615673E+02  0.26670067795E+02  0.47787273377E+02  0.20000010634E+02 0.  0.
        -12    1    1    2    0    0 -0.69688445002E+01  0.33522615673E+02 -0.26670067795E+02  0.43400726623E+02  0.00000000000E+00 0.  1.
         11    1    3    3    0    0  0.13606678383E+01 -0.11847776628E+02  0.14544810044E+02  0.18808847054E+02  0.51100000000E-03 0. -1.
        -11    1    3    3    0    0 -0.29475634226E+01 -0.45575354007E+01  0.75572085960E+01  0.93043356068E+01  0.51100000000E-03 0.  1.
        -12    1    3    3    0    0  0.85557400845E+01 -0.17117303644E+02  0.45680491543E+01  0.19674090716E+02  0.00000000000E+00 0.  1.
</event>
<event>
 7    1  0.3742599E-009  0.4778723E+02  0.7816164E-02  0.1312668E+00
        -11   -1    0    0    0    0  0.00000000000E+00  0.00000000000E+00  0.45593999997E+02  0.45594000000E+02  0.51100000000E-03 0.  1.
         11   -1    0    0    0    0 -0.00000000000E+00 -0.00000000000E+00 -0.45593999997E+02  0.45594000000E+02  0.51100000000E-03 0. -1.
    9900012    2    1    2    0    0 -0.35535091115E+02  0.12894814426E+02 -0.21321540989E+02  0.47787227544E+02  0.19999801664E+02 0.  0.
        -12    1    1    2    0    0  0.35535091115E+02 -0.12894814426E+02  0.21321540989E+02  0.43400772456E+02  0.00000000000E+00 0.  1.
         11    1    3    3    0    0 -0.18098692450E+02  0.72403386776E+01 -0.66979722549E+01  0.20611841382E+02  0.51100000000E-03 0. -1.
        -11    1    3    3    0    0 -0.14138232917E+02 -0.21737992294E+01 -0.78933170688E+01  0.16337670816E+02  0.51100000000E-03 0.  1.
         12    1    3    3    0    0 -0.32981657474E+01  0.78282749777E+01 -0.67302516658E+01  0.10837715345E+02  0.00000000000E+00 0. -1.
</event>
<event>
 7    1  0.3742599E-009  0.4778727E+02  0.7816164E-02  0.1312668E+00
        -11   -1    0    0    0    0  0.00000000000E+00  0.00000000000E+00  0.45593999997E+02  0.45594000000E+02  0.51100000000E-03 0.  1.
         11   -1    0    0    0    0 -0.00000000000E+00 -0.00000000000E+00 -0.45593999997E+02  0.45594000000E+02  0.51100000000E-03 0. -1.
    9900012    2    1    2    0    0 -0.61537348735E+01 -0.29846842604E+02 -0.30901791229E+02  0.47787272270E+02  0.20000005590E+02 0.  0.
        -12    1    1    2    0    0  0.61537348735E+01  0.29846842604E+02  0.30901791229E+02  0.43400727730E+02  0.00000000000E+00 0.  1.
         11    1    3    3    0    0 -0.20121508951E+01 -0.23100853470E+01 -0.42885371261E+01  0.52703696719E+01  0.51100000000E-03 0. -1.
        -11    1    3    3    0    0 -0.92098938791E+01 -0.20767265966E+02 -0.25225137670E+02  0.33947150862E+02  0.51100000000E-03 0.  1.
         12    1    3    3    0    0  0.50683099008E+01 -0.67694912912E+01 -0.13881164333E+01  0.85697517364E+01  0.00000000000E+00 0. -1.
</event>
<event>
 7    1  0.3742599E-009  0.4778727E+02  0.7816164E-02  0.1312668E+00
        -11   -1    0    0    0    0  0.00000000000E+00  0.00000000000E+00  0.45593999997E+02  0.45594000000E+02  0.51100000000E-03 0.  1.
         11   -1    0    0    0    0 -0.00000000000E+00 -0.00000000000E+00 -0.45593999997E+02  0.45594000000E+02  0.51100000000E-03 0. -1.
    9900012    2    1    2    0    0 -0.90488911379E+01  0.56875823325E+01 -0.42064148749E+02  0.47787266900E+02  0.19999981105E+02 0.  0.
        -12    1    1    2    0    0  0.90488911379E+01 -0.56875823325E+01  0.42064148749E+02  0.43400733100E+02  0.00000000000E+00 0.  1.
         11    1    3    3    0    0 -0.61441238726E+01  0.17109896000E+01 -0.81912362120E+01  0.10381430273E+02  0.51100000000E-03 0. -1.
        -11    1    3    3    0    0  0.18939985322E+01  0.52898881929E+01 -0.34815751289E+01  0.66099556105E+01  0.51100000000E-03 0.  1.
         12    1    3    3    0    0 -0.47987657975E+01 -0.13132954603E+01 -0.30391337408E+02  0.30795881017E+02  0.00000000000E+00 0. -1.
</event>
<event>
 7    1  0.3742599E-009  0.4778727E+02  0.7816164E-02  0.1312668E+00
        -11   -1    0    0    0    0  0.00000000000E+00  0.00000000000E+00  0.45593999997E+02  0.45594000000E+02  0.51100000000E-03 0.  1.
         11   -1    0    0    0    0 -0.00000000000E+00 -0.00000000000E+00 -0.45593999997E+02  0.45594000000E+02  0.51100000000E-03 0. -1.
    9900012    2    1    2    0    0 -0.10845938433E+02 -0.39536755588E+02 -0.14241973762E+02  0.47787271440E+02  0.20000001803E+02 0.  0.
        -12    1    1    2    0    0  0.10845938433E+02  0.39536755588E+02  0.14241973762E+02  0.43400728560E+02  0.00000000000E+00 0.  1.
         11    1    3    3    0    0 -0.40075959343E+00 -0.16210683377E+02 -0.13730520182E+00  0.16216217709E+02  0.51100000000E-03 0. -1.
        -11    1    3    3    0    0 -0.92873057563E+00 -0.43689357820E+00  0.18331207626E+01  0.21008923038E+01  0.51100000000E-03 0.  1.
         12    1    3    3    0    0 -0.95164482638E+01 -0.22889178633E+02 -0.15937789323E+02  0.29470161427E+02  0.00000000000E+00 0. -1.
</event>
<event>
 7    1  0.3742599E-009  0.4778728E+02  0.7816164E-02  0.1312668E+00
        -11   -1    0    0    0    0  0.00000000000E+00  0.00000000000E+00  0.45593999997E+02  0.45594000000E+02  0.51100000000E-03 0.  1.
         11   -1    0    0    0    0 -0.00000000000E+00 -0.00000000000E+00 -0.45593999997E+02  0.45594000000E+02  0.51100000000E-03 0. -1.
    9900012    2    1    2    0    0  0.22957005158E+02 -0.24548546440E+02 -0.27458468274E+02  0.47787277678E+02  0.20000030244E+02 0.  0.
        -12    1    1    2    0    0 -0.22957005158E+02  0.24548546440E+02  0.27458468274E+02  0.43400722322E+02  0.00000000000E+00 0.  1.
         11    1    3    3    0    0 -0.58866314166E+00 -0.11193110995E+02 -0.52990333924E+01  0.12398064897E+02  0.51100000000E-03 0. -1.
        -11    1    3    3    0    0  0.13330364141E+02 -0.10518950188E+02 -0.13174490678E+02  0.21492187559E+02  0.51100000000E-03 0.  1.
        -12    1    3    3    0    0  0.10215304159E+02 -0.28364852566E+01 -0.89849442035E+01  0.13897025221E+02  0.00000000000E+00 0.  1.
</event>
<event>
 7    1  0.3742599E-009  0.4778727E+02  0.7816164E-02  0.1312668E+00
        -11   -1    0    0    0    0  0.00000000000E+00  0.00000000000E+00  0.45593999997E+02  0.45594000000E+02  0.51100000000E-03 0.  1.
         11   -1    0    0    0    0 -0.00000000000E+00 -0.00000000000E+00 -0.45593999997E+02  0.45594000000E+02  0.51100000000E-03 0. -1.
    9900012    2    1    2    0    0  0.13088668738E+01  0.36681715711E+02 -0.23159483159E+02  0.47787273506E+02  0.20000011224E+02 0.  0.
        -12    1    1    2    0    0 -0.13088668738E+01 -0.36681715711E+02  0.23159483159E+02  0.43400726494E+02  0.00000000000E+00 0.  1.
         11    1    3    3    0    0 -0.28243499206E+01  0.86983593339E+01 -0.53256366309E+01  0.10583043672E+02  0.51100000000E-03 0. -1.
        -11    1    3    3    0    0 -0.25357795277E+01 -0.11320832073E+01 -0.16982055698E+01  0.32551025514E+01  0.51100000000E-03 0.  1.
         12    1    3    3    0    0  0.66689963221E+01  0.29115439585E+02 -0.16135640958E+02  0.33949127283E+02  0.00000000000E+00 0. -1.
</event>
<event>
 7    1  0.3742599E-009  0.4778727E+02  0.7816164E-02  0.1312668E+00
        -11   -1    0    0    0    0  0.00000000000E+00  0.00000000000E+00  0.45593999997E+02  0.45594000000E+02  0.51100000000E-03 0. -1.
         11   -1    0    0    0    0 -0.00000000000E+00 -0.00000000000E+00 -0.45593999997E+02  0.45594000000E+02  0.51100000000E-03 0.  1.
    9900012    2    1    2    0    0  0.10234694015E+02  0.15872444233E+02  0.39076079296E+02  0.47787269353E+02  0.19999992288E+02 0.  0.
        -12    1    1    2    0    0 -0.10234694015E+02 -0.15872444233E+02 -0.39076079296E+02  0.43400730647E+02  0.00000000000E+00 0.  1.
         11    1    3    3    0    0 -0.14437546849E+01  0.18890082666E+01 -0.24039344714E+00  0.23896797049E+01  0.51100000000E-03 0. -1.
        -11    1    3    3    0    0 -0.19492062411E+01 -0.11240194374E+01  0.27624462160E+01  0.35628547575E+01  0.51100000000E-03 0.  1.
         12    1    3    3    0    0  0.13627654941E+02  0.15107455404E+02  0.36554026528E+02  0.41834734891E+02  0.00000000000E+00 0. -1.
</event>
<event>
 7    1  0.3742599E-009  0.4778727E+02  0.7816164E-02  0.1312668E+00
        -11   -1    0    0    0    0  0.00000000000E+00  0.00000000000E+00  0.45593999997E+02  0.45594000000E+02  0.51100000000E-03 0. -1.
         11   -1    0    0    0    0 -0.00000000000E+00 -0.00000000000E+00 -0.45593999997E+02  0.45594000000E+02  0.51100000000E-03 0.  1.
    9900012    2    1    2    0    0 -0.24885690790E+02 -0.15693764643E+02  0.31906603843E+02  0.47787271624E+02  0.20000002643E+02 0.  0.
        -12    1    1    2    0    0  0.24885690790E+02  0.15693764643E+02 -0.31906603843E+02  0.43400728376E+02  0.00000000000E+00 0.  1.
         11    1    3    3    0    0 -0.36572011612E+01 -0.72688326812E+01  0.16281108341E+02  0.18201250999E+02  0.51100000000E-03 0. -1.
        -11    1    3    3    0    0 -0.13541927084E+02 -0.85346202264E+01  0.14893125701E+02  0.21863868024E+02  0.51100000000E-03 0.  1.
        -12    1    3    3    0    0 -0.76865625442E+01  0.10968826428E+00  0.73236980114E+00  0.77221526006E+01  0.00000000000E+00 0.  1.
</event>
<event>
 7    1  0.3742599E-009  0.4778727E+02  0.7816164E-02  0.1312668E+00
        -11   -1    0    0    0    0  0.00000000000E+00  0.00000000000E+00  0.45593999997E+02  0.45594000000E+02  0.51100000000E-03 0.  1.
         11   -1    0    0    0    0 -0.00000000000E+00 -0.00000000000E+00 -0.45593999997E+02  0.45594000000E+02  0.51100000000E-03 0. -1.
    9900012    2    1    2    0    0 -0.32752700666E+02  0.23067387166E+02 -0.16696695387E+02  0.47787269724E+02  0.19999993981E+02 0.  0.
        -12    1    1    2    0    0  0.32752700666E+02 -0.23067387166E+02  0.16696695387E+02  0.43400730276E+02  0.00000000000E+00 0.  1.
         11    1    3    3    0    0 -0.74205642825E+01  0.30382828311E+01 -0.76005509843E+01  0.11048271917E+02  0.51100000000E-03 0. -1.
        -11    1    3    3    0    0 -0.15084384765E+02  0.26179718497E+01 -0.26885198018E+01  0.15544149360E+02  0.51100000000E-03 0.  1.
        -12    1    3    3    0    0 -0.10247751618E+02  0.17411132485E+02 -0.64076246015E+01  0.21194848447E+02  0.00000000000E+00 0.  1.
</event>
<event>
 7    1  0.3742599E-009  0.4778728E+02  0.7816164E-02  0.1312668E+00
        -11   -1    0    0    0    0  0.00000000000E+00  0.00000000000E+00  0.45593999997E+02  0.45594000000E+02  0.51100000000E-03 0.  1.
         11   -1    0    0    0    0 -0.00000000000E+00 -0.00000000000E+00 -0.45593999997E+02  0.45594000000E+02  0.51100000000E-03 0. -1.
    9900012    2    1    2    0    0 -0.34198421462E+02  0.25496004032E+02  0.80027683631E+01  0.47787279343E+02  0.20000037835E+02 0.  0.
        -12    1    1    2    0    0  0.34198421462E+02 -0.25496004032E+02 -0.80027683631E+01  0.43400720657E+02  0.00000000000E+00 0.  1.
         11    1    3    3    0    0 -0.51793595894E+01  0.19020999526E+01  0.40228241653E+01  0.68283866698E+01  0.51100000000E-03 0. -1.
        -11    1    3    3    0    0 -0.13137185232E+01  0.96554481539E+01  0.63546404503E+00  0.97651088178E+01  0.51100000000E-03 0.  1.
         12    1    3    3    0    0 -0.27705343350E+02  0.13938455925E+02  0.33444801528E+01  0.31193783855E+02  0.00000000000E+00 0. -1.
</event>
