<event>
 7    1  0.2647566E-010  0.4778726E+02  0.7816164E-02  0.1312668E+00
        -11   -1    0    0    0    0  0.00000000000E+00  0.00000000000E+00  0.45593999997E+02  0.45594000000E+02  0.51100000000E-03 0.  1.
         11   -1    0    0    0    0 -0.00000000000E+00 -0.00000000000E+00 -0.45593999997E+02  0.45594000000E+02  0.51100000000E-03 0. -1.
    9900012    2    1    2    0    0  0.19022212723E+01  0.88446045078E+01  0.42447362277E+02  0.47787262230E+02  0.19999959813E+02 0.  0.
         12    1    1    2    0    0 -0.19022212723E+01 -0.88446045078E+01 -0.42447362277E+02  0.43400737770E+02  0.00000000000E+00 0. -1.
         11    1    3    3    0    0 -0.28820389112E+01 -0.64223147934E+00  0.35273206512E+01  0.46000653035E+01  0.51100000000E-03 0. -1.
        -11    1    3    3    0    0  0.40278937840E+01  0.52368280763E+01  0.38252816902E+02  0.38819148598E+02  0.51100000000E-03 0.  1.
        -12    1    3    3    0    0  0.75636639952E+00  0.42500079109E+01  0.66722472342E+00  0.43680483290E+01  0.00000000000E+00 0.  1.
</event>
<event>
 7    1  0.2647566E-010  0.4778726E+02  0.7816164E-02  0.1312668E+00
        -11   -1    0    0    0    0  0.00000000000E+00  0.00000000000E+00  0.45593999997E+02  0.45594000000E+02  0.51100000000E-03 0.  1.
         11   -1    0    0    0    0 -0.00000000000E+00 -0.00000000000E+00 -0.45593999997E+02  0.45594000000E+02  0.51100000000E-03 0. -1.
    9900012    2    1    2    0    0 -0.20413762754E+02 -0.20472579750E+02  0.32369373256E+02  0.47787256269E+02  0.19999932634E+02 0.  0.
         12    1    1    2    0    0  0.20413762754E+02  0.20472579750E+02 -0.32369373256E+02  0.43400743731E+02  0.00000000000E+00 0. -1.
         11    1    3    3    0    0 -0.33552401227E+01 -0.62976496472E+01  0.21178297887E+01  0.74433346448E+01  0.51100000000E-03 0. -1.
        -11    1    3    3    0    0 -0.15747260416E+02 -0.17040602723E+02  0.24231109427E+02  0.33548547153E+02  0.51100000000E-03 0.  1.
         12    1    3    3    0    0 -0.13112622147E+01  0.28656726205E+01  0.60204340407E+01  0.67953744711E+01  0.00000000000E+00 0. -1.
</event>
<event>
 7    1  0.2647566E-010  0.4778727E+02  0.7816164E-02  0.1312668E+00
        -11   -1    0    0    0    0  0.00000000000E+00  0.00000000000E+00  0.45593999997E+02  0.45594000000E+02  0.51100000000E-03 0.  1.
         11   -1    0    0    0    0 -0.00000000000E+00 -0.00000000000E+00 -0.45593999997E+02  0.45594000000E+02  0.51100000000E-03 0. -1.
    9900012    2    1    2    0    0 -0.15315068703E+02 -0.30886952682E+02  0.26364141020E+02  0.47787272966E+02  0.20000008759E+02 0.  0.
         12    1    1    2    0    0  0.15315068703E+02  0.30886952682E+02 -0.26364141020E+02  0.43400727034E+02  0.00000000000E+00 0. -1.
         11    1    3    3    0    0 -0.92381377490E+01 -0.67898965109E+01  0.56756838506E+01  0.12792938331E+02  0.51100000000E-03 0. -1.
        -11    1    3    3    0    0 -0.81329804462E+01 -0.15629628989E+02  0.74136443769E+01  0.19115250364E+02  0.51100000000E-03 0.  1.
         12    1    3    3    0    0  0.20560494920E+01 -0.84674271822E+01  0.13274812793E+02  0.15879084271E+02  0.00000000000E+00 0. -1.
</event>
<event>
 7    1  0.2647566E-010  0.4778727E+02  0.7816164E-02  0.1312668E+00
        -11   -1    0    0    0    0  0.00000000000E+00  0.00000000000E+00  0.45593999997E+02  0.45594000000E+02  0.51100000000E-03 0.  1.
         11   -1    0    0    0    0 -0.00000000000E+00 -0.00000000000E+00 -0.45593999997E+02  0.45594000000E+02  0.51100000000E-03 0. -1.
    9900012    2    1    2    0    0 -0.20641559996E+00  0.42213137286E+02 -0.10081276406E+02  0.47787266125E+02  0.19999977572E+02 0.  0.
         12    1    1    2    0    0  0.20641559996E+00 -0.42213137286E+02  0.10081276406E+02  0.43400733875E+02  0.00000000000E+00 0. -1.
         11    1    3    3    0    0 -0.66218344512E+01  0.14252314459E+02 -0.50059622093E+01  0.16493538639E+02  0.51100000000E-03 0.  1.
        -11    1    3    3    0    0 -0.22732257870E+01  0.29209915696E+01  0.14872008582E+01  0.39889239003E+01  0.51100000000E-03 0. -1.
        -12    1    3    3    0    0  0.86886446382E+01  0.25039831257E+02 -0.65625150545E+01  0.27304803586E+02  0.00000000000E+00 0.  1.
</event>
<event>
 7    1  0.2647566E-010  0.4778727E+02  0.7816164E-02  0.1312668E+00
        -11   -1    0    0    0    0  0.00000000000E+00  0.00000000000E+00  0.45593999997E+02  0.45594000000E+02  0.51100000000E-03 0.  1.
         11   -1    0    0    0    0 -0.00000000000E+00 -0.00000000000E+00 -0.45593999997E+02  0.45594000000E+02  0.51100000000E-03 0. -1.
    9900012    2    1    2    0    0 -0.31215498435E+02 -0.26219635461E+02  0.14891149328E+02  0.47787274723E+02  0.20000016773E+02 0.  0.
         12    1    1    2    0    0  0.31215498435E+02  0.26219635461E+02 -0.14891149328E+02  0.43400725277E+02  0.00000000000E+00 0. -1.
         11    1    3    3    0    0 -0.10909268284E+02 -0.15542545937E+02  0.38117411678E+01  0.19367814530E+02  0.51100000000E-03 0. -1.
        -11    1    3    3    0    0 -0.75986948875E+00 -0.56149350497E+01  0.43259923872E+01  0.71287521802E+01  0.51100000000E-03 0.  1.
        -12    1    3    3    0    0 -0.19546360663E+02 -0.50621544744E+01  0.67534157729E+01  0.21290708013E+02  0.00000000000E+00 0.  1.
</event>
<event>
 7    1  0.2647566E-010  0.4778727E+02  0.7816164E-02  0.1312668E+00
        -11   -1    0    0    0    0  0.00000000000E+00  0.00000000000E+00  0.45593999997E+02  0.45594000000E+02  0.51100000000E-03 0.  1.
         11   -1    0    0    0    0 -0.00000000000E+00 -0.00000000000E+00 -0.45593999997E+02  0.45594000000E+02  0.51100000000E-03 0. -1.
    9900012    2    1    2    0    0 -0.11229206215E+02  0.86072929282E+01  0.41029777137E+02  0.47787272176E+02  0.20000005158E+02 0.  0.
         12    1    1    2    0    0  0.11229206215E+02 -0.86072929282E+01 -0.41029777137E+02  0.43400727824E+02  0.00000000000E+00 0. -1.
         11    1    3    3    0    0 -0.18239410908E+01  0.14521572356E+01  0.75129138681E+00  0.24494817306E+01  0.51100000000E-03 0. -1.
        -11    1    3    3    0    0 -0.11339435644E+02  0.46868053733E+01  0.40377246759E+02  0.42200367314E+02  0.51100000000E-03 0.  1.
         12    1    3    3    0    0  0.19341705197E+01  0.24683303192E+01 -0.98761009355E-01  0.31374231307E+01  0.00000000000E+00 0. -1.
</event>
<event>
 7    1  0.2647566E-010  0.4778728E+02  0.7816164E-02  0.1312668E+00
        -11   -1    0    0    0    0  0.00000000000E+00  0.00000000000E+00  0.45593999997E+02  0.45594000000E+02  0.51100000000E-03 0. -1.
         11   -1    0    0    0    0 -0.00000000000E+00 -0.00000000000E+00 -0.45593999997E+02  0.45594000000E+02  0.51100000000E-03 0.  1.
    9900012    2    1    2    0    0 -0.34267769770E+02  0.26613890055E+02 -0.10214364542E+01  0.47787279714E+02  0.20000039530E+02 0.  0.
         12    1    1    2    0    0  0.34267769770E+02 -0.26613890055E+02  0.10214364542E+01  0.43400720286E+02  0.00000000000E+00 0. -1.
         11    1    3    3    0    0 -0.13557083089E+02  0.17599703869E+02 -0.14256959675E+01  0.22261551774E+02  0.51100000000E-03 0. -1.
        -11    1    3    3    0    0 -0.61226812849E+01  0.29056136520E+01 -0.54139487313E+01  0.86741373022E+01  0.51100000000E-03 0.  1.
         12    1    3    3    0    0 -0.14588005396E+02  0.61085725346E+01  0.58182082446E+01  0.16851590638E+02  0.00000000000E+00 0. -1.
</event>
<event>
 7    1  0.2647566E-010  0.4778727E+02  0.7816164E-02  0.1312668E+00
        -11   -1    0    0    0    0  0.00000000000E+00  0.00000000000E+00  0.45593999997E+02  0.45594000000E+02  0.51100000000E-03 0.  1.
         11   -1    0    0    0    0 -0.00000000000E+00 -0.00000000000E+00 -0.45593999997E+02  0.45594000000E+02  0.51100000000E-03 0. -1.
    9900012    2    1    2    0    0  0.38218038286E+01 -0.10293211533E+02  0.41988889814E+02  0.47787271251E+02  0.20000000941E+02 0.  0.
         12    1    1    2    0    0 -0.38218038286E+01  0.10293211533E+02 -0.41988889814E+02  0.43400728749E+02  0.00000000000E+00 0. -1.
         11    1    3    3    0    0 -0.16930601946E+00 -0.16357557985E+01  0.46444382653E+00  0.17088211989E+01  0.51100000000E-03 0. -1.
        -11    1    3    3    0    0  0.80011130621E+01 -0.94859109276E+01  0.39702453019E+02  0.41596695690E+02  0.51100000000E-03 0.  1.
         12    1    3    3    0    0 -0.40100032140E+01  0.82845519311E+00  0.18219929682E+01  0.44817543618E+01  0.00000000000E+00 0. -1.
</event>
<event>
 7    1  0.2647566E-010  0.4778726E+02  0.7816164E-02  0.1312668E+00
        -11   -1    0    0    0    0  0.00000000000E+00  0.00000000000E+00  0.45593999997E+02  0.45594000000E+02  0.51100000000E-03 0.  1.
         11   -1    0    0    0    0 -0.00000000000E+00 -0.00000000000E+00 -0.45593999997E+02  0.45594000000E+02  0.51100000000E-03 0. -1.
    9900012    2    1    2    0    0 -0.21234363484E+02  0.19670696697E+02  0.32338667279E+02  0.47787263802E+02  0.19999966981E+02 0.  0.
         12    1    1    2    0    0  0.21234363484E+02 -0.19670696697E+02 -0.32338667279E+02  0.43400736198E+02  0.00000000000E+00 0. -1.
         11    1    3    3    0    0 -0.50096710728E+01  0.95130498727E+01  0.21041699507E+01  0.10955475963E+02  0.51100000000E-03 0.  1.
        -11    1    3    3    0    0  0.40243653222E+00  0.84530757232E+00 -0.16698988872E+00  0.95099208112E+00  0.51100000000E-03 0. -1.
        -12    1    3    3    0    0 -0.16627128944E+02  0.93123392521E+01  0.30401487217E+02  0.35880795758E+02  0.00000000000E+00 0.  1.
</event>
<event>
 7    1  0.2647566E-010  0.4778727E+02  0.7816164E-02  0.1312668E+00
        -11   -1    0    0    0    0  0.00000000000E+00  0.00000000000E+00  0.45593999997E+02  0.45594000000E+02  0.51100000000E-03 0. -1.
         11   -1    0    0    0    0 -0.00000000000E+00 -0.00000000000E+00 -0.45593999997E+02  0.45594000000E+02  0.51100000000E-03 0.  1.
    9900012    2    1    2    0    0  0.17288349194E+01  0.32662537960E+02 -0.28527066583E+02  0.47787265168E+02  0.19999973205E+02 0.  0.
         12    1    1    2    0    0 -0.17288349194E+01 -0.32662537960E+02  0.28527066583E+02  0.43400734832E+02  0.00000000000E+00 0. -1.
         11    1    3    3    0    0 -0.29897975612E+01  0.77049275434E+01 -0.10675130534E+02  0.13500489254E+02  0.51100000000E-03 0. -1.
        -11    1    3    3    0    0 -0.23170585216E-02  0.17911637194E+02 -0.18538179364E+02  0.25777719968E+02  0.51100000000E-03 0.  1.
         12    1    3    3    0    0  0.47209495391E+01  0.70459732226E+01  0.68624331572E+00  0.85090559460E+01  0.00000000000E+00 0. -1.
</event>
<event>
 7    1  0.2647566E-010  0.4778728E+02  0.7816164E-02  0.1312668E+00
        -11   -1    0    0    0    0  0.00000000000E+00  0.00000000000E+00  0.45593999997E+02  0.45594000000E+02  0.51100000000E-03 0. -1.
         11   -1    0    0    0    0 -0.00000000000E+00 -0.00000000000E+00 -0.45593999997E+02  0.45594000000E+02  0.51100000000E-03 0.  1.
    9900012    2    1    2    0    0 -0.40212250352E+01 -0.22314732027E+01 -0.43156379619E+02  0.47787276213E+02  0.20000023566E+02 0.  0.
         12    1    1    2    0    0  0.40212250352E+01  0.22314732027E+01  0.43156379619E+02  0.43400723787E+02  0.00000000000E+00 0. -1.
         11    1    3    3    0    0 -0.41717615385E+01  0.12381668488E+01 -0.23727051260E+02  0.24122802765E+02  0.51100000000E-03 0. -1.
        -11    1    3    3    0    0  0.19416611560E+00  0.43737411780E+01 -0.12333700685E+02  0.13087684487E+02  0.51100000000E-03 0.  1.
         12    1    3    3    0    0 -0.43629612357E-01 -0.78433812296E+01 -0.70956276735E+01  0.10576788961E+02  0.00000000000E+00 0. -1.
</event>
<event>
 7    1  0.2647566E-010  0.4778727E+02  0.7816164E-02  0.1312668E+00
        -11   -1    0    0    0    0  0.00000000000E+00  0.00000000000E+00  0.45593999997E+02  0.45594000000E+02  0.51100000000E-03 0.  1.
         11   -1    0    0    0    0 -0.00000000000E+00 -0.00000000000E+00 -0.45593999997E+02  0.45594000000E+02  0.51100000000E-03 0. -1.
    9900012    2    1    2    0    0 -0.20338685801E+01 -0.11428844218E+02  0.41819472967E+02  0.47787269352E+02  0.19999992282E+02 0.  0.
         12    1    1    2    0    0  0.20338685801E+01  0.11428844218E+02 -0.41819472967E+02  0.43400730648E+02  0.00000000000E+00 0. -1.
         11    1    3    3    0    0  0.66603187657E+00 -0.68985592272E+01  0.35946144485E+01  0.78073664680E+01  0.51100000000E-03 0. -1.
        -11    1    3    3    0    0 -0.13106413255E+01 -0.78389575603E+01  0.29348325039E+02  0.30405447195E+02  0.51100000000E-03 0.  1.
        -12    1    3    3    0    0 -0.13892591312E+01  0.33086725695E+01  0.88765334799E+01  0.95744556883E+01  0.00000000000E+00 0.  1.
</event>
<event>
 7    1  0.2647566E-010  0.4778729E+02  0.7816164E-02  0.1312668E+00
        -11   -1    0    0    0    0  0.00000000000E+00  0.00000000000E+00  0.45593999997E+02  0.45594000000E+02  0.51100000000E-03 0. -1.
         11   -1    0    0    0    0 -0.00000000000E+00 -0.00000000000E+00 -0.45593999997E+02  0.45594000000E+02  0.51100000000E-03 0.  1.
    9900012    2    1    2    0    0 -0.31746078230E+02 -0.26134129682E+02 -0.13885812181E+02  0.47787285753E+02  0.20000067064E+02 0.  0.
         12    1    1    2    0    0  0.31746078230E+02  0.26134129682E+02  0.13885812181E+02  0.43400714247E+02  0.00000000000E+00 0. -1.
         11    1    3    3    0    0 -0.20238618943E+02 -0.24027885781E+02 -0.12889327446E+02  0.33956969154E+02  0.51100000000E-03 0.  1.
        -11    1    3    3    0    0  0.38516123825E+00 -0.32841197977E+00 -0.17110360973E+01  0.17843341602E+01  0.51100000000E-03 0. -1.
         12    1    3    3    0    0 -0.11892620524E+02 -0.17778319211E+01  0.71455136224E+00  0.12045982439E+02  0.00000000000E+00 0. -1.
</event>
<event>
 7    1  0.2647566E-010  0.4778727E+02  0.7816164E-02  0.1312668E+00
        -11   -1    0    0    0    0  0.00000000000E+00  0.00000000000E+00  0.45593999997E+02  0.45594000000E+02  0.51100000000E-03 0. -1.
         11   -1    0    0    0    0 -0.00000000000E+00 -0.00000000000E+00 -0.45593999997E+02  0.45594000000E+02  0.51100000000E-03 0.  1.
    9900012    2    1    2    0    0  0.21272779603E+02 -0.11628831737E+01 -0.37811899950E+02  0.47787271583E+02  0.20000002457E+02 0.  0.
         12    1    1    2    0    0 -0.21272779603E+02  0.11628831737E+01  0.37811899950E+02  0.43400728417E+02  0.00000000000E+00 0. -1.
         11    1    3    3    0    0  0.76653897210E+00 -0.15810505142E+00 -0.54210061890E+00  0.95207801423E+00  0.51100000000E-03 0. -1.
        -11    1    3    3    0    0  0.24301753246E+02 -0.18918566189E+01 -0.33339581439E+02  0.41299903427E+02  0.51100000000E-03 0.  1.
         12    1    3    3    0    0 -0.37955126159E+01  0.88707849666E+00 -0.39302178918E+01  0.55352901418E+01  0.00000000000E+00 0. -1.
</event>
<event>
 7    1  0.2647566E-010  0.4778727E+02  0.7816164E-02  0.1312668E+00
        -11   -1    0    0    0    0  0.00000000000E+00  0.00000000000E+00  0.45593999997E+02  0.45594000000E+02  0.51100000000E-03 0.  1.
         11   -1    0    0    0    0 -0.00000000000E+00 -0.00000000000E+00 -0.45593999997E+02  0.45594000000E+02  0.51100000000E-03 0. -1.
    9900012    2    1    2    0    0  0.37655918275E+02 -0.41571474559E+01  0.21174823152E+02  0.47787271992E+02  0.20000004320E+02 0.  0.
         12    1    1    2    0    0 -0.37655918275E+02  0.41571474559E+01 -0.21174823152E+02  0.43400728008E+02  0.00000000000E+00 0. -1.
         11    1    3    3    0    0  0.11158776022E+02 -0.84385009988E+01  0.89148984488E+01  0.16589213243E+02  0.51100000000E-03 0.  1.
        -11    1    3    3    0    0 -0.31408663250E-01  0.14840559840E+01 -0.57929722533E+00  0.15934221676E+01  0.51100000000E-03 0. -1.
         12    1    3    3    0    0  0.26528550917E+02  0.27972975589E+01  0.12839221929E+02  0.29604636581E+02  0.00000000000E+00 0. -1.
</event>
<event>
 7    1  0.2647566E-010  0.4778727E+02  0.7816164E-02  0.1312668E+00
        -11   -1    0    0    0    0  0.00000000000E+00  0.00000000000E+00  0.45593999997E+02  0.45594000000E+02  0.51100000000E-03 0.  1.
         11   -1    0    0    0    0 -0.00000000000E+00 -0.00000000000E+00 -0.45593999997E+02  0.45594000000E+02  0.51100000000E-03 0. -1.
    9900012    2    1    2    0    0  0.28324493953E+02  0.97541339218E+01  0.31403876795E+02  0.47787267702E+02  0.19999984761E+02 0.  0.
         12    1    1    2    0    0 -0.28324493953E+02 -0.97541339218E+01 -0.31403876795E+02  0.43400732298E+02  0.00000000000E+00 0. -1.
         11    1    3    3    0    0 -0.10679945543E+01 -0.18045855010E-01 -0.72943384371E+00  0.12934496566E+01  0.51100000000E-03 0. -1.
        -11    1    3    3    0    0  0.13950557298E+02  0.25752870341E+01  0.62389116871E+01  0.15497553727E+02  0.51100000000E-03 0.  1.
        -12    1    3    3    0    0  0.15441931210E+02  0.71968927427E+01  0.25894398952E+02  0.30996264318E+02  0.00000000000E+00 0.  1.
</event>
<event>
 7    1  0.2647566E-010  0.4778727E+02  0.7816164E-02  0.1312668E+00
        -11   -1    0    0    0    0  0.00000000000E+00  0.00000000000E+00  0.45593999997E+02  0.45594000000E+02  0.51100000000E-03 0.  1.
         11   -1    0    0    0    0 -0.00000000000E+00 -0.00000000000E+00 -0.45593999997E+02  0.45594000000E+02  0.51100000000E-03 0. -1.
    9900012    2    1    2    0    0 -0.42177960368E+02 -0.35256950491E+01  0.96027555340E+01  0.47787265211E+02  0.19999973404E+02 0.  0.
         12    1    1    2    0    0  0.42177960368E+02  0.35256950491E+01 -0.96027555340E+01  0.43400734789E+02  0.00000000000E+00 0. -1.
         11    1    3    3    0    0 -0.85625364974E+01  0.37534951397E+01  0.36428243167E+01  0.10033739398E+02  0.51100000000E-03 0. -1.
        -11    1    3    3    0    0 -0.31139280294E+02 -0.23067072413E+01  0.72401591786E+01  0.32053012038E+02  0.51100000000E-03 0.  1.
         12    1    3    3    0    0 -0.24761435767E+01 -0.49724829476E+01 -0.12802279613E+01  0.57005137759E+01  0.00000000000E+00 0. -1.
</event>
<event>
 7    1  0.2647566E-010  0.4778727E+02  0.7816164E-02  0.1312668E+00
        -11   -1    0    0    0    0  0.00000000000E+00  0.00000000000E+00  0.45593999997E+02  0.45594000000E+02  0.51100000000E-03 0.  1.
         11   -1    0    0    0    0 -0.00000000000E+00 -0.00000000000E+00 -0.45593999997E+02  0.45594000000E+02  0.51100000000E-03 0. -1.
    9900012    2    1    2    0    0 -0.17300753734E+02  0.22519223731E-01  0.39803348901E+02  0.47787272234E+02  0.20000005423E+02 0.  0.
         12    1    1    2    0    0  0.17300753734E+02 -0.22519223731E-01 -0.39803348901E+02  0.43400727766E+02  0.00000000000E+00 0. -1.
         11    1    3    3    0    0 -0.64113743801E+01  0.37136132286E+01  0.20220504929E+02  0.21535214521E+02  0.51100000000E-03 0. -1.
        -11    1    3    3    0    0 -0.12213283628E+02 -0.41399747381E+01  0.20750063756E+02  0.24430899163E+02  0.51100000000E-03 0.  1.
         12    1    3    3    0    0  0.13239042739E+01  0.44888073319E+00 -0.11672197832E+01  0.18211585492E+01  0.00000000000E+00 0. -1.
</event>
<event>
 7    1  0.2647566E-010  0.4778727E+02  0.7816164E-02  0.1312668E+00
        -11   -1    0    0    0    0  0.00000000000E+00  0.00000000000E+00  0.45593999997E+02  0.45594000000E+02  0.51100000000E-03 0.  1.
         11   -1    0    0    0    0 -0.00000000000E+00 -0.00000000000E+00 -0.45593999997E+02  0.45594000000E+02  0.51100000000E-03 0. -1.
    9900012    2    1    2    0    0  0.13057047140E+02 -0.41316741288E+02  0.24624229481E+01  0.47787272846E+02  0.20000008215E+02 0.  0.
         12    1    1    2    0    0 -0.13057047140E+02  0.41316741288E+02 -0.24624229481E+01  0.43400727154E+02  0.00000000000E+00 0. -1.
         11    1    3    3    0    0  0.36685974057E+01 -0.25226902900E+01  0.47664900234E+01  0.65224229109E+01  0.51100000000E-03 0.  1.
        -11    1    3    3    0    0  0.23608767264E+01 -0.59909978913E+01 -0.41598588538E+01  0.76661737911E+01  0.51100000000E-03 0. -1.
         12    1    3    3    0    0  0.70275730079E+01 -0.32803053107E+02  0.18557917784E+01  0.33598676144E+02  0.00000000000E+00 0. -1.
</event>
<event>
 7    1  0.2647566E-010  0.4778727E+02  0.7816164E-02  0.1312668E+00
        -11   -1    0    0    0    0  0.00000000000E+00  0.00000000000E+00  0.45593999997E+02  0.45594000000E+02  0.51100000000E-03 0.  1.
         11   -1    0    0    0    0 -0.00000000000E+00 -0.00000000000E+00 -0.45593999997E+02  0.45594000000E+02  0.51100000000E-03 0. -1.
    9900012    2    1    2    0    0  0.27868709492E+01 -0.35575898655E+02  0.24702465768E+02  0.47787273856E+02  0.20000012819E+02 0.  0.
         12    1    1    2    0    0 -0.27868709492E+01  0.35575898655E+02 -0.24702465768E+02  0.43400726144E+02  0.00000000000E+00 0. -1.
         11    1    3    3    0    0 -0.27679212471E+01 -0.18246069726E+01  0.86870239946E+01  0.92981161951E+01  0.51100000000E-03 0. -1.
        -11    1    3    3    0    0 -0.17923190281E+01 -0.72285601758E+01  0.40699537425E+01  0.84869908354E+01  0.51100000000E-03 0.  1.
        -12    1    3    3    0    0  0.73471112244E+01 -0.26522731507E+02  0.11945488031E+02  0.30002166825E+02  0.00000000000E+00 0.  1.
</event>
<event>
 7    1  0.2647566E-010  0.4778727E+02  0.7816164E-02  0.1312668E+00
        -11   -1    0    0    0    0  0.00000000000E+00  0.00000000000E+00  0.45593999997E+02  0.45594000000E+02  0.51100000000E-03 0. -1.
         11   -1    0    0    0    0 -0.00000000000E+00 -0.00000000000E+00 -0.45593999997E+02  0.45594000000E+02  0.51100000000E-03 0.  1.
    9900012    2    1    2    0    0 -0.47947939731E+01 -0.42989708462E+02 -0.35381745200E+01  0.47787265423E+02  0.19999974370E+02 0.  0.
         12    1    1    2    0    0  0.47947939731E+01  0.42989708462E+02  0.35381745200E+01  0.43400734577E+02  0.00000000000E+00 0. -1.
         11    1    3    3    0    0 -0.15362435553E+01 -0.10808650169E+02 -0.33749811040E+01  0.11427049508E+02  0.51100000000E-03 0.  1.
        -11    1    3    3    0    0 -0.57316151753E+00  0.11620662492E+01 -0.25122875034E+01  0.28267473982E+01  0.51100000000E-03 0. -1.
         12    1    3    3    0    0 -0.26853889002E+01 -0.33343124542E+02  0.23490940873E+01  0.33533468517E+02  0.00000000000E+00 0. -1.
</event>
<event>
 7    1  0.2647566E-010  0.4778728E+02  0.7816164E-02  0.1312668E+00
        -11   -1    0    0    0    0  0.00000000000E+00  0.00000000000E+00  0.45593999997E+02  0.45594000000E+02  0.51100000000E-03 0.  1.
         11   -1    0    0    0    0 -0.00000000000E+00 -0.00000000000E+00 -0.45593999997E+02  0.45594000000E+02  0.51100000000E-03 0. -1.
    9900012    2    1    2    0    0  0.36642650439E+02  0.61013829258E+01  0.22443531625E+02  0.47787276313E+02  0.20000024019E+02 0.  0.
         12    1    1    2    0    0 -0.36642650439E+02 -0.61013829258E+01 -0.22443531625E+02  0.43400723687E+02  0.00000000000E+00 0. -1.
         11    1    3    3    0    0  0.19932285655E+02  0.34284548069E+00  0.73920119234E+01  0.21261594366E+02  0.51100000000E-03 0. -1.
        -11    1    3    3    0    0  0.18373134391E+02  0.60322402183E+01  0.15498433635E+02  0.24782280662E+02  0.51100000000E-03 0.  1.
         12    1    3    3    0    0 -0.16627696075E+01 -0.27370277314E+00 -0.44691393283E+00  0.17434012845E+01  0.00000000000E+00 0. -1.
</event>
<event>
 7    1  0.2647566E-010  0.4778730E+02  0.7816164E-02  0.1312668E+00
        -11   -1    0    0    0    0  0.00000000000E+00  0.00000000000E+00  0.45593999997E+02  0.45594000000E+02  0.51100000000E-03 0.  1.
         11   -1    0    0    0    0 -0.00000000000E+00 -0.00000000000E+00 -0.45593999997E+02  0.45594000000E+02  0.51100000000E-03 0. -1.
    9900012    2    1    2    0    0 -0.15808995189E+02 -0.25416540692E+01  0.40339019334E+02  0.47787299370E+02  0.20000129149E+02 0.  0.
         12    1    1    2    0    0  0.15808995189E+02  0.25416540692E+01 -0.40339019334E+02  0.43400700630E+02  0.00000000000E+00 0. -1.
         11    1    3    3    0    0 -0.29992346310E+01 -0.13097309920E+01  0.45694377943E-01  0.32730554350E+01  0.51100000000E-03 0. -1.
        -11    1    3    3    0    0 -0.46899165700E+00  0.26687588506E+01  0.61521196441E+00  0.27786171019E+01  0.51100000000E-03 0.  1.
         12    1    3    3    0    0 -0.12340768901E+02 -0.39006819277E+01  0.39678112992E+02  0.41735626833E+02  0.00000000000E+00 0. -1.
</event>
<event>
 7    1  0.2647566E-010  0.4778725E+02  0.7816164E-02  0.1312668E+00
        -11   -1    0    0    0    0  0.00000000000E+00  0.00000000000E+00  0.45593999997E+02  0.45594000000E+02  0.51100000000E-03 0.  1.
         11   -1    0    0    0    0 -0.00000000000E+00 -0.00000000000E+00 -0.45593999997E+02  0.45594000000E+02  0.51100000000E-03 0. -1.
    9900012    2    1    2    0    0  0.35319131711E+02 -0.24097576954E+02 -0.74491883826E+01  0.47787254760E+02  0.19999925750E+02 0.  0.
         12    1    1    2    0    0 -0.35319131711E+02  0.24097576954E+02  0.74491883826E+01  0.43400745240E+02  0.00000000000E+00 0. -1.
         11    1    3    3    0    0  0.13489970086E+02 -0.71453212311E+01 -0.24154281838E+01  0.15455393945E+02  0.51100000000E-03 0. -1.
        -11    1    3    3    0    0  0.11335104868E+02 -0.18118212323E+02 -0.36909835227E+01  0.21688189868E+02  0.51100000000E-03 0.  1.
         12    1    3    3    0    0  0.10494056757E+02  0.11659565997E+01 -0.13427766761E+01  0.10643670946E+02  0.00000000000E+00 0. -1.
</event>
<event>
 7    1  0.2647566E-010  0.4778727E+02  0.7816164E-02  0.1312668E+00
        -11   -1    0    0    0    0  0.00000000000E+00  0.00000000000E+00  0.45593999997E+02  0.45594000000E+02  0.51100000000E-03 0.  1.
         11   -1    0    0    0    0 -0.00000000000E+00 -0.00000000000E+00 -0.45593999997E+02  0.45594000000E+02  0.51100000000E-03 0. -1.
    9900012    2    1    2    0    0 -0.50188867791E+01  0.43050665242E+02 -0.22526609117E+01  0.47787268630E+02  0.19999988991E+02 0.  0.
         12    1    1    2    0    0  0.50188867791E+01 -0.43050665242E+02  0.22526609117E+01  0.43400731370E+02  0.00000000000E+00 0. -1.
         11    1    3    3    0    0 -0.87621145059E+01  0.11903230143E+02  0.19957312318E+01  0.14914572802E+02  0.51100000000E-03 0. -1.
        -11    1    3    3    0    0  0.17716152244E+01  0.29613758126E+01 -0.30287045271E+01  0.45914505966E+01  0.51100000000E-03 0.  1.
        -12    1    3    3    0    0  0.19716125024E+01  0.28186059286E+02 -0.12196876163E+01  0.28281245231E+02  0.00000000000E+00 0.  1.
</event>
<event>
 7    1  0.2647566E-010  0.4778728E+02  0.7816164E-02  0.1312668E+00
        -11   -1    0    0    0    0  0.00000000000E+00  0.00000000000E+00  0.45593999997E+02  0.45594000000E+02  0.51100000000E-03 0.  1.
         11   -1    0    0    0    0 -0.00000000000E+00 -0.00000000000E+00 -0.45593999997E+02  0.45594000000E+02  0.51100000000E-03 0. -1.
    9900012    2    1    2    0    0 -0.35573131932E+02  0.24345872964E+02  0.50451496552E+01  0.47787276724E+02  0.20000025896E+02 0.  0.
         12    1    1    2    0    0  0.35573131932E+02 -0.24345872964E+02 -0.50451496552E+01  0.43400723276E+02  0.00000000000E+00 0. -1.
         11    1    3    3    0    0  0.16653468761E+01  0.32040382478E+00  0.20280511382E+01  0.26436774593E+01  0.51100000000E-03 0. -1.
        -11    1    3    3    0    0 -0.10614020970E+02  0.81544679603E+01  0.44758215043E+01  0.14113318790E+02  0.51100000000E-03 0.  1.
        -12    1    3    3    0    0 -0.26624457838E+02  0.15871001179E+02 -0.14587229872E+01  0.31030280475E+02  0.00000000000E+00 0.  1.
</event>
<event>
 7    1  0.2647566E-010  0.4778727E+02  0.7816164E-02  0.1312668E+00
        -11   -1    0    0    0    0  0.00000000000E+00  0.00000000000E+00  0.45593999997E+02  0.45594000000E+02  0.51100000000E-03 0.  1.
         11   -1    0    0    0    0 -0.00000000000E+00 -0.00000000000E+00 -0.45593999997E+02  0.45594000000E+02  0.51100000000E-03 0. -1.
    9900012    2    1    2    0    0 -0.24273929803E+01  0.11906012917E+01  0.43316435061E+02  0.47787270577E+02  0.19999997867E+02 0.  0.
         12    1    1    2    0    0  0.24273929803E+01 -0.11906012917E+01 -0.43316435061E+02  0.43400729423E+02  0.00000000000E+00 0. -1.
         11    1    3    3    0    0 -0.90218769191E-01 -0.80361049845E+01  0.11586245120E+02  0.14100645340E+02  0.51100000000E-03 0.  1.
        -11    1    3    3    0    0 -0.24535736253E+01  0.13119892110E+01  0.13939539057E+02  0.14214502756E+02  0.51100000000E-03 0. -1.
         12    1    3    3    0    0  0.11639941415E+00  0.79147170651E+01  0.17790650884E+02  0.19472122481E+02  0.00000000000E+00 0. -1.
</event>
<event>
 7    1  0.2647566E-010  0.4778727E+02  0.7816164E-02  0.1312668E+00
        -11   -1    0    0    0    0  0.00000000000E+00  0.00000000000E+00  0.45593999997E+02  0.45594000000E+02  0.51100000000E-03 0.  1.
         11   -1    0    0    0    0 -0.00000000000E+00 -0.00000000000E+00 -0.45593999997E+02  0.45594000000E+02  0.51100000000E-03 0. -1.
    9900012    2    1    2    0    0  0.38660883502E+01 -0.10878808069E+02  0.41836926698E+02  0.47787267982E+02  0.19999986038E+02 0.  0.
         12    1    1    2    0    0 -0.38660883502E+01  0.10878808069E+02 -0.41836926698E+02  0.43400732018E+02  0.00000000000E+00 0. -1.
         11    1    3    3    0    0  0.11954822163E+01 -0.25036720461E+01  0.17235259069E+02  0.17457139138E+02  0.51100000000E-03 0. -1.
        -11    1    3    3    0    0 -0.35880741209E+01  0.18669650059E+01  0.13084197099E+02  0.13695110376E+02  0.51100000000E-03 0.  1.
         12    1    3    3    0    0  0.62586802548E+01 -0.10242101029E+02  0.11517470530E+02  0.16635018468E+02  0.00000000000E+00 0. -1.
</event>
<event>
 7    1  0.2647566E-010  0.4778727E+02  0.7816164E-02  0.1312668E+00
        -11   -1    0    0    0    0  0.00000000000E+00  0.00000000000E+00  0.45593999997E+02  0.45594000000E+02  0.51100000000E-03 0.  1.
         11   -1    0    0    0    0 -0.00000000000E+00 -0.00000000000E+00 -0.45593999997E+02  0.45594000000E+02  0.51100000000E-03 0. -1.
    9900012    2    1    2    0    0  0.21002367200E+02  0.23270668049E+02  0.30016654996E+02  0.47787274239E+02  0.20000014565E+02 0.  0.
         12    1    1    2    0    0 -0.21002367200E+02 -0.23270668049E+02 -0.30016654996E+02  0.43400725761E+02  0.00000000000E+00 0. -1.
         11    1    3    3    0    0  0.35102929933E+01  0.41117083697E+00  0.26307691164E+01  0.44059238260E+01  0.51100000000E-03 0. -1.
        -11    1    3    3    0    0  0.10385015778E+02  0.21975340633E+02  0.26823328362E+02  0.36197445951E+02  0.51100000000E-03 0.  1.
        -12    1    3    3    0    0  0.71070584286E+01  0.88415657903E+00  0.56255751714E+00  0.71839044623E+01  0.00000000000E+00 0.  1.
</event>
<event>
 7    1  0.2647566E-010  0.4778727E+02  0.7816164E-02  0.1312668E+00
        -11   -1    0    0    0    0  0.00000000000E+00  0.00000000000E+00  0.45593999997E+02  0.45594000000E+02  0.51100000000E-03 0. -1.
         11   -1    0    0    0    0 -0.00000000000E+00 -0.00000000000E+00 -0.45593999997E+02  0.45594000000E+02  0.51100000000E-03 0.  1.
    9900012    2    1    2    0    0  0.44447610713E+00  0.40729339764E+02 -0.14984875617E+02  0.47787272196E+02  0.20000005252E+02 0.  0.
         12    1    1    2    0    0 -0.44447610713E+00 -0.40729339764E+02  0.14984875617E+02  0.43400727804E+02  0.00000000000E+00 0. -1.
         11    1    3    3    0    0  0.46223421704E+01  0.17655175409E+02 -0.11288024859E+02  0.21459048705E+02  0.51100000000E-03 0. -1.
        -11    1    3    3    0    0 -0.17648166146E+01  0.27337153661E+00 -0.28760553931E+01  0.33854105461E+01  0.51100000000E-03 0.  1.
         12    1    3    3    0    0 -0.24130494486E+01  0.22800792819E+02 -0.82079536463E+00  0.22942812945E+02  0.00000000000E+00 0. -1.
</event>
<event>
 7    1  0.2647566E-010  0.4778727E+02  0.7816164E-02  0.1312668E+00
        -11   -1    0    0    0    0  0.00000000000E+00  0.00000000000E+00  0.45593999997E+02  0.45594000000E+02  0.51100000000E-03 0. -1.
         11   -1    0    0    0    0 -0.00000000000E+00 -0.00000000000E+00 -0.45593999997E+02  0.45594000000E+02  0.51100000000E-03 0.  1.
    9900012    2    1    2    0    0  0.38535377949E+02 -0.11788710877E+02 -0.16114402610E+02  0.47787273862E+02  0.20000012846E+02 0.  0.
         12    1    1    2    0    0 -0.38535377949E+02  0.11788710877E+02  0.16114402610E+02  0.43400726138E+02  0.00000000000E+00 0. -1.
         11    1    3    3    0    0 -0.16849447949E-01 -0.39222869940E+01  0.42880920706E+00  0.39456934453E+01  0.51100000000E-03 0. -1.
        -11    1    3    3    0    0  0.68919202014E+01  0.17469964243E+01 -0.53994305495E+01  0.89277326959E+01  0.51100000000E-03 0.  1.
         12    1    3    3    0    0  0.31660307196E+02 -0.96134203075E+01 -0.11143781268E+02  0.34913847721E+02  0.00000000000E+00 0. -1.
</event>
<event>
 7    1  0.2647566E-010  0.4778727E+02  0.7816164E-02  0.1312668E+00
        -11   -1    0    0    0    0  0.00000000000E+00  0.00000000000E+00  0.45593999997E+02  0.45594000000E+02  0.51100000000E-03 0.  1.
         11   -1    0    0    0    0 -0.00000000000E+00 -0.00000000000E+00 -0.45593999997E+02  0.45594000000E+02  0.51100000000E-03 0. -1.
    9900012    2    1    2    0    0  0.16616535161E+02  0.22900592076E+02  0.32910134028E+02  0.47787270975E+02  0.19999999683E+02 0.  0.
         12    1    1    2    0    0 -0.16616535161E+02 -0.22900592076E+02 -0.32910134028E+02  0.43400729025E+02  0.00000000000E+00 0. -1.
         11    1    3    3    0    0  0.59741218465E+01  0.14796063413E+02  0.21995696816E+02  0.27173963698E+02  0.51100000000E-03 0. -1.
        -11    1    3    3    0    0  0.11204941581E+02  0.10177556325E+02  0.10508719818E+02  0.18427331903E+02  0.51100000000E-03 0.  1.
         12    1    3    3    0    0 -0.56252826646E+00 -0.20730276614E+01  0.40571739320E+00  0.21859753747E+01  0.00000000000E+00 0. -1.
</event>
<event>
 7    1  0.2647566E-010  0.4778727E+02  0.7816164E-02  0.1312668E+00
        -11   -1    0    0    0    0  0.00000000000E+00  0.00000000000E+00  0.45593999997E+02  0.45594000000E+02  0.51100000000E-03 0.  1.
         11   -1    0    0    0    0 -0.00000000000E+00 -0.00000000000E+00 -0.45593999997E+02  0.45594000000E+02  0.51100000000E-03 0. -1.
    9900012    2    1    2    0    0  0.19477404949E+02 -0.38783744358E+02 -0.27439419699E+00  0.47787269336E+02  0.19999992211E+02 0.  0.
         12    1    1    2    0    0 -0.19477404949E+02  0.38783744358E+02  0.27439419699E+00  0.43400730664E+02  0.00000000000E+00 0. -1.
         11    1    3    3    0    0  0.62995471039E+01 -0.96093812455E+01  0.19918518857E+01  0.11661559751E+02  0.51100000000E-03 0. -1.
        -11    1    3    3    0    0  0.14857134141E+02 -0.28059981582E+02  0.15731506755E+01  0.31789492046E+02  0.51100000000E-03 0.  1.
         12    1    3    3    0    0 -0.16792762959E+01 -0.11143815307E+01 -0.38393967582E+01  0.43362175385E+01  0.00000000000E+00 0. -1.
</event>
<event>
 7    1  0.2647566E-010  0.4778727E+02  0.7816164E-02  0.1312668E+00
        -11   -1    0    0    0    0  0.00000000000E+00  0.00000000000E+00  0.45593999997E+02  0.45594000000E+02  0.51100000000E-03 0. -1.
         11   -1    0    0    0    0 -0.00000000000E+00 -0.00000000000E+00 -0.45593999997E+02  0.45594000000E+02  0.51100000000E-03 0.  1.
    9900012    2    1    2    0    0 -0.16650304144E+02  0.23982382083E+02 -0.32112862509E+02  0.47787271700E+02  0.20000002987E+02 0.  0.
         12    1    1    2    0    0  0.16650304144E+02 -0.23982382083E+02  0.32112862509E+02  0.43400728300E+02  0.00000000000E+00 0. -1.
         11    1    3    3    0    0 -0.14670970981E+02  0.13364242883E+02 -0.20017748454E+02  0.28187774491E+02  0.51100000000E-03 0. -1.
        -11    1    3    3    0    0 -0.34348429728E+01  0.12356569681E+02 -0.11568723542E+02  0.17271894082E+02  0.51100000000E-03 0.  1.
        -12    1    3    3    0    0  0.14555098092E+01 -0.17384304810E+01 -0.52639051329E+00  0.23276031264E+01  0.00000000000E+00 0.  1.
</event>
<event>
 7    1  0.2647566E-010  0.4778727E+02  0.7816164E-02  0.1312668E+00
        -11   -1    0    0    0    0  0.00000000000E+00  0.00000000000E+00  0.45593999997E+02  0.45594000000E+02  0.51100000000E-03 0.  1.
         11   -1    0    0    0    0 -0.00000000000E+00 -0.00000000000E+00 -0.45593999997E+02  0.45594000000E+02  0.51100000000E-03 0. -1.
    9900012    2    1    2    0    0 -0.22744211075E+02 -0.13311694449E+02  0.34483662872E+02  0.47787270149E+02  0.19999995916E+02 0.  0.
         12    1    1    2    0    0  0.22744211075E+02  0.13311694449E+02 -0.34483662872E+02  0.43400729851E+02  0.00000000000E+00 0. -1.
         11    1    3    3    0    0 -0.19652466965E+01 -0.63459990916E+01  0.69366335137E+01  0.96047271597E+01  0.51100000000E-03 0.  1.
        -11    1    3    3    0    0 -0.14867059185E+01  0.14205482633E+00 -0.18070839331E+01  0.23443606088E+01  0.51100000000E-03 0. -1.
        -12    1    3    3    0    0 -0.19292258460E+02 -0.71077501842E+01  0.29354113292E+02  0.35838182380E+02  0.00000000000E+00 0.  1.
</event>
<event>
 7    1  0.2647566E-010  0.4778727E+02  0.7816164E-02  0.1312668E+00
        -11   -1    0    0    0    0  0.00000000000E+00  0.00000000000E+00  0.45593999997E+02  0.45594000000E+02  0.51100000000E-03 0.  1.
         11   -1    0    0    0    0 -0.00000000000E+00 -0.00000000000E+00 -0.45593999997E+02  0.45594000000E+02  0.51100000000E-03 0. -1.
    9900012    2    1    2    0    0 -0.32681675845E+02  0.23440823815E+02  0.16311308913E+02  0.47787274711E+02  0.20000016717E+02 0.  0.
         12    1    1    2    0    0  0.32681675845E+02 -0.23440823815E+02 -0.16311308913E+02  0.43400725289E+02  0.00000000000E+00 0. -1.
         11    1    3    3    0    0 -0.73181787577E+01  0.74329565047E+01  0.31778800681E+01  0.10904288364E+02  0.51100000000E-03 0. -1.
        -11    1    3    3    0    0 -0.20907773921E+02  0.35243277352E+01  0.84631373066E+01  0.22829379966E+02  0.51100000000E-03 0.  1.
        -12    1    3    3    0    0 -0.44557231665E+01  0.12483539575E+02  0.46702915381E+01  0.14053606381E+02  0.00000000000E+00 0.  1.
</event>
<event>
 7    1  0.2647566E-010  0.4778728E+02  0.7816164E-02  0.1312668E+00
        -11   -1    0    0    0    0  0.00000000000E+00  0.00000000000E+00  0.45593999997E+02  0.45594000000E+02  0.51100000000E-03 0. -1.
         11   -1    0    0    0    0 -0.00000000000E+00 -0.00000000000E+00 -0.45593999997E+02  0.45594000000E+02  0.51100000000E-03 0.  1.
    9900012    2    1    2    0    0 -0.38494455644E+02 -0.19273469537E+02  0.55074817986E+01  0.47787284578E+02  0.20000061705E+02 0.  0.
         12    1    1    2    0    0  0.38494455644E+02  0.19273469537E+02 -0.55074817986E+01  0.43400715422E+02  0.00000000000E+00 0. -1.
         11    1    3    3    0    0 -0.77957836702E+01 -0.49943514982E+01  0.72302151228E+01  0.11747076270E+02  0.51100000000E-03 0. -1.
        -11    1    3    3    0    0  0.10986242837E+01 -0.16327290518E+00 -0.52842653136E+00  0.12299870806E+01  0.51100000000E-03 0.  1.
        -12    1    3    3    0    0 -0.31797296258E+02 -0.14115845134E+02 -0.11943067928E+01  0.34810221227E+02  0.00000000000E+00 0.  1.
</event>
<event>
 7    1  0.2647566E-010  0.4778727E+02  0.7816164E-02  0.1312668E+00
        -11   -1    0    0    0    0  0.00000000000E+00  0.00000000000E+00  0.45593999997E+02  0.45594000000E+02  0.51100000000E-03 0. -1.
         11   -1    0    0    0    0 -0.00000000000E+00 -0.00000000000E+00 -0.45593999997E+02  0.45594000000E+02  0.51100000000E-03 0.  1.
    9900012    2    1    2    0    0  0.35069931728E+02 -0.25237470418E+02  0.40980061242E+01  0.47787266380E+02  0.19999978735E+02 0.  0.
         12    1    1    2    0    0 -0.35069931728E+02  0.25237470418E+02 -0.40980061242E+01  0.43400733620E+02  0.00000000000E+00 0. -1.
         11    1    3    3    0    0  0.72808450906E+01 -0.49858659163E+01 -0.25842634390E+01  0.91949976592E+01  0.51100000000E-03 0. -1.
        -11    1    3    3    0    0  0.12878880001E+02 -0.52423002181E+01 -0.45610148917E+01  0.14633868893E+02  0.51100000000E-03 0.  1.
         12    1    3    3    0    0  0.14910206636E+02 -0.15009304284E+02  0.11243284455E+02  0.23958399829E+02  0.00000000000E+00 0. -1.
</event>
<event>
 7    1  0.2647566E-010  0.4778727E+02  0.7816164E-02  0.1312668E+00
        -11   -1    0    0    0    0  0.00000000000E+00  0.00000000000E+00  0.45593999997E+02  0.45594000000E+02  0.51100000000E-03 0. -1.
         11   -1    0    0    0    0 -0.00000000000E+00 -0.00000000000E+00 -0.45593999997E+02  0.45594000000E+02  0.51100000000E-03 0.  1.
    9900012    2    1    2    0    0 -0.34458349093E+02  0.25552387919E+02 -0.65818623831E+01  0.47787271170E+02  0.20000000573E+02 0.  0.
         12    1    1    2    0    0  0.34458349093E+02 -0.25552387919E+02  0.65818623831E+01  0.43400728830E+02  0.00000000000E+00 0. -1.
         11    1    3    3    0    0 -0.97940089773E+01 -0.20064613124E+01 -0.82194349185E+00  0.10031155976E+02  0.51100000000E-03 0. -1.
        -11    1    3    3    0    0 -0.73553934250E+01  0.54934059409E+01 -0.25548619829E+01  0.95292518741E+01  0.51100000000E-03 0.  1.
         12    1    3    3    0    0 -0.17308946690E+02  0.22065443290E+02 -0.32050569084E+01  0.28226863320E+02  0.00000000000E+00 0. -1.
</event>
<event>
 7    1  0.2647566E-010  0.4778727E+02  0.7816164E-02  0.1312668E+00
        -11   -1    0    0    0    0  0.00000000000E+00  0.00000000000E+00  0.45593999997E+02  0.45594000000E+02  0.51100000000E-03 0.  1.
         11   -1    0    0    0    0 -0.00000000000E+00 -0.00000000000E+00 -0.45593999997E+02  0.45594000000E+02  0.51100000000E-03 0. -1.
    9900012    2    1    2    0    0 -0.23525566981E+02  0.30450199430E+02  0.20073770551E+02  0.47787271766E+02  0.20000003290E+02 0.  0.
         12    1    1    2    0    0  0.23525566981E+02 -0.30450199430E+02 -0.20073770551E+02  0.43400728234E+02  0.00000000000E+00 0. -1.
         11    1    3    3    0    0 -0.58502617934E+01  0.11903068739E+02  0.23925806506E+01  0.13477130662E+02  0.51100000000E-03 0.  1.
        -11    1    3    3    0    0 -0.17042234826E+02  0.20158098820E+02  0.18655762449E+02  0.32323740327E+02  0.51100000000E-03 0. -1.
         12    1    3    3    0    0 -0.63307036222E+00 -0.16109681285E+01 -0.97457254909E+00  0.19864007773E+01  0.00000000000E+00 0. -1.
</event>
<event>
 7    1  0.2647566E-010  0.4778727E+02  0.7816164E-02  0.1312668E+00
        -11   -1    0    0    0    0  0.00000000000E+00  0.00000000000E+00  0.45593999997E+02  0.45594000000E+02  0.51100000000E-03 0.  1.
         11   -1    0    0    0    0 -0.00000000000E+00 -0.00000000000E+00 -0.45593999997E+02  0.45594000000E+02  0.51100000000E-03 0. -1.
    9900012    2    1    2    0    0 -0.18849508112E+02  0.38574731214E+00  0.39091820645E+02  0.47787271914E+02  0.20000003967E+02 0.  0.
         12    1    1    2    0    0  0.18849508112E+02 -0.38574731214E+00 -0.39091820645E+02  0.43400728086E+02  0.00000000000E+00 0. -1.
         11    1    3    3    0    0  0.53034605048E+00 -0.12222055604E+01  0.32357345514E+00  0.13710409940E+01  0.51100000000E-03 0. -1.
        -11    1    3    3    0    0 -0.11218744016E+02 -0.65162946455E+00  0.63445722269E+01  0.12904977150E+02  0.51100000000E-03 0.  1.
        -12    1    3    3    0    0 -0.81611101465E+01  0.22595823371E+01  0.32423674963E+02  0.33511253770E+02  0.00000000000E+00 0.  1.
</event>
<event>
 7    1  0.2647566E-010  0.4778727E+02  0.7816164E-02  0.1312668E+00
        -11   -1    0    0    0    0  0.00000000000E+00  0.00000000000E+00  0.45593999997E+02  0.45594000000E+02  0.51100000000E-03 0. -1.
         11   -1    0    0    0    0 -0.00000000000E+00 -0.00000000000E+00 -0.45593999997E+02  0.45594000000E+02  0.51100000000E-03 0.  1.
    9900012    2    1    2    0    0  0.42585648250E+02 -0.94110965231E+00  0.83186867013E+01  0.47787266450E+02  0.19999979053E+02 0.  0.
         12    1    1    2    0    0 -0.42585648250E+02  0.94110965231E+00 -0.83186867013E+01  0.43400733550E+02  0.00000000000E+00 0. -1.
         11    1    3    3    0    0 -0.77762089286E+00  0.10529699383E+01 -0.21089952814E+01  0.24821968701E+01  0.51100000000E-03 0. -1.
        -11    1    3    3    0    0 -0.14963756701E+00 -0.52201575933E+00  0.35628446927E-01  0.54420722322E+00  0.51100000000E-03 0.  1.
        -12    1    3    3    0    0  0.43512906710E+02 -0.14720638313E+01  0.10392053536E+02  0.44760862357E+02  0.00000000000E+00 0.  1.
</event>
<event>
 7    1  0.2647566E-010  0.4778727E+02  0.7816164E-02  0.1312668E+00
        -11   -1    0    0    0    0  0.00000000000E+00  0.00000000000E+00  0.45593999997E+02  0.45594000000E+02  0.51100000000E-03 0. -1.
         11   -1    0    0    0    0 -0.00000000000E+00 -0.00000000000E+00 -0.45593999997E+02  0.45594000000E+02  0.51100000000E-03 0.  1.
    9900012    2    1    2    0    0 -0.38851617995E+02 -0.16539215701E+02 -0.10031418952E+02  0.47787271400E+02  0.20000001619E+02 0.  0.
         12    1    1    2    0    0  0.38851617995E+02  0.16539215701E+02  0.10031418952E+02  0.43400728600E+02  0.00000000000E+00 0. -1.
         11    1    3    3    0    0 -0.82624588079E+01  0.53360632378E+00  0.98652647591E+00  0.83382369845E+01  0.51100000000E-03 0. -1.
        -11    1    3    3    0    0 -0.15612142726E+02 -0.73652461992E+00 -0.32453101233E+01  0.15962879034E+02  0.51100000000E-03 0.  1.
        -12    1    3    3    0    0 -0.14977016462E+02 -0.16336297405E+02 -0.77726353045E+01  0.23486155381E+02  0.00000000000E+00 0.  1.
</event>
<event>
 7    1  0.2647566E-010  0.4778727E+02  0.7816164E-02  0.1312668E+00
        -11   -1    0    0    0    0  0.00000000000E+00  0.00000000000E+00  0.45593999997E+02  0.45594000000E+02  0.51100000000E-03 0.  1.
         11   -1    0    0    0    0 -0.00000000000E+00 -0.00000000000E+00 -0.45593999997E+02  0.45594000000E+02  0.51100000000E-03 0. -1.
    9900012    2    1    2    0    0 -0.76365688918E+01  0.22772640795E+02  0.36148485673E+02  0.47787269941E+02  0.19999994970E+02 0.  0.
         12    1    1    2    0    0  0.76365688918E+01 -0.22772640795E+02 -0.36148485673E+02  0.43400730059E+02  0.00000000000E+00 0. -1.
         11    1    3    3    0    0 -0.36015489862E+01  0.11189132424E+02  0.12380789386E+02  0.17071959044E+02  0.51100000000E-03 0.  1.
        -11    1    3    3    0    0 -0.79545739859E+01  0.10618656814E+02  0.10719259412E+02  0.17056777023E+02  0.51100000000E-03 0. -1.
         12    1    3    3    0    0  0.39195540803E+01  0.96485155699E+00  0.13048436875E+02  0.13658533874E+02  0.00000000000E+00 0. -1.
</event>
<event>
 7    1  0.2647566E-010  0.4778727E+02  0.7816164E-02  0.1312668E+00
        -11   -1    0    0    0    0  0.00000000000E+00  0.00000000000E+00  0.45593999997E+02  0.45594000000E+02  0.51100000000E-03 0.  1.
         11   -1    0    0    0    0 -0.00000000000E+00 -0.00000000000E+00 -0.45593999997E+02  0.45594000000E+02  0.51100000000E-03 0. -1.
    9900012    2    1    2    0    0  0.22783045435E+02 -0.33099250385E+02  0.16401084314E+02  0.47787273024E+02  0.20000009028E+02 0.  0.
         12    1    1    2    0    0 -0.22783045435E+02  0.33099250385E+02 -0.16401084314E+02  0.43400726976E+02  0.00000000000E+00 0. -1.
         11    1    3    3    0    0  0.61697658745E+01 -0.11372687702E+02  0.12410854634E+02  0.17928562394E+02  0.51100000000E-03 0. -1.
        -11    1    3    3    0    0  0.14195057927E+02 -0.11098843748E+02  0.55361004347E+01  0.18850262873E+02  0.51100000000E-03 0.  1.
         12    1    3    3    0    0  0.24182216331E+01 -0.10627718936E+02 -0.15458707549E+01  0.11008447758E+02  0.00000000000E+00 0. -1.
</event>
<event>
 7    1  0.2647566E-010  0.4778727E+02  0.7816164E-02  0.1312668E+00
        -11   -1    0    0    0    0  0.00000000000E+00  0.00000000000E+00  0.45593999997E+02  0.45594000000E+02  0.51100000000E-03 0.  1.
         11   -1    0    0    0    0 -0.00000000000E+00 -0.00000000000E+00 -0.45593999997E+02  0.45594000000E+02  0.51100000000E-03 0. -1.
    9900012    2    1    2    0    0  0.15109322860E+00 -0.42749227466E+02  0.74902469426E+01  0.47787273308E+02  0.20000010321E+02 0.  0.
         12    1    1    2    0    0 -0.15109322860E+00  0.42749227466E+02 -0.74902469426E+01  0.43400726692E+02  0.00000000000E+00 0. -1.
         11    1    3    3    0    0  0.20524974506E+01  0.95116779753E+00  0.12023497460E+01  0.25618569704E+01  0.51100000000E-03 0. -1.
        -11    1    3    3    0    0  0.82968834034E+00 -0.37346624429E+01 -0.20017329001E+01  0.43177564972E+01  0.51100000000E-03 0.  1.
        -12    1    3    3    0    0 -0.27310925623E+01 -0.39965732821E+02  0.82896300968E+01  0.40907659841E+02  0.00000000000E+00 0.  1.
</event>
<event>
 7    1  0.2647566E-010  0.4778728E+02  0.7816164E-02  0.1312668E+00
        -11   -1    0    0    0    0  0.00000000000E+00  0.00000000000E+00  0.45593999997E+02  0.45594000000E+02  0.51100000000E-03 0.  1.
         11   -1    0    0    0    0 -0.00000000000E+00 -0.00000000000E+00 -0.45593999997E+02  0.45594000000E+02  0.51100000000E-03 0. -1.
    9900012    2    1    2    0    0  0.31117902211E+02 -0.21162387065E+02  0.21620646616E+02  0.47787276223E+02  0.20000023609E+02 0.  0.
         12    1    1    2    0    0 -0.31117902211E+02  0.21162387065E+02 -0.21620646616E+02  0.43400723777E+02  0.00000000000E+00 0. -1.
         11    1    3    3    0    0  0.19087891832E+01  0.27046985983E+01  0.28505767541E+01  0.43685991743E+01  0.51100000000E-03 0. -1.
        -11    1    3    3    0    0  0.87124824743E+01 -0.74915460697E+01  0.60029664996E+00  0.11506127485E+02  0.51100000000E-03 0.  1.
        -12    1    3    3    0    0  0.20496630553E+02 -0.16375539594E+02  0.18169773212E+02  0.31912549563E+02  0.00000000000E+00 0.  1.
</event>
<event>
 7    1  0.2647566E-010  0.4778728E+02  0.7816164E-02  0.1312668E+00
        -11   -1    0    0    0    0  0.00000000000E+00  0.00000000000E+00  0.45593999997E+02  0.45594000000E+02  0.51100000000E-03 0.  1.
         11   -1    0    0    0    0 -0.00000000000E+00 -0.00000000000E+00 -0.45593999997E+02  0.45594000000E+02  0.51100000000E-03 0. -1.
    9900012    2    1    2    0    0 -0.21337117252E+02 -0.26806893326E+02  0.26640960527E+02  0.47787275580E+02  0.20000020678E+02 0.  0.
         12    1    1    2    0    0  0.21337117252E+02  0.26806893326E+02 -0.26640960527E+02  0.43400724420E+02  0.00000000000E+00 0. -1.
         11    1    3    3    0    0 -0.60709141153E+01 -0.35753009371E+01  0.29955117892E+01  0.76558386952E+01  0.51100000000E-03 0.  1.
        -11    1    3    3    0    0 -0.16497500037E+02 -0.11540663073E+02  0.11314636891E+02  0.23094921949E+02  0.51100000000E-03 0. -1.
         12    1    3    3    0    0  0.12312968996E+01 -0.11690929316E+02  0.12330811847E+02  0.17036514935E+02  0.00000000000E+00 0. -1.
</event>
<event>
 7    1  0.2647566E-010  0.4778727E+02  0.7816164E-02  0.1312668E+00
        -11   -1    0    0    0    0  0.00000000000E+00  0.00000000000E+00  0.45593999997E+02  0.45594000000E+02  0.51100000000E-03 0.  1.
         11   -1    0    0    0    0 -0.00000000000E+00 -0.00000000000E+00 -0.45593999997E+02  0.45594000000E+02  0.51100000000E-03 0. -1.
    9900012    2    1    2    0    0 -0.19728091637E+02  0.36850442272E+02  0.11682067373E+02  0.47787269668E+02  0.19999993723E+02 0.  0.
         12    1    1    2    0    0  0.19728091637E+02 -0.36850442272E+02 -0.11682067373E+02  0.43400730332E+02  0.00000000000E+00 0. -1.
         11    1    3    3    0    0 -0.32444933095E+01  0.12806978805E+02  0.21428175337E+01  0.13384211228E+02  0.51100000000E-03 0. -1.
        -11    1    3    3    0    0 -0.16458283191E+02  0.20727076890E+02  0.13104906627E+02  0.29533462039E+02  0.51100000000E-03 0.  1.
         12    1    3    3    0    0 -0.25315136195E-01  0.33163865768E+01 -0.35656567882E+01  0.48695964016E+01  0.00000000000E+00 0. -1.
</event>
<event>
 7    1  0.2647566E-010  0.4778727E+02  0.7816164E-02  0.1312668E+00
        -11   -1    0    0    0    0  0.00000000000E+00  0.00000000000E+00  0.45593999997E+02  0.45594000000E+02  0.51100000000E-03 0.  1.
         11   -1    0    0    0    0 -0.00000000000E+00 -0.00000000000E+00 -0.45593999997E+02  0.45594000000E+02  0.51100000000E-03 0. -1.
    9900012    2    1    2    0    0 -0.23650717663E+02  0.26206933200E+02  0.25248035893E+02  0.47787272930E+02  0.20000008598E+02 0.  0.
         12    1    1    2    0    0  0.23650717663E+02 -0.26206933200E+02 -0.25248035893E+02  0.43400727070E+02  0.00000000000E+00 0. -1.
         11    1    3    3    0    0 -0.11301335973E+02  0.10098577989E+02  0.91442587148E+01  0.17700817492E+02  0.51100000000E-03 0. -1.
        -11    1    3    3    0    0 -0.80479448691E+01  0.18017205926E+02  0.93022517064E+01  0.21815613974E+02  0.51100000000E-03 0.  1.
         12    1    3    3    0    0 -0.43014368210E+01 -0.19088507155E+01  0.68015254714E+01  0.82708414636E+01  0.00000000000E+00 0. -1.
</event>
<event>
 7    1  0.2647566E-010  0.4778727E+02  0.7816164E-02  0.1312668E+00
        -11   -1    0    0    0    0  0.00000000000E+00  0.00000000000E+00  0.45593999997E+02  0.45594000000E+02  0.51100000000E-03 0. -1.
         11   -1    0    0    0    0 -0.00000000000E+00 -0.00000000000E+00 -0.45593999997E+02  0.45594000000E+02  0.51100000000E-03 0.  1.
    9900012    2    1    2    0    0 -0.65430532406E+01  0.41315559237E+02 -0.11568761217E+02  0.47787271701E+02  0.20000002995E+02 0.  0.
         12    1    1    2    0    0  0.65430532406E+01 -0.41315559237E+02  0.11568761217E+02  0.43400728299E+02  0.00000000000E+00 0. -1.
         11    1    3    3    0    0 -0.79290495828E+01  0.15611594366E+02  0.39174054298E+00  0.17514141910E+02  0.51100000000E-03 0. -1.
        -11    1    3    3    0    0 -0.11081204603E+00  0.24729275961E+02 -0.81047843207E+01  0.26023775629E+02  0.51100000000E-03 0.  1.
         12    1    3    3    0    0  0.14968083882E+01  0.97468891005E+00 -0.38557174391E+01  0.42493541618E+01  0.00000000000E+00 0. -1.
</event>
<event>
 7    1  0.2647566E-010  0.4778727E+02  0.7816164E-02  0.1312668E+00
        -11   -1    0    0    0    0  0.00000000000E+00  0.00000000000E+00  0.45593999997E+02  0.45594000000E+02  0.51100000000E-03 0. -1.
         11   -1    0    0    0    0 -0.00000000000E+00 -0.00000000000E+00 -0.45593999997E+02  0.45594000000E+02  0.51100000000E-03 0.  1.
    9900012    2    1    2    0    0 -0.78999493682E+01 -0.33400891864E+02 -0.26563030941E+02  0.47787269705E+02  0.19999993894E+02 0.  0.
         12    1    1    2    0    0  0.78999493682E+01  0.33400891864E+02  0.26563030941E+02  0.43400730295E+02  0.00000000000E+00 0. -1.
         11    1    3    3    0    0 -0.19667553730E+01 -0.14482202046E+02 -0.17384898378E+02  0.22712045145E+02  0.51100000000E-03 0. -1.
        -11    1    3    3    0    0 -0.67914422336E+01 -0.19156282215E+02 -0.10954090292E+02  0.23088502123E+02  0.51100000000E-03 0.  1.
         12    1    3    3    0    0  0.85824823835E+00  0.23759239697E+00  0.17759577289E+01  0.19867224367E+01  0.00000000000E+00 0. -1.
</event>
<event>
 7    1  0.2647566E-010  0.4778728E+02  0.7816164E-02  0.1312668E+00
        -11   -1    0    0    0    0  0.00000000000E+00  0.00000000000E+00  0.45593999997E+02  0.45594000000E+02  0.51100000000E-03 0.  1.
         11   -1    0    0    0    0 -0.00000000000E+00 -0.00000000000E+00 -0.45593999997E+02  0.45594000000E+02  0.51100000000E-03 0. -1.
    9900012    2    1    2    0    0  0.28462665321E+02  0.25500928546E+02  0.20571860571E+02  0.47787284324E+02  0.20000060547E+02 0.  0.
         12    1    1    2    0    0 -0.28462665321E+02 -0.25500928546E+02 -0.20571860571E+02  0.43400715676E+02  0.00000000000E+00 0. -1.
         11    1    3    3    0    0  0.75194591918E+01  0.55527436214E+01  0.11824627911E+02  0.15073057213E+02  0.51100000000E-03 0. -1.
        -11    1    3    3    0    0  0.15417790716E+02  0.75828888310E+01  0.84978896228E+01  0.19168270706E+02  0.51100000000E-03 0.  1.
        -12    1    3    3    0    0  0.55254154131E+01  0.12365296093E+02  0.24934303711E+00  0.13545956404E+02  0.00000000000E+00 0.  1.
</event>
<event>
 7    1  0.2647566E-010  0.4778727E+02  0.7816164E-02  0.1312668E+00
        -11   -1    0    0    0    0  0.00000000000E+00  0.00000000000E+00  0.45593999997E+02  0.45594000000E+02  0.51100000000E-03 0. -1.
         11   -1    0    0    0    0 -0.00000000000E+00 -0.00000000000E+00 -0.45593999997E+02  0.45594000000E+02  0.51100000000E-03 0.  1.
    9900012    2    1    2    0    0  0.37867389211E+02 -0.20742313825E+02 -0.44091167001E+01  0.47787273525E+02  0.20000011309E+02 0.  0.
         12    1    1    2    0    0 -0.37867389211E+02  0.20742313825E+02  0.44091167001E+01  0.43400726475E+02  0.00000000000E+00 0. -1.
         11    1    3    3    0    0  0.71824567963E+01  0.57795425587E-01 -0.24424403590E+01  0.75866027384E+01  0.51100000000E-03 0. -1.
        -11    1    3    3    0    0  0.21057615162E+01 -0.80303081121E+01  0.22859150043E+01  0.86107774101E+01  0.51100000000E-03 0.  1.
        -12    1    3    3    0    0  0.28579170899E+02 -0.12769801138E+02 -0.42525913453E+01  0.31589893376E+02  0.00000000000E+00 0.  1.
</event>
<event>
 7    1  0.2647566E-010  0.4778727E+02  0.7816164E-02  0.1312668E+00
        -11   -1    0    0    0    0  0.00000000000E+00  0.00000000000E+00  0.45593999997E+02  0.45594000000E+02  0.51100000000E-03 0.  1.
         11   -1    0    0    0    0 -0.00000000000E+00 -0.00000000000E+00 -0.45593999997E+02  0.45594000000E+02  0.51100000000E-03 0. -1.
    9900012    2    1    2    0    0  0.60641161900E+01  0.30643092283E+02  0.30130562190E+02  0.47787269733E+02  0.19999994019E+02 0.  0.
         12    1    1    2    0    0 -0.60641161900E+01 -0.30643092283E+02 -0.30130562190E+02  0.43400730267E+02  0.00000000000E+00 0. -1.
         11    1    3    3    0    0  0.32791884021E+01  0.13599715207E+02  0.52572796778E+01  0.14944708768E+02  0.51100000000E-03 0. -1.
        -11    1    3    3    0    0 -0.71765981578E+00  0.17646877991E+02  0.18719313976E+02  0.25735968108E+02  0.51100000000E-03 0.  1.
        -12    1    3    3    0    0  0.35025876037E+01 -0.60350091578E+00  0.61539685368E+01  0.71065928566E+01  0.00000000000E+00 0.  1.
</event>
<event>
 7    1  0.2740922E-010  0.4778727E+02  0.7816164E-02  0.1312668E+00
        -11   -1    0    0    0    0  0.00000000000E+00  0.00000000000E+00  0.45593999997E+02  0.45594000000E+02  0.51100000000E-03 0. -1.
         11   -1    0    0    0    0 -0.00000000000E+00 -0.00000000000E+00 -0.45593999997E+02  0.45594000000E+02  0.51100000000E-03 0.  1.
    9900012    2    1    2    0    0  0.27264283513E+01 -0.44269393785E+01 -0.43088188139E+02  0.47787272346E+02  0.20000005933E+02 0.  0.
         12    1    1    2    0    0 -0.27264283513E+01  0.44269393785E+01  0.43088188139E+02  0.43400727654E+02  0.00000000000E+00 0. -1.
         11    1    3    3    0    0  0.45340176713E+01  0.43538641115E+00 -0.58335941110E+01  0.74011957199E+01  0.51100000000E-03 0. -1.
        -11    1    3    3    0    0  0.56410252639E+01 -0.55703868088E+01 -0.22233648618E+02  0.23604777193E+02  0.51100000000E-03 0.  1.
         12    1    3    3    0    0 -0.74486145840E+01  0.70806101916E+00 -0.15020945410E+02  0.16781299433E+02  0.00000000000E+00 0. -1.
</event>
<event>
 7    1  0.2647566E-010  0.4778727E+02  0.7816164E-02  0.1312668E+00
        -11   -1    0    0    0    0  0.00000000000E+00  0.00000000000E+00  0.45593999997E+02  0.45594000000E+02  0.51100000000E-03 0. -1.
         11   -1    0    0    0    0 -0.00000000000E+00 -0.00000000000E+00 -0.45593999997E+02  0.45594000000E+02  0.51100000000E-03 0.  1.
    9900012    2    1    2    0    0  0.16198018090E+02 -0.27426465454E+02 -0.29479424229E+02  0.47787271317E+02  0.20000001243E+02 0.  0.
         12    1    1    2    0    0 -0.16198018090E+02  0.27426465454E+02  0.29479424229E+02  0.43400728683E+02  0.00000000000E+00 0. -1.
         11    1    3    3    0    0  0.59944073247E+01 -0.65563875376E+01 -0.17546727523E+02  0.19667404092E+02  0.51100000000E-03 0.  1.
        -11    1    3    3    0    0  0.26686455972E+00 -0.46369845361E+01 -0.70978213397E+01  0.84824471890E+01  0.51100000000E-03 0. -1.
        -12    1    3    3    0    0  0.99367462055E+01 -0.16233093381E+02 -0.48348753663E+01  0.19637420036E+02  0.00000000000E+00 0.  1.
</event>
<event>
 7    1  0.2647566E-010  0.4778727E+02  0.7816164E-02  0.1312668E+00
        -11   -1    0    0    0    0  0.00000000000E+00  0.00000000000E+00  0.45593999997E+02  0.45594000000E+02  0.51100000000E-03 0.  1.
         11   -1    0    0    0    0 -0.00000000000E+00 -0.00000000000E+00 -0.45593999997E+02  0.45594000000E+02  0.51100000000E-03 0. -1.
    9900012    2    1    2    0    0 -0.42933747046E+02 -0.59200955636E-01  0.63492527517E+01  0.47787272464E+02  0.20000006473E+02 0.  0.
         12    1    1    2    0    0  0.42933747046E+02  0.59200955636E-01 -0.63492527517E+01  0.43400727536E+02  0.00000000000E+00 0. -1.
         11    1    3    3    0    0 -0.35932552032E+01  0.10338550868E+01  0.48614605806E+00  0.37705009676E+01  0.51100000000E-03 0. -1.
        -11    1    3    3    0    0 -0.40823185271E+02  0.11429540207E+01  0.47589839711E+01  0.41115529040E+02  0.51100000000E-03 0.  1.
        -12    1    3    3    0    0  0.14826934282E+01 -0.22360100632E+01  0.11041227225E+01  0.29012424564E+01  0.00000000000E+00 0.  1.
</event>
<event>
 7    1  0.3302445E-010  0.4778728E+02  0.7816164E-02  0.1312668E+00
        -11   -1    0    0    0    0  0.00000000000E+00  0.00000000000E+00  0.45593999997E+02  0.45594000000E+02  0.51100000000E-03 0. -1.
         11   -1    0    0    0    0 -0.00000000000E+00 -0.00000000000E+00 -0.45593999997E+02  0.45594000000E+02  0.51100000000E-03 0.  1.
    9900012    2    1    2    0    0  0.31113552769E+02  0.20662618493E+02 -0.22104883758E+02  0.47787275872E+02  0.20000022010E+02 0.  0.
         12    1    1    2    0    0 -0.31113552769E+02 -0.20662618493E+02  0.22104883758E+02  0.43400724128E+02  0.00000000000E+00 0. -1.
         11    1    3    3    0    0  0.38445262154E+00  0.33315761878E+00  0.16651480925E+01  0.17411249950E+01  0.51100000000E-03 0. -1.
        -11    1    3    3    0    0  0.87788444522E+01  0.31248448234E+01 -0.13335813059E+02  0.16268886725E+02  0.51100000000E-03 0.  1.
        -12    1    3    3    0    0  0.21950255695E+02  0.17204616051E+02 -0.10434218792E+02  0.29777264151E+02  0.00000000000E+00 0.  1.
</event>
<event>
 7    1  0.2647566E-010  0.4778727E+02  0.7816164E-02  0.1312668E+00
        -11   -1    0    0    0    0  0.00000000000E+00  0.00000000000E+00  0.45593999997E+02  0.45594000000E+02  0.51100000000E-03 0. -1.
         11   -1    0    0    0    0 -0.00000000000E+00 -0.00000000000E+00 -0.45593999997E+02  0.45594000000E+02  0.51100000000E-03 0.  1.
    9900012    2    1    2    0    0  0.21774169652E+02  0.37519326355E+02 -0.13450276940E+01  0.47787269434E+02  0.19999992658E+02 0.  0.
         12    1    1    2    0    0 -0.21774169652E+02 -0.37519326355E+02  0.13450276940E+01  0.43400730566E+02  0.00000000000E+00 0. -1.
         11    1    3    3    0    0  0.16764299417E-02 -0.12360433948E+01 -0.14890533824E+01  0.19352225508E+01  0.51100000000E-03 0. -1.
        -11    1    3    3    0    0  0.25002406785E+01  0.12250385335E+02  0.32954617923E+01  0.12929934764E+02  0.51100000000E-03 0.  1.
         12    1    3    3    0    0  0.19272252543E+02  0.26504984414E+02 -0.31514361039E+01  0.32922112120E+02  0.00000000000E+00 0. -1.
</event>
<event>
 7    1  0.2647566E-010  0.4778727E+02  0.7816164E-02  0.1312668E+00
        -11   -1    0    0    0    0  0.00000000000E+00  0.00000000000E+00  0.45593999997E+02  0.45594000000E+02  0.51100000000E-03 0. -1.
         11   -1    0    0    0    0 -0.00000000000E+00 -0.00000000000E+00 -0.45593999997E+02  0.45594000000E+02  0.51100000000E-03 0.  1.
    9900012    2    1    2    0    0 -0.41852644005E+02 -0.13943061424E+01 -0.11403304360E+02  0.47787271318E+02  0.20000001245E+02 0.  0.
         12    1    1    2    0    0  0.41852644005E+02  0.13943061424E+01  0.11403304360E+02  0.43400728682E+02  0.00000000000E+00 0. -1.
         11    1    3    3    0    0 -0.54949778499E+01 -0.61380486072E+00  0.13150068412E+01  0.56833776253E+01  0.51100000000E-03 0. -1.
        -11    1    3    3    0    0 -0.12259620806E+02  0.62358181419E+01  0.44741676741E+00  0.13761682754E+02  0.51100000000E-03 0.  1.
         12    1    3    3    0    0 -0.24098045349E+02 -0.70163194236E+01 -0.13165727969E+02  0.28342210938E+02  0.00000000000E+00 0. -1.
</event>
<event>
 7    1  0.2647566E-010  0.4778729E+02  0.7816164E-02  0.1312668E+00
        -11   -1    0    0    0    0  0.00000000000E+00  0.00000000000E+00  0.45593999997E+02  0.45594000000E+02  0.51100000000E-03 0.  1.
         11   -1    0    0    0    0 -0.00000000000E+00 -0.00000000000E+00 -0.45593999997E+02  0.45594000000E+02  0.51100000000E-03 0. -1.
    9900012    2    1    2    0    0 -0.10947549183E+02  0.31899637832E+02  0.27316402112E+02  0.47787290890E+02  0.20000090485E+02 0.  0.
         12    1    1    2    0    0  0.10947549183E+02 -0.31899637832E+02 -0.27316402112E+02  0.43400709110E+02  0.00000000000E+00 0. -1.
         11    1    3    3    0    0 -0.11065028710E+02  0.52602803058E+01  0.86983912531E+01  0.15025558888E+02  0.51100000000E-03 0. -1.
        -11    1    3    3    0    0 -0.35825809767E+00  0.81161477711E+01  0.80194474079E+01  0.11415416790E+02  0.51100000000E-03 0.  1.
         12    1    3    3    0    0  0.47573762493E+00  0.18523209755E+02  0.10598563451E+02  0.21346315212E+02  0.00000000000E+00 0. -1.
</event>
<event>
 7    1  0.2647566E-010  0.4778727E+02  0.7816164E-02  0.1312668E+00
        -11   -1    0    0    0    0  0.00000000000E+00  0.00000000000E+00  0.45593999997E+02  0.45594000000E+02  0.51100000000E-03 0.  1.
         11   -1    0    0    0    0 -0.00000000000E+00 -0.00000000000E+00 -0.45593999997E+02  0.45594000000E+02  0.51100000000E-03 0. -1.
    9900012    2    1    2    0    0 -0.54508910966E+01  0.41989564078E+02  0.95282403078E+01  0.47787273410E+02  0.20000010784E+02 0.  0.
         12    1    1    2    0    0  0.54508910966E+01 -0.41989564078E+02 -0.95282403078E+01  0.43400726590E+02  0.00000000000E+00 0. -1.
         11    1    3    3    0    0 -0.50491279233E+01  0.17915313780E+02  0.47526875991E+01  0.19210419055E+02  0.51100000000E-03 0. -1.
        -11    1    3    3    0    0 -0.54116940375E+01  0.22138532196E+02  0.35125873261E+01  0.23059473328E+02  0.51100000000E-03 0.  1.
         12    1    3    3    0    0  0.50099308642E+01  0.19357181022E+01  0.12629653826E+01  0.55173810266E+01  0.00000000000E+00 0. -1.
</event>
<event>
 7    1  0.2647566E-010  0.4778728E+02  0.7816164E-02  0.1312668E+00
        -11   -1    0    0    0    0  0.00000000000E+00  0.00000000000E+00  0.45593999997E+02  0.45594000000E+02  0.51100000000E-03 0.  1.
         11   -1    0    0    0    0 -0.00000000000E+00 -0.00000000000E+00 -0.45593999997E+02  0.45594000000E+02  0.51100000000E-03 0. -1.
    9900012    2    1    2    0    0  0.27304448593E+02 -0.28914673607E+02  0.17379052695E+02  0.47787277249E+02  0.20000028288E+02 0.  0.
         12    1    1    2    0    0 -0.27304448593E+02  0.28914673607E+02 -0.17379052695E+02  0.43400722751E+02  0.00000000000E+00 0. -1.
         11    1    3    3    0    0  0.65756048002E+01 -0.50615171472E+01 -0.95737369825E-01  0.82985962804E+01  0.51100000000E-03 0. -1.
        -11    1    3    3    0    0  0.22087362006E+02 -0.20050512626E+02  0.10874324625E+02  0.31750992949E+02  0.51100000000E-03 0.  1.
         12    1    3    3    0    0 -0.13585182130E+01 -0.38026438334E+01  0.66004654405E+01  0.77376880197E+01  0.00000000000E+00 0. -1.
</event>
<event>
 7    1  0.2647566E-010  0.4778727E+02  0.7816164E-02  0.1312668E+00
        -11   -1    0    0    0    0  0.00000000000E+00  0.00000000000E+00  0.45593999997E+02  0.45594000000E+02  0.51100000000E-03 0.  1.
         11   -1    0    0    0    0 -0.00000000000E+00 -0.00000000000E+00 -0.45593999997E+02  0.45594000000E+02  0.51100000000E-03 0. -1.
    9900012    2    1    2    0    0 -0.40447083211E+02 -0.44633920976E+01  0.15090884062E+02  0.47787271999E+02  0.20000004352E+02 0.  0.
         12    1    1    2    0    0  0.40447083211E+02  0.44633920976E+01 -0.15090884062E+02  0.43400728001E+02  0.00000000000E+00 0. -1.
         11    1    3    3    0    0 -0.38352585142E+01 -0.14664538989E+01  0.38294638877E+01  0.56146672953E+01  0.51100000000E-03 0. -1.
        -11    1    3    3    0    0 -0.38356377241E+02 -0.18364634403E+01  0.11444228611E+02  0.40069372864E+02  0.51100000000E-03 0.  1.
        -12    1    3    3    0    0  0.17445525443E+01 -0.11604747584E+01 -0.18280843687E+00  0.21032318392E+01  0.00000000000E+00 0.  1.
</event>
<event>
 7    1  0.2647566E-010  0.4778727E+02  0.7816164E-02  0.1312668E+00
        -11   -1    0    0    0    0  0.00000000000E+00  0.00000000000E+00  0.45593999997E+02  0.45594000000E+02  0.51100000000E-03 0. -1.
         11   -1    0    0    0    0 -0.00000000000E+00 -0.00000000000E+00 -0.45593999997E+02  0.45594000000E+02  0.51100000000E-03 0.  1.
    9900012    2    1    2    0    0  0.21350848659E+02  0.28668283370E+02 -0.24614912347E+02  0.47787272821E+02  0.20000008099E+02 0.  0.
         12    1    1    2    0    0 -0.21350848659E+02 -0.28668283370E+02  0.24614912347E+02  0.43400727179E+02  0.00000000000E+00 0. -1.
         11    1    3    3    0    0 -0.78848575519E+00 -0.19680097208E+00 -0.22203006707E+01  0.23643552479E+01  0.51100000000E-03 0. -1.
        -11    1    3    3    0    0 -0.18340221455E+01  0.29370756077E+01 -0.49380107889E+01  0.60310862345E+01  0.51100000000E-03 0.  1.
         12    1    3    3    0    0  0.23973356559E+02  0.25928008734E+02 -0.17456600888E+02  0.39391831338E+02  0.00000000000E+00 0. -1.
</event>
<event>
 7    1  0.2647566E-010  0.4778730E+02  0.7816164E-02  0.1312668E+00
        -11   -1    0    0    0    0  0.00000000000E+00  0.00000000000E+00  0.45593999997E+02  0.45594000000E+02  0.51100000000E-03 0.  1.
         11   -1    0    0    0    0 -0.00000000000E+00 -0.00000000000E+00 -0.45593999997E+02  0.45594000000E+02  0.51100000000E-03 0. -1.
    9900012    2    1    2    0    0 -0.32340395703E+02 -0.21091926106E+01  0.28866433191E+02  0.47787298936E+02  0.20000127170E+02 0.  0.
         12    1    1    2    0    0  0.32340395703E+02  0.21091926106E+01 -0.28866433191E+02  0.43400701064E+02  0.00000000000E+00 0. -1.
         11    1    3    3    0    0 -0.46742586965E+01 -0.94102516625E+00  0.13186818382E+02  0.14022353655E+02  0.51100000000E-03 0. -1.
        -11    1    3    3    0    0 -0.27993859580E+01 -0.30522215437E+01  0.53659336911E+01  0.67783377558E+01  0.51100000000E-03 0.  1.
        -12    1    3    3    0    0 -0.24866751048E+02  0.18840540994E+01  0.10313681117E+02  0.26986607525E+02  0.00000000000E+00 0.  1.
</event>
<event>
 7    1  0.2647566E-010  0.4778728E+02  0.7816164E-02  0.1312668E+00
        -11   -1    0    0    0    0  0.00000000000E+00  0.00000000000E+00  0.45593999997E+02  0.45594000000E+02  0.51100000000E-03 0.  1.
         11   -1    0    0    0    0 -0.00000000000E+00 -0.00000000000E+00 -0.45593999997E+02  0.45594000000E+02  0.51100000000E-03 0. -1.
    9900012    2    1    2    0    0  0.23551555126E+02 -0.32404247235E+02  0.16700656443E+02  0.47787275198E+02  0.20000018936E+02 0.  0.
         12    1    1    2    0    0 -0.23551555126E+02  0.32404247235E+02 -0.16700656443E+02  0.43400724802E+02  0.00000000000E+00 0. -1.
         11    1    3    3    0    0  0.32187229551E+01 -0.85994398211E+01  0.97434719358E-01  0.91825942132E+01  0.51100000000E-03 0. -1.
        -11    1    3    3    0    0  0.94962802519E+01 -0.21726473725E+02  0.99062671320E+01  0.25697336981E+02  0.51100000000E-03 0.  1.
        -12    1    3    3    0    0  0.10836551919E+02 -0.20783336889E+01  0.66969545918E+01  0.12907344003E+02  0.00000000000E+00 0.  1.
</event>
<event>
 7    1  0.2647566E-010  0.4778727E+02  0.7816164E-02  0.1312668E+00
        -11   -1    0    0    0    0  0.00000000000E+00  0.00000000000E+00  0.45593999997E+02  0.45594000000E+02  0.51100000000E-03 0.  1.
         11   -1    0    0    0    0 -0.00000000000E+00 -0.00000000000E+00 -0.45593999997E+02  0.45594000000E+02  0.51100000000E-03 0. -1.
    9900012    2    1    2    0    0  0.24193163585E+02  0.21493230576E+02  0.28919800272E+02  0.47787274515E+02  0.20000015823E+02 0.  0.
         12    1    1    2    0    0 -0.24193163585E+02 -0.21493230576E+02 -0.28919800272E+02  0.43400725485E+02  0.00000000000E+00 0. -1.
         11    1    3    3    0    0  0.11334735990E+01 -0.11096304180E+01 -0.43731472233E+00  0.16453833875E+01  0.51100000000E-03 0. -1.
        -11    1    3    3    0    0  0.20612147495E+02  0.11999863399E+02  0.15186699149E+02  0.28275310383E+02  0.51100000000E-03 0.  1.
        -12    1    3    3    0    0  0.24475424906E+01  0.10602997596E+02  0.14170415846E+02  0.17866580744E+02  0.00000000000E+00 0.  1.
</event>
<event>
 7    1  0.2647566E-010  0.4778728E+02  0.7816164E-02  0.1312668E+00
        -11   -1    0    0    0    0  0.00000000000E+00  0.00000000000E+00  0.45593999997E+02  0.45594000000E+02  0.51100000000E-03 0.  1.
         11   -1    0    0    0    0 -0.00000000000E+00 -0.00000000000E+00 -0.45593999997E+02  0.45594000000E+02  0.51100000000E-03 0. -1.
    9900012    2    1    2    0    0 -0.33793570120E+02  0.12272303682E+02  0.24310651173E+02  0.47787279043E+02  0.20000036470E+02 0.  0.
         12    1    1    2    0    0  0.33793570120E+02 -0.12272303682E+02 -0.24310651173E+02  0.43400720957E+02  0.00000000000E+00 0. -1.
         11    1    3    3    0    0 -0.23592039124E+02 -0.97632972316E+00  0.16903594841E+02  0.29039095175E+02  0.51100000000E-03 0. -1.
        -11    1    3    3    0    0 -0.33495745770E+01  0.25322793804E+01  0.37921498470E+00  0.42161466973E+01  0.51100000000E-03 0.  1.
         12    1    3    3    0    0 -0.68519564190E+01  0.10716354024E+02  0.70278413471E+01  0.14532037171E+02  0.00000000000E+00 0. -1.
</event>
<event>
 7    1  0.2647566E-010  0.4778727E+02  0.7816164E-02  0.1312668E+00
        -11   -1    0    0    0    0  0.00000000000E+00  0.00000000000E+00  0.45593999997E+02  0.45594000000E+02  0.51100000000E-03 0.  1.
         11   -1    0    0    0    0 -0.00000000000E+00 -0.00000000000E+00 -0.45593999997E+02  0.45594000000E+02  0.51100000000E-03 0. -1.
    9900012    2    1    2    0    0  0.39843154555E+02 -0.17027980740E+02 -0.24887983166E+01  0.47787271780E+02  0.20000003354E+02 0.  0.
         12    1    1    2    0    0 -0.39843154555E+02  0.17027980740E+02  0.24887983166E+01  0.43400728220E+02  0.00000000000E+00 0. -1.
         11    1    3    3    0    0  0.22973591753E+02 -0.30170729444E+01  0.91661251053E+00  0.23188980701E+02  0.51100000000E-03 0. -1.
        -11    1    3    3    0    0  0.11520271663E+02 -0.11095865173E+02  0.24109902864E+01  0.16175529591E+02  0.51100000000E-03 0.  1.
         12    1    3    3    0    0  0.53492911388E+01 -0.29150426224E+01 -0.58164011135E+01  0.84227614885E+01  0.00000000000E+00 0. -1.
</event>
<event>
 7    1  0.2647566E-010  0.4778727E+02  0.7816164E-02  0.1312668E+00
        -11   -1    0    0    0    0  0.00000000000E+00  0.00000000000E+00  0.45593999997E+02  0.45594000000E+02  0.51100000000E-03 0.  1.
         11   -1    0    0    0    0 -0.00000000000E+00 -0.00000000000E+00 -0.45593999997E+02  0.45594000000E+02  0.51100000000E-03 0. -1.
    9900012    2    1    2    0    0  0.15409389733E+01  0.11060920017E+02  0.41939297463E+02  0.47787272861E+02  0.20000008280E+02 0.  0.
         12    1    1    2    0    0 -0.15409389733E+01 -0.11060920017E+02 -0.41939297463E+02  0.43400727139E+02  0.00000000000E+00 0. -1.
         11    1    3    3    0    0 -0.44423272301E+00  0.61245082353E+01  0.23159565155E+02  0.23959808060E+02  0.51100000000E-03 0.  1.
        -11    1    3    3    0    0  0.60697148439E+01  0.34111196723E+01  0.18127839806E+02  0.19418953422E+02  0.51100000000E-03 0. -1.
        -12    1    3    3    0    0 -0.40845431476E+01  0.15252921097E+01  0.65189250204E+00  0.44085113790E+01  0.00000000000E+00 0.  1.
</event>
<event>
 7    1  0.2647566E-010  0.4778727E+02  0.7816164E-02  0.1312668E+00
        -11   -1    0    0    0    0  0.00000000000E+00  0.00000000000E+00  0.45593999997E+02  0.45594000000E+02  0.51100000000E-03 0.  1.
         11   -1    0    0    0    0 -0.00000000000E+00 -0.00000000000E+00 -0.45593999997E+02  0.45594000000E+02  0.51100000000E-03 0. -1.
    9900012    2    1    2    0    0  0.17519502862E+02  0.16422494223E+02  0.36152344865E+02  0.47787270325E+02  0.19999996721E+02 0.  0.
         12    1    1    2    0    0 -0.17519502862E+02 -0.16422494223E+02 -0.36152344865E+02  0.43400729675E+02  0.00000000000E+00 0. -1.
         11    1    3    3    0    0  0.14044318771E+01  0.53212669992E+01  0.17510108704E+01  0.57753225627E+01  0.51100000000E-03 0. -1.
        -11    1    3    3    0    0  0.53993337930E+01  0.11184830806E+02  0.24277571224E+02  0.27270014858E+02  0.51100000000E-03 0.  1.
         12    1    3    3    0    0  0.10715737192E+02 -0.83603581582E-01  0.10123762771E+02  0.14741932905E+02  0.00000000000E+00 0. -1.
</event>
<event>
 7    1  0.2647566E-010  0.4778727E+02  0.7816164E-02  0.1312668E+00
        -11   -1    0    0    0    0  0.00000000000E+00  0.00000000000E+00  0.45593999997E+02  0.45594000000E+02  0.51100000000E-03 0. -1.
         11   -1    0    0    0    0 -0.00000000000E+00 -0.00000000000E+00 -0.45593999997E+02  0.45594000000E+02  0.51100000000E-03 0.  1.
    9900012    2    1    2    0    0 -0.10871251289E+02  0.29885845412E+02 -0.29534311190E+02  0.47787269614E+02  0.19999993479E+02 0.  0.
         12    1    1    2    0    0  0.10871251289E+02 -0.29885845412E+02  0.29534311190E+02  0.43400730386E+02  0.00000000000E+00 0. -1.
         11    1    3    3    0    0  0.11311055828E+01  0.74999858854E+01 -0.15814766008E+01  0.77479195027E+01  0.51100000000E-03 0. -1.
        -11    1    3    3    0    0 -0.15948197864E+01  0.16197229278E+02 -0.18763269149E+02  0.24838557846E+02  0.51100000000E-03 0.  1.
        -12    1    3    3    0    0 -0.10407537085E+02  0.61886302485E+01 -0.91895654394E+01  0.15200792266E+02  0.00000000000E+00 0.  1.
</event>
<event>
 7    1  0.2647566E-010  0.4778728E+02  0.7816164E-02  0.1312668E+00
        -11   -1    0    0    0    0  0.00000000000E+00  0.00000000000E+00  0.45593999997E+02  0.45594000000E+02  0.51100000000E-03 0.  1.
         11   -1    0    0    0    0 -0.00000000000E+00 -0.00000000000E+00 -0.45593999997E+02  0.45594000000E+02  0.51100000000E-03 0. -1.
    9900012    2    1    2    0    0  0.18810193486E+02 -0.40101330882E+01  0.38906531299E+02  0.47787277378E+02  0.20000028879E+02 0.  0.
         12    1    1    2    0    0 -0.18810193486E+02  0.40101330882E+01 -0.38906531299E+02  0.43400722622E+02  0.00000000000E+00 0. -1.
         11    1    3    3    0    0  0.60897290742E+00 -0.31211552867E+01  0.75052944233E+01  0.81511902792E+01  0.51100000000E-03 0. -1.
        -11    1    3    3    0    0  0.12771163161E+02 -0.69907089387E+01  0.26137475894E+02  0.29918894804E+02  0.51100000000E-03 0.  1.
         12    1    3    3    0    0  0.54300574170E+01  0.61017311372E+01  0.52637609820E+01  0.97171922950E+01  0.00000000000E+00 0. -1.
</event>
<event>
 7    1  0.2647566E-010  0.4778727E+02  0.7816164E-02  0.1312668E+00
        -11   -1    0    0    0    0  0.00000000000E+00  0.00000000000E+00  0.45593999997E+02  0.45594000000E+02  0.51100000000E-03 0.  1.
         11   -1    0    0    0    0 -0.00000000000E+00 -0.00000000000E+00 -0.45593999997E+02  0.45594000000E+02  0.51100000000E-03 0. -1.
    9900012    2    1    2    0    0  0.17488957305E+02  0.16392381527E+02  0.36180795501E+02  0.47787265411E+02  0.19999974316E+02 0.  0.
         12    1    1    2    0    0 -0.17488957305E+02 -0.16392381527E+02 -0.36180795501E+02  0.43400734589E+02  0.00000000000E+00 0. -1.
         11    1    3    3    0    0  0.28458193504E+01 -0.23832421469E+01 -0.44287628235E+00  0.37382710667E+01  0.51100000000E-03 0. -1.
        -11    1    3    3    0    0  0.18303705023E+01  0.36215382972E+01  0.10394942632E+02  0.11158881145E+02  0.51100000000E-03 0.  1.
        -12    1    3    3    0    0  0.12812767452E+02  0.15154085377E+02  0.26228729152E+02  0.32890113200E+02  0.00000000000E+00 0.  1.
</event>
<event>
 7    1  0.2647566E-010  0.4778727E+02  0.7816164E-02  0.1312668E+00
        -11   -1    0    0    0    0  0.00000000000E+00  0.00000000000E+00  0.45593999997E+02  0.45594000000E+02  0.51100000000E-03 0.  1.
         11   -1    0    0    0    0 -0.00000000000E+00 -0.00000000000E+00 -0.45593999997E+02  0.45594000000E+02  0.51100000000E-03 0. -1.
    9900012    2    1    2    0    0 -0.80237774672E+01  0.27044208889E+01  0.42566750858E+02  0.47787272174E+02  0.20000005150E+02 0.  0.
         12    1    1    2    0    0  0.80237774672E+01 -0.27044208889E+01 -0.42566750858E+02  0.43400727826E+02  0.00000000000E+00 0. -1.
         11    1    3    3    0    0  0.61717073862E+01  0.22378149660E+01  0.16238817704E+02  0.17515621273E+02  0.51100000000E-03 0. -1.
        -11    1    3    3    0    0 -0.16480944645E+01  0.15449102905E+01  0.52940493234E+01  0.57558597681E+01  0.51100000000E-03 0.  1.
         12    1    3    3    0    0 -0.12547390389E+02 -0.10783043675E+01  0.21033883831E+02  0.24515791133E+02  0.00000000000E+00 0. -1.
</event>
<event>
 7    1  0.2647566E-010  0.4778727E+02  0.7816164E-02  0.1312668E+00
        -11   -1    0    0    0    0  0.00000000000E+00  0.00000000000E+00  0.45593999997E+02  0.45594000000E+02  0.51100000000E-03 0.  1.
         11   -1    0    0    0    0 -0.00000000000E+00 -0.00000000000E+00 -0.45593999997E+02  0.45594000000E+02  0.51100000000E-03 0. -1.
    9900012    2    1    2    0    0  0.16287393200E+02  0.39205480747E+02 -0.90152326532E+01  0.47787270540E+02  0.19999997700E+02 0.  0.
         12    1    1    2    0    0 -0.16287393200E+02 -0.39205480747E+02  0.90152326532E+01  0.43400729460E+02  0.00000000000E+00 0. -1.
         11    1    3    3    0    0  0.10280790269E+02  0.10520819408E+02 -0.39941124804E+01  0.15242546518E+02  0.51100000000E-03 0. -1.
        -11    1    3    3    0    0  0.98097161679E+01  0.15318650683E+02 -0.17962227437E+01  0.18278895110E+02  0.51100000000E-03 0.  1.
         12    1    3    3    0    0 -0.38031132361E+01  0.13366010655E+02 -0.32248974291E+01  0.14265828912E+02  0.00000000000E+00 0. -1.
</event>
<event>
 7    1  0.2647566E-010  0.4778728E+02  0.7816164E-02  0.1312668E+00
        -11   -1    0    0    0    0  0.00000000000E+00  0.00000000000E+00  0.45593999997E+02  0.45594000000E+02  0.51100000000E-03 0.  1.
         11   -1    0    0    0    0 -0.00000000000E+00 -0.00000000000E+00 -0.45593999997E+02  0.45594000000E+02  0.51100000000E-03 0. -1.
    9900012    2    1    2    0    0 -0.17042460508E+02  0.37112867233E+02  0.14690551260E+02  0.47787277992E+02  0.20000031679E+02 0.  0.
         12    1    1    2    0    0  0.17042460508E+02 -0.37112867233E+02 -0.14690551260E+02  0.43400722008E+02  0.00000000000E+00 0. -1.
         11    1    3    3    0    0  0.16969746837E+01  0.29882857572E+01 -0.14173218050E+01  0.37173076553E+01  0.51100000000E-03 0. -1.
        -11    1    3    3    0    0 -0.71959239639E+01  0.93660353015E+01 -0.97440455438E+00  0.11851303872E+02  0.51100000000E-03 0.  1.
        -12    1    3    3    0    0 -0.11543511228E+02  0.24758546175E+02  0.17082277619E+02  0.32218666465E+02  0.00000000000E+00 0.  1.
</event>
<event>
 7    1  0.2647566E-010  0.4778727E+02  0.7816164E-02  0.1312668E+00
        -11   -1    0    0    0    0  0.00000000000E+00  0.00000000000E+00  0.45593999997E+02  0.45594000000E+02  0.51100000000E-03 0.  1.
         11   -1    0    0    0    0 -0.00000000000E+00 -0.00000000000E+00 -0.45593999997E+02  0.45594000000E+02  0.51100000000E-03 0. -1.
    9900012    2    1    2    0    0  0.29911555929E+02  0.27860130655E+02  0.14585446672E+02  0.47787270596E+02  0.19999997954E+02 0.  0.
         12    1    1    2    0    0 -0.29911555929E+02 -0.27860130655E+02 -0.14585446672E+02  0.43400729404E+02  0.00000000000E+00 0. -1.
         11    1    3    3    0    0 -0.14240276164E+01  0.43214066121E+01  0.38119781457E+00  0.45659305508E+01  0.51100000000E-03 0. -1.
        -11    1    3    3    0    0  0.52603100929E+01  0.91678646129E+01  0.89135299221E+00  0.10607314187E+02  0.51100000000E-03 0.  1.
         12    1    3    3    0    0  0.26075273453E+02  0.14370859430E+02  0.13312895865E+02  0.32614025858E+02  0.00000000000E+00 0. -1.
</event>
<event>
 7    1  0.2647566E-010  0.4778725E+02  0.7816164E-02  0.1312668E+00
        -11   -1    0    0    0    0  0.00000000000E+00  0.00000000000E+00  0.45593999997E+02  0.45594000000E+02  0.51100000000E-03 0.  1.
         11   -1    0    0    0    0 -0.00000000000E+00 -0.00000000000E+00 -0.45593999997E+02  0.45594000000E+02  0.51100000000E-03 0. -1.
    9900012    2    1    2    0    0  0.15331932714E+02 -0.11531218431E+02  0.38930556274E+02  0.47787246884E+02  0.19999889843E+02 0.  0.
         12    1    1    2    0    0 -0.15331932714E+02  0.11531218431E+02 -0.38930556274E+02  0.43400753116E+02  0.00000000000E+00 0. -1.
         11    1    3    3    0    0 -0.12473137969E+00 -0.17882243585E+01 -0.11995148592E+01  0.21568821090E+01  0.51100000000E-03 0. -1.
        -11    1    3    3    0    0  0.80681787192E+01 -0.13265940363E+01  0.27781046156E+02  0.28959314311E+02  0.51100000000E-03 0.  1.
         12    1    3    3    0    0  0.73884853742E+01 -0.84164000363E+01  0.12349024977E+02  0.16671050464E+02  0.00000000000E+00 0. -1.
</event>
<event>
 7    1  0.2647566E-010  0.4778727E+02  0.7816164E-02  0.1312668E+00
        -11   -1    0    0    0    0  0.00000000000E+00  0.00000000000E+00  0.45593999997E+02  0.45594000000E+02  0.51100000000E-03 0.  1.
         11   -1    0    0    0    0 -0.00000000000E+00 -0.00000000000E+00 -0.45593999997E+02  0.45594000000E+02  0.51100000000E-03 0. -1.
    9900012    2    1    2    0    0  0.35325480948E+02  0.11730830973E+02  0.22318629101E+02  0.47787271844E+02  0.20000003644E+02 0.  0.
         12    1    1    2    0    0 -0.35325480948E+02 -0.11730830973E+02 -0.22318629101E+02  0.43400728156E+02  0.00000000000E+00 0. -1.
         11    1    3    3    0    0  0.11747690274E+02  0.10145593932E+01  0.39166556274E+01  0.12424884269E+02  0.51100000000E-03 0. -1.
        -11    1    3    3    0    0  0.68765453474E+01 -0.33488826508E+01  0.83539059709E+01  0.11326501497E+02  0.51100000000E-03 0.  1.
         12    1    3    3    0    0  0.16701245327E+02  0.14065154231E+02  0.10048067502E+02  0.24035886078E+02  0.00000000000E+00 0. -1.
</event>
<event>
 7    1  0.2647566E-010  0.4778727E+02  0.7816164E-02  0.1312668E+00
        -11   -1    0    0    0    0  0.00000000000E+00  0.00000000000E+00  0.45593999997E+02  0.45594000000E+02  0.51100000000E-03 0.  1.
         11   -1    0    0    0    0 -0.00000000000E+00 -0.00000000000E+00 -0.45593999997E+02  0.45594000000E+02  0.51100000000E-03 0. -1.
    9900012    2    1    2    0    0  0.16501365716E+01 -0.38347852565E+00  0.43367657526E+02  0.47787265839E+02  0.19999976264E+02 0.  0.
         12    1    1    2    0    0 -0.16501365716E+01  0.38347852565E+00 -0.43367657526E+02  0.43400734161E+02  0.00000000000E+00 0. -1.
         11    1    3    3    0    0 -0.46872010721E+01 -0.10233572448E+00  0.25402537167E+01  0.53322805343E+01  0.51100000000E-03 0. -1.
        -11    1    3    3    0    0 -0.17542228165E+01 -0.15324713373E+01  0.19003375557E+02  0.19145601294E+02  0.51100000000E-03 0.  1.
         12    1    3    3    0    0  0.80915604602E+01  0.12513285361E+01  0.21824028252E+02  0.23309384010E+02  0.00000000000E+00 0. -1.
</event>
<event>
 7    1  0.2647566E-010  0.4778727E+02  0.7816164E-02  0.1312668E+00
        -11   -1    0    0    0    0  0.00000000000E+00  0.00000000000E+00  0.45593999997E+02  0.45594000000E+02  0.51100000000E-03 0.  1.
         11   -1    0    0    0    0 -0.00000000000E+00 -0.00000000000E+00 -0.45593999997E+02  0.45594000000E+02  0.51100000000E-03 0. -1.
    9900012    2    1    2    0    0  0.94687528476E+01  0.12661703843E+02  0.40418403517E+02  0.47787269965E+02  0.19999995078E+02 0.  0.
         12    1    1    2    0    0 -0.94687528476E+01 -0.12661703843E+02 -0.40418403517E+02  0.43400730035E+02  0.00000000000E+00 0. -1.
         11    1    3    3    0    0 -0.23145383472E+01 -0.25518490686E+01  0.23588761562E+01  0.41753225517E+01  0.51100000000E-03 0. -1.
        -11    1    3    3    0    0  0.44529681591E+01  0.93099660003E+00  0.13722405322E+02  0.14456835345E+02  0.51100000000E-03 0.  1.
        -12    1    3    3    0    0  0.73303230357E+01  0.14282556311E+02  0.24337122039E+02  0.29155112068E+02  0.00000000000E+00 0.  1.
</event>
<event>
 7    1  0.2647566E-010  0.4778727E+02  0.7816164E-02  0.1312668E+00
        -11   -1    0    0    0    0  0.00000000000E+00  0.00000000000E+00  0.45593999997E+02  0.45594000000E+02  0.51100000000E-03 0. -1.
         11   -1    0    0    0    0 -0.00000000000E+00 -0.00000000000E+00 -0.45593999997E+02  0.45594000000E+02  0.51100000000E-03 0.  1.
    9900012    2    1    2    0    0 -0.19697149353E+02 -0.27162937982E+02 -0.27528535404E+02  0.47787272426E+02  0.20000006298E+02 0.  0.
         12    1    1    2    0    0  0.19697149353E+02  0.27162937982E+02  0.27528535404E+02  0.43400727574E+02  0.00000000000E+00 0. -1.
         11    1    3    3    0    0 -0.80599679711E+01 -0.13082494208E+02 -0.16120527366E+02  0.22270746311E+02  0.51100000000E-03 0. -1.
        -11    1    3    3    0    0 -0.10923068838E+02 -0.16734502076E+02 -0.10744028900E+02  0.22689009450E+02  0.51100000000E-03 0.  1.
         12    1    3    3    0    0 -0.71411254393E+00  0.26540583019E+01 -0.66397913857E+00  0.28275166652E+01  0.00000000000E+00 0. -1.
</event>
<event>
 7    1  0.2647566E-010  0.4778728E+02  0.7816164E-02  0.1312668E+00
        -11   -1    0    0    0    0  0.00000000000E+00  0.00000000000E+00  0.45593999997E+02  0.45594000000E+02  0.51100000000E-03 0.  1.
         11   -1    0    0    0    0 -0.00000000000E+00 -0.00000000000E+00 -0.45593999997E+02  0.45594000000E+02  0.51100000000E-03 0. -1.
    9900012    2    1    2    0    0  0.12107524224E+02  0.27637785059E+02  0.31195886674E+02  0.47787278218E+02  0.20000032706E+02 0.  0.
         12    1    1    2    0    0 -0.12107524224E+02 -0.27637785059E+02 -0.31195886674E+02  0.43400721782E+02  0.00000000000E+00 0. -1.
         11    1    3    3    0    0  0.36626202561E+01  0.92529721716E+01  0.30379032618E+00  0.99561322798E+01  0.51100000000E-03 0. -1.
        -11    1    3    3    0    0 -0.10938014095E-01 -0.30767424335E+00  0.39744328165E+01  0.39863391168E+01  0.51100000000E-03 0.  1.
        -12    1    3    3    0    0  0.84558419822E+01  0.18692487131E+02  0.26917663532E+02  0.33844806821E+02  0.00000000000E+00 0.  1.
</event>
<event>
 7    1  0.2647566E-010  0.4778727E+02  0.7816164E-02  0.1312668E+00
        -11   -1    0    0    0    0  0.00000000000E+00  0.00000000000E+00  0.45593999997E+02  0.45594000000E+02  0.51100000000E-03 0.  1.
         11   -1    0    0    0    0 -0.00000000000E+00 -0.00000000000E+00 -0.45593999997E+02  0.45594000000E+02  0.51100000000E-03 0. -1.
    9900012    2    1    2    0    0  0.43346418844E+02  0.21624837267E+01  0.18758581144E+00  0.47787267853E+02  0.19999985447E+02 0.  0.
         12    1    1    2    0    0 -0.43346418844E+02 -0.21624837267E+01 -0.18758581144E+00  0.43400732147E+02  0.00000000000E+00 0. -1.
         11    1    3    3    0    0 -0.38465592540E+00 -0.14156131224E+01  0.22530994503E+01  0.26885643171E+01  0.51100000000E-03 0. -1.
        -11    1    3    3    0    0  0.13723689332E+02 -0.30739121268E+01 -0.28644217656E+01  0.14352473549E+02  0.51100000000E-03 0.  1.
         12    1    3    3    0    0  0.30007385437E+02  0.66520089759E+01  0.79890812669E+00  0.30746229987E+02  0.00000000000E+00 0. -1.
</event>
<event>
 7    1  0.2647566E-010  0.4778727E+02  0.7816164E-02  0.1312668E+00
        -11   -1    0    0    0    0  0.00000000000E+00  0.00000000000E+00  0.45593999997E+02  0.45594000000E+02  0.51100000000E-03 0.  1.
         11   -1    0    0    0    0 -0.00000000000E+00 -0.00000000000E+00 -0.45593999997E+02  0.45594000000E+02  0.51100000000E-03 0. -1.
    9900012    2    1    2    0    0  0.14180954047E+02  0.29413407371E+02  0.28589779642E+02  0.47787268545E+02  0.19999988603E+02 0.  0.
         12    1    1    2    0    0 -0.14180954047E+02 -0.29413407371E+02 -0.28589779642E+02  0.43400731455E+02  0.00000000000E+00 0. -1.
         11    1    3    3    0    0  0.17775489770E+01  0.11195912574E+02  0.22847156315E+01  0.11564085113E+02  0.51100000000E-03 0. -1.
        -11    1    3    3    0    0  0.90182943796E+01  0.71732839543E+01  0.63269378042E+01  0.13145941520E+02  0.51100000000E-03 0.  1.
         12    1    3    3    0    0  0.33851106900E+01  0.11044210843E+02  0.19978126207E+02  0.23077241912E+02  0.00000000000E+00 0. -1.
</event>
<event>
 7    1  0.2647566E-010  0.4778727E+02  0.7816164E-02  0.1312668E+00
        -11   -1    0    0    0    0  0.00000000000E+00  0.00000000000E+00  0.45593999997E+02  0.45594000000E+02  0.51100000000E-03 0. -1.
         11   -1    0    0    0    0 -0.00000000000E+00 -0.00000000000E+00 -0.45593999997E+02  0.45594000000E+02  0.51100000000E-03 0.  1.
    9900012    2    1    2    0    0 -0.13130859245E+02  0.23866778529E+02 -0.33787285455E+02  0.47787271432E+02  0.20000001766E+02 0.  0.
         12    1    1    2    0    0  0.13130859245E+02 -0.23866778529E+02  0.33787285455E+02  0.43400728568E+02  0.00000000000E+00 0. -1.
         11    1    3    3    0    0  0.48780862537E+01  0.43467663793E+01 -0.96024962524E+01  0.11614561464E+02  0.51100000000E-03 0. -1.
        -11    1    3    3    0    0 -0.91414406255E+01  0.11777085453E+02 -0.11207165452E+02  0.18651172515E+02  0.51100000000E-03 0.  1.
        -12    1    3    3    0    0 -0.88675048734E+01  0.77429266967E+01 -0.12977623750E+02  0.17521537453E+02  0.00000000000E+00 0.  1.
</event>
<event>
 7    1  0.2647566E-010  0.4778726E+02  0.7816164E-02  0.1312668E+00
        -11   -1    0    0    0    0  0.00000000000E+00  0.00000000000E+00  0.45593999997E+02  0.45594000000E+02  0.51100000000E-03 0.  1.
         11   -1    0    0    0    0 -0.00000000000E+00 -0.00000000000E+00 -0.45593999997E+02  0.45594000000E+02  0.51100000000E-03 0. -1.
    9900012    2    1    2    0    0  0.26055929987E+02 -0.30175139969E+02  0.17151491020E+02  0.47787260330E+02  0.19999951150E+02 0.  0.
         12    1    1    2    0    0 -0.26055929987E+02  0.30175139969E+02 -0.17151491020E+02  0.43400739670E+02  0.00000000000E+00 0. -1.
         11    1    3    3    0    0  0.11892139044E+00  0.21987966923E+01 -0.20448924726E+00  0.22114848642E+01  0.51100000000E-03 0. -1.
        -11    1    3    3    0    0  0.38187999591E+01 -0.84807729427E+01  0.61138278857E+01  0.11130392379E+02  0.51100000000E-03 0.  1.
         12    1    3    3    0    0  0.22118208638E+02 -0.23893163719E+02  0.11242152382E+02  0.34445383087E+02  0.00000000000E+00 0. -1.
</event>
<event>
 7    1  0.2647566E-010  0.4778727E+02  0.7816164E-02  0.1312668E+00
        -11   -1    0    0    0    0  0.00000000000E+00  0.00000000000E+00  0.45593999997E+02  0.45594000000E+02  0.51100000000E-03 0. -1.
         11   -1    0    0    0    0 -0.00000000000E+00 -0.00000000000E+00 -0.45593999997E+02  0.45594000000E+02  0.51100000000E-03 0.  1.
    9900012    2    1    2    0    0  0.30930318280E+02  0.24261323030E+02 -0.18393657656E+02  0.47787273900E+02  0.20000013018E+02 0.  0.
         12    1    1    2    0    0 -0.30930318280E+02 -0.24261323030E+02  0.18393657656E+02  0.43400726100E+02  0.00000000000E+00 0. -1.
         11    1    3    3    0    0  0.54452016766E+01  0.37860889438E+01 -0.70995772403E+01  0.97153840912E+01  0.51100000000E-03 0. -1.
        -11    1    3    3    0    0  0.16798128103E+02  0.14179798538E+02 -0.15121261032E+02  0.26681385455E+02  0.51100000000E-03 0.  1.
         12    1    3    3    0    0  0.86869885004E+01  0.62954355485E+01  0.38271806163E+01  0.11390504353E+02  0.00000000000E+00 0. -1.
</event>
<event>
 7    1  0.2647566E-010  0.4778727E+02  0.7816164E-02  0.1312668E+00
        -11   -1    0    0    0    0  0.00000000000E+00  0.00000000000E+00  0.45593999997E+02  0.45594000000E+02  0.51100000000E-03 0. -1.
         11   -1    0    0    0    0 -0.00000000000E+00 -0.00000000000E+00 -0.45593999997E+02  0.45594000000E+02  0.51100000000E-03 0.  1.
    9900012    2    1    2    0    0  0.33984069734E+02  0.22630939489E+02  0.14715548169E+02  0.47787265262E+02  0.19999973636E+02 0.  0.
         12    1    1    2    0    0 -0.33984069734E+02 -0.22630939489E+02 -0.14715548169E+02  0.43400734738E+02  0.00000000000E+00 0. -1.
         11    1    3    3    0    0  0.67307554707E+00  0.19021429921E+01  0.40634861362E+01  0.45368599818E+01  0.51100000000E-03 0. -1.
        -11    1    3    3    0    0  0.12731672419E+02  0.51111138835E-01  0.37364832493E+01  0.13268737779E+02  0.51100000000E-03 0.  1.
         12    1    3    3    0    0  0.20579321769E+02  0.20677685358E+02  0.69155787832E+01  0.29981667501E+02  0.00000000000E+00 0. -1.
</event>
<event>
 7    1  0.2647566E-010  0.4778727E+02  0.7816164E-02  0.1312668E+00
        -11   -1    0    0    0    0  0.00000000000E+00  0.00000000000E+00  0.45593999997E+02  0.45594000000E+02  0.51100000000E-03 0.  1.
         11   -1    0    0    0    0 -0.00000000000E+00 -0.00000000000E+00 -0.45593999997E+02  0.45594000000E+02  0.51100000000E-03 0. -1.
    9900012    2    1    2    0    0  0.32406388254E+01  0.20038429154E+02  0.38361216433E+02  0.47787270638E+02  0.19999998147E+02 0.  0.
         12    1    1    2    0    0 -0.32406388254E+01 -0.20038429154E+02 -0.38361216433E+02  0.43400729362E+02  0.00000000000E+00 0. -1.
         11    1    3    3    0    0 -0.23512317543E+01  0.72326858677E+01  0.18553758308E+02  0.20051982027E+02  0.51100000000E-03 0. -1.
        -11    1    3    3    0    0  0.47274286914E+01  0.46694442513E+01  0.18229061387E+02  0.19402344471E+02  0.51100000000E-03 0.  1.
         12    1    3    3    0    0  0.86444188831E+00  0.81362990355E+01  0.15783967375E+01  0.83329441396E+01  0.00000000000E+00 0. -1.
</event>
<event>
 7    1  0.2647566E-010  0.4778727E+02  0.7816164E-02  0.1312668E+00
        -11   -1    0    0    0    0  0.00000000000E+00  0.00000000000E+00  0.45593999997E+02  0.45594000000E+02  0.51100000000E-03 0.  1.
         11   -1    0    0    0    0 -0.00000000000E+00 -0.00000000000E+00 -0.45593999997E+02  0.45594000000E+02  0.51100000000E-03 0. -1.
    9900012    2    1    2    0    0 -0.26750053155E+02 -0.64402895662E+01  0.33564570223E+02  0.47787273649E+02  0.20000011875E+02 0.  0.
         12    1    1    2    0    0  0.26750053155E+02  0.64402895662E+01 -0.33564570223E+02  0.43400726351E+02  0.00000000000E+00 0. -1.
         11    1    3    3    0    0 -0.10676147355E+02 -0.63233332339E+01  0.10039674917E+02  0.15961194762E+02  0.51100000000E-03 0. -1.
        -11    1    3    3    0    0 -0.13698827938E+01 -0.49134950969E+01  0.10228236299E+02  0.11429603274E+02  0.51100000000E-03 0.  1.
        -12    1    3    3    0    0 -0.14704023006E+02  0.47965387646E+01  0.13296659007E+02  0.20396475613E+02  0.00000000000E+00 0.  1.
</event>
<event>
 7    1  0.2647566E-010  0.4778727E+02  0.7816164E-02  0.1312668E+00
        -11   -1    0    0    0    0  0.00000000000E+00  0.00000000000E+00  0.45593999997E+02  0.45594000000E+02  0.51100000000E-03 0. -1.
         11   -1    0    0    0    0 -0.00000000000E+00 -0.00000000000E+00 -0.45593999997E+02  0.45594000000E+02  0.51100000000E-03 0.  1.
    9900012    2    1    2    0    0 -0.40783753755E+02 -0.13822367989E+02 -0.54084129902E+01  0.47787270072E+02  0.19999995567E+02 0.  0.
         12    1    1    2    0    0  0.40783753755E+02  0.13822367989E+02  0.54084129902E+01  0.43400729928E+02  0.00000000000E+00 0. -1.
         11    1    3    3    0    0 -0.84154672415E+01 -0.10254402979E+01 -0.16647795431E+00  0.84793473727E+01  0.51100000000E-03 0. -1.
        -11    1    3    3    0    0 -0.31543275712E+02 -0.60180158823E+01 -0.47455345709E+01  0.32460974361E+02  0.51100000000E-03 0.  1.
         12    1    3    3    0    0 -0.82501080179E+00 -0.67789118086E+01 -0.49640046493E+00  0.68469483388E+01  0.00000000000E+00 0. -1.
</event>
<event>
 7    1  0.2647566E-010  0.4778727E+02  0.7816164E-02  0.1312668E+00
        -11   -1    0    0    0    0  0.00000000000E+00  0.00000000000E+00  0.45593999997E+02  0.45594000000E+02  0.51100000000E-03 0. -1.
         11   -1    0    0    0    0 -0.00000000000E+00 -0.00000000000E+00 -0.45593999997E+02  0.45594000000E+02  0.51100000000E-03 0.  1.
    9900012    2    1    2    0    0 -0.42082388441E+02  0.61483854978E-01  0.10615646715E+02  0.47787272444E+02  0.20000006381E+02 0.  0.
         12    1    1    2    0    0  0.42082388441E+02 -0.61483854978E-01 -0.10615646715E+02  0.43400727556E+02  0.00000000000E+00 0. -1.
         11    1    3    3    0    0 -0.90477686229E+01 -0.25763793862E+01 -0.39287863095E+01  0.10194861937E+02  0.51100000000E-03 0. -1.
        -11    1    3    3    0    0 -0.20745805503E+02  0.27794802004E+01  0.38105490484E+01  0.21275202477E+02  0.51100000000E-03 0.  1.
        -12    1    3    3    0    0 -0.12288814316E+02 -0.14161695920E+00  0.10733883976E+02  0.16317208029E+02  0.00000000000E+00 0.  1.
</event>
<event>
 7    1  0.2647566E-010  0.4778727E+02  0.7816164E-02  0.1312668E+00
        -11   -1    0    0    0    0  0.00000000000E+00  0.00000000000E+00  0.45593999997E+02  0.45594000000E+02  0.51100000000E-03 0.  1.
         11   -1    0    0    0    0 -0.00000000000E+00 -0.00000000000E+00 -0.45593999997E+02  0.45594000000E+02  0.51100000000E-03 0. -1.
    9900012    2    1    2    0    0 -0.39149341988E+02 -0.10699064964E+02 -0.15377978987E+02  0.47787271816E+02  0.20000003518E+02 0.  0.
         12    1    1    2    0    0  0.39149341988E+02  0.10699064964E+02  0.15377978987E+02  0.43400728184E+02  0.00000000000E+00 0. -1.
         11    1    3    3    0    0 -0.14486845493E+02 -0.50701290608E+01 -0.94752971309E+01  0.18037631691E+02  0.51100000000E-03 0. -1.
        -11    1    3    3    0    0 -0.23720916583E+02 -0.41142974726E+00 -0.37121563509E+01  0.24013147712E+02  0.51100000000E-03 0.  1.
         12    1    3    3    0    0 -0.94157991146E+00 -0.52175061564E+01 -0.21905255054E+01  0.57364924136E+01  0.00000000000E+00 0. -1.
</event>
<event>
 7    1  0.2647566E-010  0.4778727E+02  0.7816164E-02  0.1312668E+00
        -11   -1    0    0    0    0  0.00000000000E+00  0.00000000000E+00  0.45593999997E+02  0.45594000000E+02  0.51100000000E-03 0. -1.
         11   -1    0    0    0    0 -0.00000000000E+00 -0.00000000000E+00 -0.45593999997E+02  0.45594000000E+02  0.51100000000E-03 0.  1.
    9900012    2    1    2    0    0 -0.28330825367E+02  0.20191200848E+02 -0.25948084869E+02  0.47787269983E+02  0.19999995160E+02 0.  0.
         12    1    1    2    0    0  0.28330825367E+02 -0.20191200848E+02  0.25948084869E+02  0.43400730017E+02  0.00000000000E+00 0. -1.
         11    1    3    3    0    0 -0.50003952612E+01  0.15213148825E+00 -0.12475488612E+01  0.51559165219E+01  0.51100000000E-03 0. -1.
        -11    1    3    3    0    0 -0.20790345704E+02  0.85682369781E+01 -0.12646874841E+02  0.25799158957E+02  0.51100000000E-03 0.  1.
         12    1    3    3    0    0 -0.25400844017E+01  0.11470832382E+02 -0.12053661166E+02  0.16832194504E+02  0.00000000000E+00 0. -1.
</event>
<event>
 7    1  0.2647566E-010  0.4778727E+02  0.7816164E-02  0.1312668E+00
        -11   -1    0    0    0    0  0.00000000000E+00  0.00000000000E+00  0.45593999997E+02  0.45594000000E+02  0.51100000000E-03 0. -1.
         11   -1    0    0    0    0 -0.00000000000E+00 -0.00000000000E+00 -0.45593999997E+02  0.45594000000E+02  0.51100000000E-03 0.  1.
    9900012    2    1    2    0    0  0.32032372433E+02 -0.17522913520E+02 -0.23462692440E+02  0.47787270531E+02  0.19999997658E+02 0.  0.
         12    1    1    2    0    0 -0.32032372433E+02  0.17522913520E+02  0.23462692440E+02  0.43400729469E+02  0.00000000000E+00 0. -1.
         11    1    3    3    0    0  0.46943088237E+01 -0.35041366956E+01 -0.89270834924E+01  0.10677468298E+02  0.51100000000E-03 0. -1.
        -11    1    3    3    0    0  0.37711923008E+01  0.30752426778E+01 -0.84932698399E+00  0.49396726090E+01  0.51100000000E-03 0.  1.
        -12    1    3    3    0    0  0.23566871308E+02 -0.17094019503E+02 -0.13686281964E+02  0.32170129624E+02  0.00000000000E+00 0.  1.
</event>
<event>
 7    1  0.2647566E-010  0.4778727E+02  0.7816164E-02  0.1312668E+00
        -11   -1    0    0    0    0  0.00000000000E+00  0.00000000000E+00  0.45593999997E+02  0.45594000000E+02  0.51100000000E-03 0.  1.
         11   -1    0    0    0    0 -0.00000000000E+00 -0.00000000000E+00 -0.45593999997E+02  0.45594000000E+02  0.51100000000E-03 0. -1.
    9900012    2    1    2    0    0 -0.25117546428E+02  0.20701401234E+02  0.28708605814E+02  0.47787271903E+02  0.20000003915E+02 0.  0.
         12    1    1    2    0    0  0.25117546428E+02 -0.20701401234E+02 -0.28708605814E+02  0.43400728097E+02  0.00000000000E+00 0. -1.
         11    1    3    3    0    0 -0.10320554193E+02  0.41883141226E+01  0.17007318508E+02  0.20329896633E+02  0.51100000000E-03 0. -1.
        -11    1    3    3    0    0 -0.32932176260E+01  0.10016881084E+02  0.92374365997E+01  0.14018324585E+02  0.51100000000E-03 0.  1.
         12    1    3    3    0    0 -0.11503774609E+02  0.64962060274E+01  0.24638507061E+01  0.13439050684E+02  0.00000000000E+00 0. -1.
</event>
<event>
 7    1  0.2647566E-010  0.4778727E+02  0.7816164E-02  0.1312668E+00
        -11   -1    0    0    0    0  0.00000000000E+00  0.00000000000E+00  0.45593999997E+02  0.45594000000E+02  0.51100000000E-03 0. -1.
         11   -1    0    0    0    0 -0.00000000000E+00 -0.00000000000E+00 -0.45593999997E+02  0.45594000000E+02  0.51100000000E-03 0.  1.
    9900012    2    1    2    0    0  0.41388786735E+02 -0.11941271489E+02 -0.52912895292E+01  0.47787269855E+02  0.19999994579E+02 0.  0.
         12    1    1    2    0    0 -0.41388786735E+02  0.11941271489E+02  0.52912895292E+01  0.43400730145E+02  0.00000000000E+00 0. -1.
         11    1    3    3    0    0  0.18081932268E+02 -0.22709728987E+01  0.24593190589E+01  0.18389177332E+02  0.51100000000E-03 0. -1.
        -11    1    3    3    0    0  0.14002816515E+02 -0.96542771993E+01  0.42312927268E+00  0.17013611529E+02  0.51100000000E-03 0.  1.
         12    1    3    3    0    0  0.93040379524E+01 -0.16021390704E-01 -0.81737378608E+01  0.12384480995E+02  0.00000000000E+00 0. -1.
</event>
<event>
 7    1  0.2647566E-010  0.4778727E+02  0.7816164E-02  0.1312668E+00
        -11   -1    0    0    0    0  0.00000000000E+00  0.00000000000E+00  0.45593999997E+02  0.45594000000E+02  0.51100000000E-03 0. -1.
         11   -1    0    0    0    0 -0.00000000000E+00 -0.00000000000E+00 -0.45593999997E+02  0.45594000000E+02  0.51100000000E-03 0.  1.
    9900012    2    1    2    0    0  0.28426688749E+02 -0.13668354869E+01 -0.32767031643E+02  0.47787271490E+02  0.20000002033E+02 0.  0.
         12    1    1    2    0    0 -0.28426688749E+02  0.13668354869E+01  0.32767031643E+02  0.43400728510E+02  0.00000000000E+00 0. -1.
         11    1    3    3    0    0  0.18103907414E+01 -0.47100771237E+01 -0.36367272293E+01  0.62199780023E+01  0.51100000000E-03 0. -1.
        -11    1    3    3    0    0  0.18952646525E+02 -0.31632808346E+01 -0.22179516621E+02  0.29345188937E+02  0.51100000000E-03 0.  1.
        -12    1    3    3    0    0  0.76636514819E+01  0.65065224714E+01 -0.69507877926E+01  0.12222104551E+02  0.00000000000E+00 0.  1.
</event>
<event>
 7    1  0.2647566E-010  0.4778727E+02  0.7816164E-02  0.1312668E+00
        -11   -1    0    0    0    0  0.00000000000E+00  0.00000000000E+00  0.45593999997E+02  0.45594000000E+02  0.51100000000E-03 0. -1.
         11   -1    0    0    0    0 -0.00000000000E+00 -0.00000000000E+00 -0.45593999997E+02  0.45594000000E+02  0.51100000000E-03 0.  1.
    9900012    2    1    2    0    0 -0.40391121956E+02  0.12394316525E+02  0.99278180881E+01  0.47787269741E+02  0.19999994058E+02 0.  0.
         12    1    1    2    0    0  0.40391121956E+02 -0.12394316525E+02 -0.99278180881E+01  0.43400730259E+02  0.00000000000E+00 0. -1.
         11    1    3    3    0    0 -0.10282417247E+02  0.46005130325E+01  0.92230830464E+01  0.14558780366E+02  0.51100000000E-03 0. -1.
        -11    1    3    3    0    0 -0.38248135706E+01 -0.27226304254E+01 -0.12282530298E+01  0.48528879082E+01  0.51100000000E-03 0.  1.
        -12    1    3    3    0    0 -0.26283891139E+02  0.10516433917E+02  0.19329880714E+01  0.28375601467E+02  0.00000000000E+00 0.  1.
</event>
<event>
 7    1  0.2647566E-010  0.4778727E+02  0.7816164E-02  0.1312668E+00
        -11   -1    0    0    0    0  0.00000000000E+00  0.00000000000E+00  0.45593999997E+02  0.45594000000E+02  0.51100000000E-03 0.  1.
         11   -1    0    0    0    0 -0.00000000000E+00 -0.00000000000E+00 -0.45593999997E+02  0.45594000000E+02  0.51100000000E-03 0. -1.
    9900012    2    1    2    0    0 -0.12042250654E+02 -0.19173415836E+00  0.41696172149E+02  0.47787270344E+02  0.19999996808E+02 0.  0.
         12    1    1    2    0    0  0.12042250654E+02  0.19173415836E+00 -0.41696172149E+02  0.43400729656E+02  0.00000000000E+00 0. -1.
         11    1    3    3    0    0 -0.47807526345E+01 -0.24546258151E+00  0.90677448937E+00  0.48721748601E+01  0.51100000000E-03 0.  1.
        -11    1    3    3    0    0  0.12854916932E+01 -0.34299182862E+01  0.71654246787E+01  0.80473684786E+01  0.51100000000E-03 0. -1.
        -12    1    3    3    0    0 -0.85469897124E+01  0.34836467094E+01  0.33623972981E+02  0.34867727006E+02  0.00000000000E+00 0.  1.
</event>
<event>
 7    1  0.2647566E-010  0.4778727E+02  0.7816164E-02  0.1312668E+00
        -11   -1    0    0    0    0  0.00000000000E+00  0.00000000000E+00  0.45593999997E+02  0.45594000000E+02  0.51100000000E-03 0.  1.
         11   -1    0    0    0    0 -0.00000000000E+00 -0.00000000000E+00 -0.45593999997E+02  0.45594000000E+02  0.51100000000E-03 0. -1.
    9900012    2    1    2    0    0 -0.20622862660E+01 -0.12589963414E+02  0.41483291585E+02  0.47787266318E+02  0.19999978450E+02 0.  0.
         12    1    1    2    0    0  0.20622862660E+01  0.12589963414E+02 -0.41483291585E+02  0.43400733682E+02  0.00000000000E+00 0. -1.
         11    1    3    3    0    0  0.11395433817E+01 -0.30565591080E+01  0.23751520005E+02  0.23974482591E+02  0.51100000000E-03 0. -1.
        -11    1    3    3    0    0 -0.25770019285E+01 -0.82158518260E+01  0.19620445517E+02  0.21426689961E+02  0.51100000000E-03 0.  1.
         12    1    3    3    0    0 -0.62482771920E+00 -0.13175524799E+01 -0.18886739369E+01  0.23860937651E+01  0.00000000000E+00 0. -1.
</event>
<event>
 7    1  0.2647566E-010  0.4778727E+02  0.7816164E-02  0.1312668E+00
        -11   -1    0    0    0    0  0.00000000000E+00  0.00000000000E+00  0.45593999997E+02  0.45594000000E+02  0.51100000000E-03 0.  1.
         11   -1    0    0    0    0 -0.00000000000E+00 -0.00000000000E+00 -0.45593999997E+02  0.45594000000E+02  0.51100000000E-03 0. -1.
    9900012    2    1    2    0    0 -0.36723342697E+02 -0.20490620444E+02 -0.10730980456E+02  0.47787269976E+02  0.19999995128E+02 0.  0.
         12    1    1    2    0    0  0.36723342697E+02  0.20490620444E+02  0.10730980456E+02  0.43400730024E+02  0.00000000000E+00 0. -1.
         11    1    3    3    0    0 -0.10270343276E+02 -0.11087444926E+02  0.26080897825E+01  0.15336672343E+02  0.51100000000E-03 0. -1.
        -11    1    3    3    0    0  0.67985518478E+00 -0.13904309687E+00  0.22987238210E+00  0.73101137353E+00  0.51100000000E-03 0.  1.
        -12    1    3    3    0    0 -0.27132854606E+02 -0.92641324218E+01 -0.13568942621E+02  0.31719586259E+02  0.00000000000E+00 0.  1.
</event>
<event>
 7    1  0.2647566E-010  0.4778727E+02  0.7816164E-02  0.1312668E+00
        -11   -1    0    0    0    0  0.00000000000E+00  0.00000000000E+00  0.45593999997E+02  0.45594000000E+02  0.51100000000E-03 0.  1.
         11   -1    0    0    0    0 -0.00000000000E+00 -0.00000000000E+00 -0.45593999997E+02  0.45594000000E+02  0.51100000000E-03 0. -1.
    9900012    2    1    2    0    0  0.31030406086E+01 -0.24247926329E+02  0.35861296366E+02  0.47787269945E+02  0.19999994986E+02 0.  0.
         12    1    1    2    0    0 -0.31030406086E+01  0.24247926329E+02 -0.35861296366E+02  0.43400730055E+02  0.00000000000E+00 0. -1.
         11    1    3    3    0    0 -0.18442947408E+01 -0.20520747309E+01  0.27436882566E+01  0.38910486122E+01  0.51100000000E-03 0.  1.
        -11    1    3    3    0    0  0.83555385975E+01 -0.12133619505E+02  0.83213246226E+01  0.16919934731E+02  0.51100000000E-03 0. -1.
         12    1    3    3    0    0 -0.34082032481E+01 -0.10062232093E+02  0.24796283487E+02  0.26976286602E+02  0.00000000000E+00 0. -1.
</event>
<event>
 7    1  0.2647566E-010  0.4778727E+02  0.7816164E-02  0.1312668E+00
        -11   -1    0    0    0    0  0.00000000000E+00  0.00000000000E+00  0.45593999997E+02  0.45594000000E+02  0.51100000000E-03 0.  1.
         11   -1    0    0    0    0 -0.00000000000E+00 -0.00000000000E+00 -0.45593999997E+02  0.45594000000E+02  0.51100000000E-03 0. -1.
    9900012    2    1    2    0    0  0.28127458564E+02 -0.25689937984E+02 -0.20796544110E+02  0.47787273211E+02  0.20000009878E+02 0.  0.
         12    1    1    2    0    0 -0.28127458564E+02  0.25689937984E+02  0.20796544110E+02  0.43400726789E+02  0.00000000000E+00 0. -1.
         11    1    3    3    0    0  0.55401429099E+01 -0.88204529737E+01  0.13530670736E+01  0.10503540588E+02  0.51100000000E-03 0. -1.
        -11    1    3    3    0    0  0.10969108430E+02 -0.14005155600E+02 -0.10920515309E+02  0.20873988071E+02  0.51100000000E-03 0.  1.
        -12    1    3    3    0    0  0.11618207224E+02 -0.28643294105E+01 -0.11229095874E+02  0.16409744551E+02  0.00000000000E+00 0.  1.
</event>
<event>
 7    1  0.2647566E-010  0.4778727E+02  0.7816164E-02  0.1312668E+00
        -11   -1    0    0    0    0  0.00000000000E+00  0.00000000000E+00  0.45593999997E+02  0.45594000000E+02  0.51100000000E-03 0. -1.
         11   -1    0    0    0    0 -0.00000000000E+00 -0.00000000000E+00 -0.45593999997E+02  0.45594000000E+02  0.51100000000E-03 0.  1.
    9900012    2    1    2    0    0 -0.75048822634E+01  0.42218986687E+02 -0.66975448035E+01  0.47787271883E+02  0.20000003823E+02 0.  0.
         12    1    1    2    0    0  0.75048822634E+01 -0.42218986687E+02  0.66975448035E+01  0.43400728117E+02  0.00000000000E+00 0. -1.
         11    1    3    3    0    0  0.17445750961E+01  0.24926954172E+01  0.19730971041E+01  0.36263184020E+01  0.51100000000E-03 0. -1.
        -11    1    3    3    0    0  0.19038751573E+01  0.14959587914E+01 -0.31240353846E+01  0.39524967635E+01  0.51100000000E-03 0.  1.
        -12    1    3    3    0    0 -0.11153332517E+02  0.38230332479E+02 -0.55466065230E+01  0.40208456717E+02  0.00000000000E+00 0.  1.
</event>
<event>
 7    1  0.2647566E-010  0.4778727E+02  0.7816164E-02  0.1312668E+00
        -11   -1    0    0    0    0  0.00000000000E+00  0.00000000000E+00  0.45593999997E+02  0.45594000000E+02  0.51100000000E-03 0. -1.
         11   -1    0    0    0    0 -0.00000000000E+00 -0.00000000000E+00 -0.45593999997E+02  0.45594000000E+02  0.51100000000E-03 0.  1.
    9900012    2    1    2    0    0 -0.25884634219E+01 -0.24217530311E+02 -0.35922614849E+02  0.47787272185E+02  0.20000005201E+02 0.  0.
         12    1    1    2    0    0  0.25884634219E+01  0.24217530311E+02  0.35922614849E+02  0.43400727815E+02  0.00000000000E+00 0. -1.
         11    1    3    3    0    0 -0.20629235526E+01 -0.19608177814E+01 -0.54753430887E+00  0.28983191743E+01  0.51100000000E-03 0. -1.
        -11    1    3    3    0    0  0.51703102156E+01 -0.15331508424E+02 -0.12905601776E+02  0.20696420361E+02  0.51100000000E-03 0.  1.
        -12    1    3    3    0    0 -0.56958500849E+01 -0.69252041053E+01 -0.22469478765E+02  0.24192532650E+02  0.00000000000E+00 0.  1.
</event>
<event>
 7    1  0.2647566E-010  0.4778727E+02  0.7816164E-02  0.1312668E+00
        -11   -1    0    0    0    0  0.00000000000E+00  0.00000000000E+00  0.45593999997E+02  0.45594000000E+02  0.51100000000E-03 0.  1.
         11   -1    0    0    0    0 -0.00000000000E+00 -0.00000000000E+00 -0.45593999997E+02  0.45594000000E+02  0.51100000000E-03 0. -1.
    9900012    2    1    2    0    0 -0.30689229495E+02 -0.13736755814E+02  0.27442591373E+02  0.47787273179E+02  0.20000009734E+02 0.  0.
         12    1    1    2    0    0  0.30689229495E+02  0.13736755814E+02 -0.27442591373E+02  0.43400726821E+02  0.00000000000E+00 0. -1.
         11    1    3    3    0    0 -0.12957861506E+02 -0.22118794860E+01  0.59676337889E+01  0.14436455208E+02  0.51100000000E-03 0. -1.
        -11    1    3    3    0    0 -0.19052363586E+02 -0.95436888633E+01  0.22287151612E+02  0.30834910127E+02  0.51100000000E-03 0.  1.
        -12    1    3    3    0    0  0.13209955971E+01 -0.19811874650E+01 -0.81219402834E+00  0.25159078438E+01  0.00000000000E+00 0.  1.
</event>
<event>
 7    1  0.2647566E-010  0.4778727E+02  0.7816164E-02  0.1312668E+00
        -11   -1    0    0    0    0  0.00000000000E+00  0.00000000000E+00  0.45593999997E+02  0.45594000000E+02  0.51100000000E-03 0. -1.
         11   -1    0    0    0    0 -0.00000000000E+00 -0.00000000000E+00 -0.45593999997E+02  0.45594000000E+02  0.51100000000E-03 0.  1.
    9900012    2    1    2    0    0  0.34131574850E+02 -0.26805497537E+02 -0.35239518699E+00  0.47787270948E+02  0.19999999558E+02 0.  0.
         12    1    1    2    0    0 -0.34131574850E+02  0.26805497537E+02  0.35239518699E+00  0.43400729052E+02  0.00000000000E+00 0. -1.
         11    1    3    3    0    0  0.80635614657E+01 -0.31848143954E+01  0.40093500086E+00  0.86789870020E+01  0.51100000000E-03 0. -1.
        -11    1    3    3    0    0  0.19110392976E+02 -0.25463584001E+02  0.27065925613E+00  0.31838255080E+02  0.51100000000E-03 0.  1.
        -12    1    3    3    0    0  0.69576204079E+01  0.18429008595E+01 -0.10239894440E+01  0.72700288651E+01  0.00000000000E+00 0.  1.
</event>
<event>
 7    1  0.2647566E-010  0.4778727E+02  0.7816164E-02  0.1312668E+00
        -11   -1    0    0    0    0  0.00000000000E+00  0.00000000000E+00  0.45593999997E+02  0.45594000000E+02  0.51100000000E-03 0. -1.
         11   -1    0    0    0    0 -0.00000000000E+00 -0.00000000000E+00 -0.45593999997E+02  0.45594000000E+02  0.51100000000E-03 0.  1.
    9900012    2    1    2    0    0 -0.24346011688E+02 -0.31006168366E+02 -0.18152480459E+02  0.47787270644E+02  0.19999998173E+02 0.  0.
         12    1    1    2    0    0  0.24346011688E+02  0.31006168366E+02  0.18152480459E+02  0.43400729356E+02  0.00000000000E+00 0. -1.
         11    1    3    3    0    0  0.55676112954E+00  0.80260490577E+00 -0.28854978650E+00  0.10185375941E+01  0.51100000000E-03 0. -1.
        -11    1    3    3    0    0 -0.12983834949E+02 -0.19977770919E+02 -0.18182962853E+02  0.29971844109E+02  0.51100000000E-03 0.  1.
        -12    1    3    3    0    0 -0.11918937868E+02 -0.11831002352E+02  0.31903218032E+00  0.16796888941E+02  0.00000000000E+00 0.  1.
</event>
<event>
 7    1  0.2647566E-010  0.4778727E+02  0.7816164E-02  0.1312668E+00
        -11   -1    0    0    0    0  0.00000000000E+00  0.00000000000E+00  0.45593999997E+02  0.45594000000E+02  0.51100000000E-03 0. -1.
         11   -1    0    0    0    0 -0.00000000000E+00 -0.00000000000E+00 -0.45593999997E+02  0.45594000000E+02  0.51100000000E-03 0.  1.
    9900012    2    1    2    0    0  0.27078949035E+02  0.30796763250E+02 -0.14209617703E+02  0.47787270251E+02  0.19999996381E+02 0.  0.
         12    1    1    2    0    0 -0.27078949035E+02 -0.30796763250E+02  0.14209617703E+02  0.43400729749E+02  0.00000000000E+00 0. -1.
         11    1    3    3    0    0  0.58183942277E+01  0.10329930871E+00 -0.29576211163E+01  0.65277794896E+01  0.51100000000E-03 0. -1.
        -11    1    3    3    0    0  0.17142482837E+02  0.17799599005E+02 -0.12449817144E+02  0.27671074965E+02  0.51100000000E-03 0.  1.
        -12    1    3    3    0    0  0.41180719702E+01  0.12893864936E+02  0.11978205572E+01  0.13588415796E+02  0.00000000000E+00 0.  1.
</event>
<event>
 7    1  0.2647566E-010  0.4778727E+02  0.7816164E-02  0.1312668E+00
        -11   -1    0    0    0    0  0.00000000000E+00  0.00000000000E+00  0.45593999997E+02  0.45594000000E+02  0.51100000000E-03 0.  1.
         11   -1    0    0    0    0 -0.00000000000E+00 -0.00000000000E+00 -0.45593999997E+02  0.45594000000E+02  0.51100000000E-03 0. -1.
    9900012    2    1    2    0    0 -0.41749736865E+02  0.41358899268E+00  0.11849541503E+02  0.47787271688E+02  0.20000002935E+02 0.  0.
         12    1    1    2    0    0  0.41749736865E+02 -0.41358899268E+00 -0.11849541503E+02  0.43400728312E+02  0.00000000000E+00 0. -1.
         11    1    3    3    0    0 -0.27807461833E+02 -0.27543908438E+01  0.76033142617E+01  0.28959488782E+02  0.51100000000E-03 0.  1.
        -11    1    3    3    0    0 -0.67713349486E+01 -0.42144934280E+01  0.26999327966E+01  0.84203663345E+01  0.51100000000E-03 0. -1.
        -12    1    3    3    0    0 -0.71709400836E+01  0.73824732645E+01  0.15462944452E+01  0.10407416572E+02  0.00000000000E+00 0.  1.
</event>
<event>
 7    1  0.2647566E-010  0.4778727E+02  0.7816164E-02  0.1312668E+00
        -11   -1    0    0    0    0  0.00000000000E+00  0.00000000000E+00  0.45593999997E+02  0.45594000000E+02  0.51100000000E-03 0. -1.
         11   -1    0    0    0    0 -0.00000000000E+00 -0.00000000000E+00 -0.45593999997E+02  0.45594000000E+02  0.51100000000E-03 0.  1.
    9900012    2    1    2    0    0 -0.43824774512E+01  0.40701898923E+02 -0.14414309890E+02  0.47787274037E+02  0.20000013644E+02 0.  0.
         12    1    1    2    0    0  0.43824774512E+01 -0.40701898923E+02  0.14414309890E+02  0.43400725963E+02  0.00000000000E+00 0. -1.
         11    1    3    3    0    0  0.28086883249E+01  0.50948619292E+01 -0.41042280186E+01  0.71197637653E+01  0.51100000000E-03 0. -1.
        -11    1    3    3    0    0  0.45563559617E+01  0.10419412656E+02 -0.12751390416E+01  0.11443361376E+02  0.51100000000E-03 0.  1.
        -12    1    3    3    0    0 -0.11747521738E+02  0.25187624337E+02 -0.90349428294E+01  0.29224148896E+02  0.00000000000E+00 0.  1.
</event>
<event>
 7    1  0.2647566E-010  0.4778728E+02  0.7816164E-02  0.1312668E+00
        -11   -1    0    0    0    0  0.00000000000E+00  0.00000000000E+00  0.45593999997E+02  0.45594000000E+02  0.51100000000E-03 0.  1.
         11   -1    0    0    0    0 -0.00000000000E+00 -0.00000000000E+00 -0.45593999997E+02  0.45594000000E+02  0.51100000000E-03 0. -1.
    9900012    2    1    2    0    0 -0.90040511310E+01 -0.29333517457E+02  0.30693557520E+02  0.47787278158E+02  0.20000032432E+02 0.  0.
         12    1    1    2    0    0  0.90040511310E+01  0.29333517457E+02 -0.30693557520E+02  0.43400721842E+02  0.00000000000E+00 0. -1.
         11    1    3    3    0    0 -0.29323604273E+01 -0.14137243680E+02  0.20904794648E+02  0.25406118084E+02  0.51100000000E-03 0. -1.
        -11    1    3    3    0    0 -0.35025656527E+01 -0.11990073893E+01  0.69429799231E+01  0.78683260828E+01  0.51100000000E-03 0.  1.
         12    1    3    3    0    0 -0.25691250510E+01 -0.13997266388E+02  0.28457829491E+01  0.14512833991E+02  0.00000000000E+00 0. -1.
</event>
<event>
 7    1  0.2647566E-010  0.4778727E+02  0.7816164E-02  0.1312668E+00
        -11   -1    0    0    0    0  0.00000000000E+00  0.00000000000E+00  0.45593999997E+02  0.45594000000E+02  0.51100000000E-03 0.  1.
         11   -1    0    0    0    0 -0.00000000000E+00 -0.00000000000E+00 -0.45593999997E+02  0.45594000000E+02  0.51100000000E-03 0. -1.
    9900012    2    1    2    0    0 -0.14723547771E+02  0.13084491549E+02  0.38673457859E+02  0.47787272808E+02  0.20000008039E+02 0.  0.
         12    1    1    2    0    0  0.14723547771E+02 -0.13084491549E+02 -0.38673457859E+02  0.43400727192E+02  0.00000000000E+00 0. -1.
         11    1    3    3    0    0 -0.33293222522E+01  0.87666974280E+01  0.38344551696E+01  0.10131259407E+02  0.51100000000E-03 0. -1.
        -11    1    3    3    0    0 -0.66996814082E+00  0.33501441085E+01  0.10490133825E+02  0.11032462589E+02  0.51100000000E-03 0.  1.
         12    1    3    3    0    0 -0.10724257379E+02  0.96765001287E+00  0.24348868864E+02  0.26623550812E+02  0.00000000000E+00 0. -1.
</event>
<event>
 7    1  0.2647566E-010  0.4778727E+02  0.7816164E-02  0.1312668E+00
        -11   -1    0    0    0    0  0.00000000000E+00  0.00000000000E+00  0.45593999997E+02  0.45594000000E+02  0.51100000000E-03 0. -1.
         11   -1    0    0    0    0 -0.00000000000E+00 -0.00000000000E+00 -0.45593999997E+02  0.45594000000E+02  0.51100000000E-03 0.  1.
    9900012    2    1    2    0    0 -0.38134647646E+02 -0.13495168068E+02  0.15724272675E+02  0.47787266556E+02  0.19999979537E+02 0.  0.
         12    1    1    2    0    0  0.38134647646E+02  0.13495168068E+02 -0.15724272675E+02  0.43400733444E+02  0.00000000000E+00 0. -1.
         11    1    3    3    0    0 -0.26593741650E+02 -0.61556514139E+01  0.11788586199E+02  0.29733649358E+02  0.51100000000E-03 0. -1.
        -11    1    3    3    0    0 -0.74703475342E+01 -0.67406049338E+01  0.75481392727E+01  0.12578404267E+02  0.51100000000E-03 0.  1.
        -12    1    3    3    0    0 -0.40705584618E+01 -0.59891172041E+00 -0.36124527971E+01  0.54752129320E+01  0.00000000000E+00 0.  1.
</event>
<event>
 7    1  0.2647566E-010  0.4778727E+02  0.7816164E-02  0.1312668E+00
        -11   -1    0    0    0    0  0.00000000000E+00  0.00000000000E+00  0.45593999997E+02  0.45594000000E+02  0.51100000000E-03 0.  1.
         11   -1    0    0    0    0 -0.00000000000E+00 -0.00000000000E+00 -0.45593999997E+02  0.45594000000E+02  0.51100000000E-03 0. -1.
    9900012    2    1    2    0    0 -0.32725558611E+02 -0.14053857466E+01  0.28472545581E+02  0.47787272502E+02  0.20000006646E+02 0.  0.
         12    1    1    2    0    0  0.32725558611E+02  0.14053857466E+01 -0.28472545581E+02  0.43400727498E+02  0.00000000000E+00 0. -1.
         11    1    3    3    0    0 -0.33655228711E+01  0.20243101872E+01  0.11496976667E+02  0.12149281817E+02  0.51100000000E-03 0. -1.
        -11    1    3    3    0    0 -0.14276064582E+02  0.29376098107E+01  0.10795028028E+02  0.18137480579E+02  0.51100000000E-03 0.  1.
        -12    1    3    3    0    0 -0.15083971157E+02 -0.63673057445E+01  0.61805408856E+01  0.17500510106E+02  0.00000000000E+00 0.  1.
</event>
<event>
 7    1  0.2647566E-010  0.4778726E+02  0.7816164E-02  0.1312668E+00
        -11   -1    0    0    0    0  0.00000000000E+00  0.00000000000E+00  0.45593999997E+02  0.45594000000E+02  0.51100000000E-03 0.  1.
         11   -1    0    0    0    0 -0.00000000000E+00 -0.00000000000E+00 -0.45593999997E+02  0.45594000000E+02  0.51100000000E-03 0. -1.
    9900012    2    1    2    0    0  0.16867341538E+02 -0.39984263902E+02  0.61259707211E+00  0.47787264459E+02  0.19999969974E+02 0.  0.
         12    1    1    2    0    0 -0.16867341538E+02  0.39984263902E+02 -0.61259707211E+00  0.43400735541E+02  0.00000000000E+00 0. -1.
         11    1    3    3    0    0 -0.23015551051E+01 -0.57706092464E+01  0.54485401577E+00  0.62365016745E+01  0.51100000000E-03 0. -1.
        -11    1    3    3    0    0  0.14924800450E+01  0.60241364739E+00  0.18645693417E+01  0.24631317420E+01  0.51100000000E-03 0.  1.
        -12    1    3    3    0    0  0.17676416598E+02 -0.34816068303E+02 -0.17968262854E+01  0.39087631042E+02  0.00000000000E+00 0.  1.
</event>
<event>
 7    1  0.2647566E-010  0.4778727E+02  0.7816164E-02  0.1312668E+00
        -11   -1    0    0    0    0  0.00000000000E+00  0.00000000000E+00  0.45593999997E+02  0.45594000000E+02  0.51100000000E-03 0. -1.
         11   -1    0    0    0    0 -0.00000000000E+00 -0.00000000000E+00 -0.45593999997E+02  0.45594000000E+02  0.51100000000E-03 0.  1.
    9900012    2    1    2    0    0 -0.29173054366E+02 -0.29848230927E+02  0.11901231114E+02  0.47787270829E+02  0.19999999019E+02 0.  0.
         12    1    1    2    0    0  0.29173054366E+02  0.29848230927E+02 -0.11901231114E+02  0.43400729171E+02  0.00000000000E+00 0. -1.
         11    1    3    3    0    0 -0.57988216920E+01 -0.49086745260E+01  0.20960849871E+01  0.78813064369E+01  0.51100000000E-03 0. -1.
        -11    1    3    3    0    0 -0.15321055326E+02 -0.34192939681E+01  0.36090793469E+01  0.16107506372E+02  0.51100000000E-03 0.  1.
         12    1    3    3    0    0 -0.80531773481E+01 -0.21520262433E+02  0.61960667799E+01  0.23798458020E+02  0.00000000000E+00 0. -1.
</event>
<event>
 7    1  0.2647566E-010  0.4778727E+02  0.7816164E-02  0.1312668E+00
        -11   -1    0    0    0    0  0.00000000000E+00  0.00000000000E+00  0.45593999997E+02  0.45594000000E+02  0.51100000000E-03 0.  1.
         11   -1    0    0    0    0 -0.00000000000E+00 -0.00000000000E+00 -0.45593999997E+02  0.45594000000E+02  0.51100000000E-03 0. -1.
    9900012    2    1    2    0    0  0.32372385918E+02 -0.16727969047E+02 -0.23575988519E+02  0.47787267827E+02  0.19999985332E+02 0.  0.
         12    1    1    2    0    0 -0.32372385918E+02  0.16727969047E+02  0.23575988519E+02  0.43400732173E+02  0.00000000000E+00 0. -1.
         11    1    3    3    0    0  0.94601611120E+00 -0.58616292481E+00  0.18887032000E+01  0.21921983250E+01  0.51100000000E-03 0. -1.
        -11    1    3    3    0    0  0.17749976266E+02 -0.56494511638E+01 -0.59434398903E+01  0.19552555687E+02  0.51100000000E-03 0.  1.
        -12    1    3    3    0    0  0.13676393541E+02 -0.10492354958E+02 -0.19521251829E+02  0.26042513815E+02  0.00000000000E+00 0.  1.
</event>
<event>
 7    1  0.2647566E-010  0.4778727E+02  0.7816164E-02  0.1312668E+00
        -11   -1    0    0    0    0  0.00000000000E+00  0.00000000000E+00  0.45593999997E+02  0.45594000000E+02  0.51100000000E-03 0. -1.
         11   -1    0    0    0    0 -0.00000000000E+00 -0.00000000000E+00 -0.45593999997E+02  0.45594000000E+02  0.51100000000E-03 0.  1.
    9900012    2    1    2    0    0  0.12494904228E+02 -0.35920922957E+02  0.20909048755E+02  0.47787266624E+02  0.19999979844E+02 0.  0.
         12    1    1    2    0    0 -0.12494904228E+02  0.35920922957E+02 -0.20909048755E+02  0.43400733376E+02  0.00000000000E+00 0. -1.
         11    1    3    3    0    0 -0.24232640174E+01 -0.29184998012E+01  0.89601446127E+00  0.38977803637E+01  0.51100000000E-03 0. -1.
        -11    1    3    3    0    0  0.78719573567E+01 -0.54747736880E+01  0.87076885707E+00  0.96280370910E+01  0.51100000000E-03 0.  1.
         12    1    3    3    0    0  0.70462108883E+01 -0.27527649468E+02  0.19142265436E+02  0.34261449169E+02  0.00000000000E+00 0. -1.
</event>
<event>
 7    1  0.2647566E-010  0.4778727E+02  0.7816164E-02  0.1312668E+00
        -11   -1    0    0    0    0  0.00000000000E+00  0.00000000000E+00  0.45593999997E+02  0.45594000000E+02  0.51100000000E-03 0. -1.
         11   -1    0    0    0    0 -0.00000000000E+00 -0.00000000000E+00 -0.45593999997E+02  0.45594000000E+02  0.51100000000E-03 0.  1.
    9900012    2    1    2    0    0  0.16266269681E+02 -0.22099292908E+01 -0.40176457316E+02  0.47787273747E+02  0.20000012323E+02 0.  0.
         12    1    1    2    0    0 -0.16266269681E+02  0.22099292908E+01  0.40176457316E+02  0.43400726253E+02  0.00000000000E+00 0. -1.
         11    1    3    3    0    0  0.11770802929E+01  0.81623562146E-01  0.17264973373E+01  0.20911656411E+01  0.51100000000E-03 0. -1.
        -11    1    3    3    0    0  0.51649031048E+01  0.88583974764E+00 -0.46259901496E+01  0.69900444395E+01  0.51100000000E-03 0.  1.
        -12    1    3    3    0    0  0.99242862836E+01 -0.31773926006E+01 -0.37276964503E+02  0.38706063667E+02  0.00000000000E+00 0.  1.
</event>
<event>
 7    1  0.2647566E-010  0.4778727E+02  0.7816164E-02  0.1312668E+00
        -11   -1    0    0    0    0  0.00000000000E+00  0.00000000000E+00  0.45593999997E+02  0.45594000000E+02  0.51100000000E-03 0. -1.
         11   -1    0    0    0    0 -0.00000000000E+00 -0.00000000000E+00 -0.45593999997E+02  0.45594000000E+02  0.51100000000E-03 0.  1.
    9900012    2    1    2    0    0  0.21162821082E+02 -0.32313630883E+02 -0.19788572219E+02  0.47787270428E+02  0.19999997187E+02 0.  0.
         12    1    1    2    0    0 -0.21162821082E+02  0.32313630883E+02  0.19788572219E+02  0.43400729572E+02  0.00000000000E+00 0. -1.
         11    1    3    3    0    0 -0.12123633754E+01 -0.42381674602E+01 -0.47522916120E+00  0.44337040262E+01  0.51100000000E-03 0. -1.
        -11    1    3    3    0    0  0.50869341324E+01 -0.17512621173E+02 -0.11921816692E+02  0.21787577027E+02  0.51100000000E-03 0.  1.
         12    1    3    3    0    0  0.17288250325E+02 -0.10562842250E+02 -0.73915263659E+01  0.21565989374E+02  0.00000000000E+00 0. -1.
</event>
<event>
 7    1  0.2647566E-010  0.4778727E+02  0.7816164E-02  0.1312668E+00
        -11   -1    0    0    0    0  0.00000000000E+00  0.00000000000E+00  0.45593999997E+02  0.45594000000E+02  0.51100000000E-03 0.  1.
         11   -1    0    0    0    0 -0.00000000000E+00 -0.00000000000E+00 -0.45593999997E+02  0.45594000000E+02  0.51100000000E-03 0. -1.
    9900012    2    1    2    0    0  0.70598111629E+01  0.29663277685E+02  0.30884822843E+02  0.47787271219E+02  0.20000000794E+02 0.  0.
         12    1    1    2    0    0 -0.70598111629E+01 -0.29663277685E+02 -0.30884822843E+02  0.43400728781E+02  0.00000000000E+00 0. -1.
         11    1    3    3    0    0  0.40233236899E+01  0.14971393404E+02  0.23461544675E+02  0.28120701142E+02  0.51100000000E-03 0. -1.
        -11    1    3    3    0    0  0.35023019956E+01 -0.38506715594E-02  0.16345565059E+01  0.38649591625E+01  0.51100000000E-03 0.  1.
         12    1    3    3    0    0 -0.46581452256E+00  0.14695734953E+02  0.57887216629E+01  0.15801610914E+02  0.00000000000E+00 0. -1.
</event>
<event>
 7    1  0.2647566E-010  0.4778727E+02  0.7816164E-02  0.1312668E+00
        -11   -1    0    0    0    0  0.00000000000E+00  0.00000000000E+00  0.45593999997E+02  0.45594000000E+02  0.51100000000E-03 0.  1.
         11   -1    0    0    0    0 -0.00000000000E+00 -0.00000000000E+00 -0.45593999997E+02  0.45594000000E+02  0.51100000000E-03 0. -1.
    9900012    2    1    2    0    0 -0.17369150805E+02 -0.36156200468E+02  0.16573017956E+02  0.47787272401E+02  0.20000006187E+02 0.  0.
         12    1    1    2    0    0  0.17369150805E+02  0.36156200468E+02 -0.16573017956E+02  0.43400727599E+02  0.00000000000E+00 0. -1.
         11    1    3    3    0    0  0.40648427365E+00  0.31859163135E-01  0.20221314114E+01  0.20628281986E+01  0.51100000000E-03 0. -1.
        -11    1    3    3    0    0 -0.15817130903E+02 -0.22860298640E+02  0.16165073331E+02  0.32157183956E+02  0.51100000000E-03 0.  1.
        -12    1    3    3    0    0 -0.19585041756E+01 -0.13327760991E+02 -0.16141867863E+01  0.13567260247E+02  0.00000000000E+00 0.  1.
</event>
<event>
 7    1  0.2647566E-010  0.4778727E+02  0.7816164E-02  0.1312668E+00
        -11   -1    0    0    0    0  0.00000000000E+00  0.00000000000E+00  0.45593999997E+02  0.45594000000E+02  0.51100000000E-03 0. -1.
         11   -1    0    0    0    0 -0.00000000000E+00 -0.00000000000E+00 -0.45593999997E+02  0.45594000000E+02  0.51100000000E-03 0.  1.
    9900012    2    1    2    0    0  0.29722634876E+02 -0.20168301434E+02 -0.24360381825E+02  0.47787267179E+02  0.19999982376E+02 0.  0.
         12    1    1    2    0    0 -0.29722634876E+02  0.20168301434E+02  0.24360381825E+02  0.43400732821E+02  0.00000000000E+00 0. -1.
         11    1    3    3    0    0  0.14111675858E+02 -0.88931924145E+01 -0.67037050990E+00  0.16693641416E+02  0.51100000000E-03 0. -1.
        -11    1    3    3    0    0  0.35667862204E+01 -0.86949459687E+00 -0.77090295825E+01  0.85385667509E+01  0.51100000000E-03 0.  1.
         12    1    3    3    0    0  0.12044172798E+02 -0.10405614423E+02 -0.15980981732E+02  0.22555059012E+02  0.00000000000E+00 0. -1.
</event>
<event>
 7    1  0.2647566E-010  0.4778727E+02  0.7816164E-02  0.1312668E+00
        -11   -1    0    0    0    0  0.00000000000E+00  0.00000000000E+00  0.45593999997E+02  0.45594000000E+02  0.51100000000E-03 0. -1.
         11   -1    0    0    0    0 -0.00000000000E+00 -0.00000000000E+00 -0.45593999997E+02  0.45594000000E+02  0.51100000000E-03 0.  1.
    9900012    2    1    2    0    0 -0.37180339816E+02 -0.42567397823E+01 -0.21980122417E+02  0.47787270929E+02  0.19999999476E+02 0.  0.
         12    1    1    2    0    0  0.37180339816E+02  0.42567397823E+01  0.21980122417E+02  0.43400729071E+02  0.00000000000E+00 0. -1.
         11    1    3    3    0    0 -0.80137973825E+01 -0.27960577023E+01 -0.27554490155E+01  0.89236420088E+01  0.51100000000E-03 0. -1.
        -11    1    3    3    0    0 -0.65607128566E+01 -0.48090010415E+01 -0.12728537946E+02  0.15105797652E+02  0.51100000000E-03 0.  1.
         12    1    3    3    0    0 -0.22605829577E+02  0.33483189615E+01 -0.64961354547E+01  0.23757831268E+02  0.00000000000E+00 0. -1.
</event>
<event>
 7    1  0.2647566E-010  0.4778727E+02  0.7816164E-02  0.1312668E+00
        -11   -1    0    0    0    0  0.00000000000E+00  0.00000000000E+00  0.45593999997E+02  0.45594000000E+02  0.51100000000E-03 0.  1.
         11   -1    0    0    0    0 -0.00000000000E+00 -0.00000000000E+00 -0.45593999997E+02  0.45594000000E+02  0.51100000000E-03 0. -1.
    9900012    2    1    2    0    0  0.31775865692E+02 -0.24063807000E+02  0.17171225822E+02  0.47787269084E+02  0.19999991061E+02 0.  0.
         12    1    1    2    0    0 -0.31775865692E+02  0.24063807000E+02 -0.17171225822E+02  0.43400730916E+02  0.00000000000E+00 0. -1.
         11    1    3    3    0    0  0.35401243783E+01 -0.94956509535E-01  0.48014250791E+01  0.59661696593E+01  0.51100000000E-03 0. -1.
        -11    1    3    3    0    0  0.42604486176E+01  0.70614514226E+00  0.50532634238E+01  0.66472200864E+01  0.51100000000E-03 0.  1.
        -12    1    3    3    0    0  0.23975292696E+02 -0.24674995633E+02  0.73165373193E+01  0.35173879338E+02  0.00000000000E+00 0.  1.
</event>
<event>
 7    1  0.2647566E-010  0.4778727E+02  0.7816164E-02  0.1312668E+00
        -11   -1    0    0    0    0  0.00000000000E+00  0.00000000000E+00  0.45593999997E+02  0.45594000000E+02  0.51100000000E-03 0. -1.
         11   -1    0    0    0    0 -0.00000000000E+00 -0.00000000000E+00 -0.45593999997E+02  0.45594000000E+02  0.51100000000E-03 0.  1.
    9900012    2    1    2    0    0  0.39707393671E+02 -0.16363524556E+02 -0.62594823058E+01  0.47787272278E+02  0.20000005626E+02 0.  0.
         12    1    1    2    0    0 -0.39707393671E+02  0.16363524556E+02  0.62594823058E+01  0.43400727722E+02  0.00000000000E+00 0. -1.
         11    1    3    3    0    0  0.14337547011E+02 -0.47790607788E+01 -0.61647400968E+00  0.15125631117E+02  0.51100000000E-03 0. -1.
        -11    1    3    3    0    0  0.25506997685E+02 -0.13065371631E+02 -0.20017277968E+01  0.28728344561E+02  0.51100000000E-03 0.  1.
         12    1    3    3    0    0 -0.13715102578E+00  0.14809078533E+01 -0.36412804993E+01  0.39332966006E+01  0.00000000000E+00 0. -1.
</event>
<event>
 7    1  0.2647566E-010  0.4778727E+02  0.7816164E-02  0.1312668E+00
        -11   -1    0    0    0    0  0.00000000000E+00  0.00000000000E+00  0.45593999997E+02  0.45594000000E+02  0.51100000000E-03 0.  1.
         11   -1    0    0    0    0 -0.00000000000E+00 -0.00000000000E+00 -0.45593999997E+02  0.45594000000E+02  0.51100000000E-03 0. -1.
    9900012    2    1    2    0    0 -0.33751777462E+01 -0.65485871701E+01  0.42770869500E+02  0.47787273087E+02  0.20000009315E+02 0.  0.
         12    1    1    2    0    0  0.33751777462E+01  0.65485871701E+01 -0.42770869500E+02  0.43400726913E+02  0.00000000000E+00 0. -1.
         11    1    3    3    0    0  0.45800739921E+01 -0.16139167931E+01  0.12716472351E+02  0.13612144375E+02  0.51100000000E-03 0. -1.
        -11    1    3    3    0    0 -0.13739455481E+01 -0.14749765955E+01 -0.99495796666E+00  0.22479377089E+01  0.51100000000E-03 0.  1.
        -12    1    3    3    0    0 -0.65813061902E+01 -0.34596937815E+01  0.31049355116E+02  0.31927191003E+02  0.00000000000E+00 0.  1.
</event>
<event>
 7    1  0.2647566E-010  0.4778727E+02  0.7816164E-02  0.1312668E+00
        -11   -1    0    0    0    0  0.00000000000E+00  0.00000000000E+00  0.45593999997E+02  0.45594000000E+02  0.51100000000E-03 0.  1.
         11   -1    0    0    0    0 -0.00000000000E+00 -0.00000000000E+00 -0.45593999997E+02  0.45594000000E+02  0.51100000000E-03 0. -1.
    9900012    2    1    2    0    0 -0.28226443898E+02 -0.30979447364E+02 -0.11276758991E+02  0.47787267432E+02  0.19999983528E+02 0.  0.
         12    1    1    2    0    0  0.28226443898E+02  0.30979447364E+02  0.11276758991E+02  0.43400732568E+02  0.00000000000E+00 0. -1.
         11    1    3    3    0    0 -0.68073279974E+01 -0.10222872113E+02 -0.10144240275E+02  0.15929608900E+02  0.51100000000E-03 0. -1.
        -11    1    3    3    0    0 -0.93008032354E+01 -0.11535105036E+02 -0.58275036209E+01  0.15922417773E+02  0.51100000000E-03 0.  1.
        -12    1    3    3    0    0 -0.12118312665E+02 -0.92214702153E+01  0.46949849045E+01  0.15935240759E+02  0.00000000000E+00 0.  1.
</event>
<event>
 7    1  0.2647566E-010  0.4778727E+02  0.7816164E-02  0.1312668E+00
        -11   -1    0    0    0    0  0.00000000000E+00  0.00000000000E+00  0.45593999997E+02  0.45594000000E+02  0.51100000000E-03 0.  1.
         11   -1    0    0    0    0 -0.00000000000E+00 -0.00000000000E+00 -0.45593999997E+02  0.45594000000E+02  0.51100000000E-03 0. -1.
    9900012    2    1    2    0    0  0.16639795136E+02  0.12697573844E+02  0.38019894415E+02  0.47787268036E+02  0.19999986283E+02 0.  0.
         12    1    1    2    0    0 -0.16639795136E+02 -0.12697573844E+02 -0.38019894415E+02  0.43400731964E+02  0.00000000000E+00 0. -1.
         11    1    3    3    0    0  0.84428253809E+01  0.33564637745E+01  0.49961482271E+01  0.10368637656E+02  0.51100000000E-03 0. -1.
        -11    1    3    3    0    0  0.11464950383E+01  0.43140770488E+01  0.14720362083E+01  0.47002768552E+01  0.51100000000E-03 0.  1.
        -12    1    3    3    0    0  0.70504747170E+01  0.50270330209E+01  0.31551709979E+02  0.32718353524E+02  0.00000000000E+00 0.  1.
</event>
<event>
 7    1  0.2647566E-010  0.4778727E+02  0.7816164E-02  0.1312668E+00
        -11   -1    0    0    0    0  0.00000000000E+00  0.00000000000E+00  0.45593999997E+02  0.45594000000E+02  0.51100000000E-03 0. -1.
         11   -1    0    0    0    0 -0.00000000000E+00 -0.00000000000E+00 -0.45593999997E+02  0.45594000000E+02  0.51100000000E-03 0.  1.
    9900012    2    1    2    0    0 -0.35946679968E+02 -0.18585966036E+02  0.15685065552E+02  0.47787271716E+02  0.20000003063E+02 0.  0.
         12    1    1    2    0    0  0.35946679968E+02  0.18585966036E+02 -0.15685065552E+02  0.43400728284E+02  0.00000000000E+00 0. -1.
         11    1    3    3    0    0 -0.19206352019E+02 -0.83766886371E+00  0.82910839640E+01  0.20936277620E+02  0.51100000000E-03 0. -1.
        -11    1    3    3    0    0 -0.17168164628E+01  0.77032793944E+00 -0.99392787709E-02  0.18817446563E+01  0.51100000000E-03 0.  1.
        -12    1    3    3    0    0 -0.15023511486E+02 -0.18518625112E+02  0.74039208663E+01  0.24969249440E+02  0.00000000000E+00 0.  1.
</event>
<event>
 7    1  0.2647566E-010  0.4778727E+02  0.7816164E-02  0.1312668E+00
        -11   -1    0    0    0    0  0.00000000000E+00  0.00000000000E+00  0.45593999997E+02  0.45594000000E+02  0.51100000000E-03 0.  1.
         11   -1    0    0    0    0 -0.00000000000E+00 -0.00000000000E+00 -0.45593999997E+02  0.45594000000E+02  0.51100000000E-03 0. -1.
    9900012    2    1    2    0    0  0.34771789333E+02  0.25971218216E+02  0.20456535130E+00  0.47787270098E+02  0.19999995686E+02 0.  0.
         12    1    1    2    0    0 -0.34771789333E+02 -0.25971218216E+02 -0.20456535130E+00  0.43400729902E+02  0.00000000000E+00 0. -1.
         11    1    3    3    0    0  0.71941382668E+00  0.53184323564E+01 -0.39603021501E+01  0.66698779873E+01  0.51100000000E-03 0. -1.
        -11    1    3    3    0    0  0.51135734656E+01  0.29894800250E+01  0.41175578028E+01  0.72138690679E+01  0.51100000000E-03 0.  1.
         12    1    3    3    0    0  0.28938802040E+02  0.17663305834E+02  0.47309698617E-01  0.33903523043E+02  0.00000000000E+00 0. -1.
</event>
<event>
 7    1  0.2647566E-010  0.4778726E+02  0.7816164E-02  0.1312668E+00
        -11   -1    0    0    0    0  0.00000000000E+00  0.00000000000E+00  0.45593999997E+02  0.45594000000E+02  0.51100000000E-03 0.  1.
         11   -1    0    0    0    0 -0.00000000000E+00 -0.00000000000E+00 -0.45593999997E+02  0.45594000000E+02  0.51100000000E-03 0. -1.
    9900012    2    1    2    0    0 -0.38623074223E+02  0.10414736002E+02  0.16834942021E+02  0.47787264277E+02  0.19999969146E+02 0.  0.
         12    1    1    2    0    0  0.38623074223E+02 -0.10414736002E+02 -0.16834942021E+02  0.43400735723E+02  0.00000000000E+00 0. -1.
         11    1    3    3    0    0 -0.21408667577E+01  0.61659628917E+00  0.43199905380E+01  0.48606398722E+01  0.51100000000E-03 0. -1.
        -11    1    3    3    0    0  0.12058932174E+01  0.15707746989E+01  0.22726634549E+01  0.30143840244E+01  0.51100000000E-03 0.  1.
        -12    1    3    3    0    0 -0.37688100683E+02  0.82273650141E+01  0.10242288028E+02  0.39912240381E+02  0.00000000000E+00 0.  1.
</event>
<event>
 7    1  0.2647566E-010  0.4778728E+02  0.7816164E-02  0.1312668E+00
        -11   -1    0    0    0    0  0.00000000000E+00  0.00000000000E+00  0.45593999997E+02  0.45594000000E+02  0.51100000000E-03 0.  1.
         11   -1    0    0    0    0 -0.00000000000E+00 -0.00000000000E+00 -0.45593999997E+02  0.45594000000E+02  0.51100000000E-03 0. -1.
    9900012    2    1    2    0    0  0.16383818894E+02  0.39863246318E+02 -0.51102409256E+01  0.47787280065E+02  0.20000041129E+02 0.  0.
         12    1    1    2    0    0 -0.16383818894E+02 -0.39863246318E+02  0.51102409256E+01  0.43400719935E+02  0.00000000000E+00 0. -1.
         11    1    3    3    0    0  0.18303214692E+01 -0.57140042555E+00  0.79675517259E+00  0.20763897016E+01  0.51100000000E-03 0. -1.
        -11    1    3    3    0    0  0.52305482441E+01  0.17873441953E+02 -0.97139111005E+01  0.21004252696E+02  0.51100000000E-03 0.  1.
         12    1    3    3    0    0  0.93229491806E+01  0.22561204790E+02  0.38069150023E+01  0.24706637668E+02  0.00000000000E+00 0. -1.
</event>
<event>
 7    1  0.2647566E-010  0.4778728E+02  0.7816164E-02  0.1312668E+00
        -11   -1    0    0    0    0  0.00000000000E+00  0.00000000000E+00  0.45593999997E+02  0.45594000000E+02  0.51100000000E-03 0. -1.
         11   -1    0    0    0    0 -0.00000000000E+00 -0.00000000000E+00 -0.45593999997E+02  0.45594000000E+02  0.51100000000E-03 0.  1.
    9900012    2    1    2    0    0  0.15120402434E+02  0.21706642065E+02 -0.34406653911E+02  0.47787277507E+02  0.20000029467E+02 0.  0.
         12    1    1    2    0    0 -0.15120402434E+02 -0.21706642065E+02  0.34406653911E+02  0.43400722493E+02  0.00000000000E+00 0. -1.
         11    1    3    3    0    0  0.11801308378E+02  0.17360917712E+02 -0.20577815328E+02  0.29395898135E+02  0.51100000000E-03 0. -1.
        -11    1    3    3    0    0 -0.38611887316E+01  0.27259236803E+01 -0.61214814388E+01  0.77338201168E+01  0.51100000000E-03 0.  1.
         12    1    3    3    0    0  0.71802827871E+01  0.16198006722E+01 -0.77073571451E+01  0.10657559255E+02  0.00000000000E+00 0. -1.
</event>
<event>
 7    1  0.2647566E-010  0.4778727E+02  0.7816164E-02  0.1312668E+00
        -11   -1    0    0    0    0  0.00000000000E+00  0.00000000000E+00  0.45593999997E+02  0.45594000000E+02  0.51100000000E-03 0.  1.
         11   -1    0    0    0    0 -0.00000000000E+00 -0.00000000000E+00 -0.45593999997E+02  0.45594000000E+02  0.51100000000E-03 0. -1.
    9900012    2    1    2    0    0 -0.85470738732E+01  0.42153704755E+02  0.57996321969E+01  0.47787273854E+02  0.20000012810E+02 0.  0.
         12    1    1    2    0    0  0.85470738732E+01 -0.42153704755E+02 -0.57996321969E+01  0.43400726146E+02  0.00000000000E+00 0. -1.
         11    1    3    3    0    0 -0.38725072712E+01  0.78692883080E+01  0.71403018732E+01  0.11309550041E+02  0.51100000000E-03 0. -1.
        -11    1    3    3    0    0  0.21886222898E+00 -0.75181297810E+00 -0.76799026164E+00  0.10967829012E+01  0.51100000000E-03 0.  1.
        -12    1    3    3    0    0 -0.48934288311E+01  0.35036229425E+02 -0.57267941461E+00  0.35380940911E+02  0.00000000000E+00 0.  1.
</event>
<event>
 7    1  0.2647566E-010  0.4778727E+02  0.7816164E-02  0.1312668E+00
        -11   -1    0    0    0    0  0.00000000000E+00  0.00000000000E+00  0.45593999997E+02  0.45594000000E+02  0.51100000000E-03 0.  1.
         11   -1    0    0    0    0 -0.00000000000E+00 -0.00000000000E+00 -0.45593999997E+02  0.45594000000E+02  0.51100000000E-03 0. -1.
    9900012    2    1    2    0    0  0.59280515482E+01 -0.29931433463E+02  0.30864067264E+02  0.47787272444E+02  0.20000006382E+02 0.  0.
         12    1    1    2    0    0 -0.59280515482E+01  0.29931433463E+02 -0.30864067264E+02  0.43400727556E+02  0.00000000000E+00 0. -1.
         11    1    3    3    0    0  0.24314376541E+01  0.35620930524E+00  0.38050665508E+01  0.45296032775E+01  0.51100000000E-03 0. -1.
        -11    1    3    3    0    0  0.10365096771E+01 -0.81888064776E+01  0.25070473725E-01  0.82541827353E+01  0.51100000000E-03 0.  1.
        -12    1    3    3    0    0  0.24601042170E+01 -0.22098836290E+02  0.27033930240E+02  0.35003486431E+02  0.00000000000E+00 0.  1.
</event>
<event>
 7    1  0.2647566E-010  0.4778727E+02  0.7816164E-02  0.1312668E+00
        -11   -1    0    0    0    0  0.00000000000E+00  0.00000000000E+00  0.45593999997E+02  0.45594000000E+02  0.51100000000E-03 0. -1.
         11   -1    0    0    0    0 -0.00000000000E+00 -0.00000000000E+00 -0.45593999997E+02  0.45594000000E+02  0.51100000000E-03 0.  1.
    9900012    2    1    2    0    0  0.30029067635E+02 -0.31062203425E+02 -0.41252508269E+01  0.47787273289E+02  0.20000010236E+02 0.  0.
         12    1    1    2    0    0 -0.30029067635E+02  0.31062203425E+02  0.41252508269E+01  0.43400726711E+02  0.00000000000E+00 0. -1.
         11    1    3    3    0    0 -0.72813408912E+00 -0.95476447920E+00 -0.26885557759E+01  0.29445011264E+01  0.51100000000E-03 0. -1.
        -11    1    3    3    0    0  0.14021191142E+02 -0.74540838132E+01 -0.45180551925E+01  0.16509693804E+02  0.51100000000E-03 0.  1.
        -12    1    3    3    0    0  0.16736010582E+02 -0.22653355133E+02  0.30813601416E+01  0.28333078359E+02  0.00000000000E+00 0.  1.
</event>
<event>
 7    1  0.2647566E-010  0.4778727E+02  0.7816164E-02  0.1312668E+00
        -11   -1    0    0    0    0  0.00000000000E+00  0.00000000000E+00  0.45593999997E+02  0.45594000000E+02  0.51100000000E-03 0.  1.
         11   -1    0    0    0    0 -0.00000000000E+00 -0.00000000000E+00 -0.45593999997E+02  0.45594000000E+02  0.51100000000E-03 0. -1.
    9900012    2    1    2    0    0  0.10775209398E+02  0.34592623192E+02  0.23892864331E+02  0.47787266333E+02  0.19999978519E+02 0.  0.
         12    1    1    2    0    0 -0.10775209398E+02 -0.34592623192E+02 -0.23892864331E+02  0.43400733667E+02  0.00000000000E+00 0. -1.
         11    1    3    3    0    0 -0.14748839086E+01  0.79810136607E+01  0.31279109649E+01  0.86980278720E+01  0.51100000000E-03 0. -1.
        -11    1    3    3    0    0  0.37715649736E+01  0.23486389624E+02  0.17293487640E+02  0.29409180793E+02  0.51100000000E-03 0.  1.
         12    1    3    3    0    0  0.84785283330E+01  0.31252199073E+01  0.34714657262E+01  0.96800576678E+01  0.00000000000E+00 0. -1.
</event>
<event>
 7    1  0.2647566E-010  0.4778727E+02  0.7816164E-02  0.1312668E+00
        -11   -1    0    0    0    0  0.00000000000E+00  0.00000000000E+00  0.45593999997E+02  0.45594000000E+02  0.51100000000E-03 0. -1.
         11   -1    0    0    0    0 -0.00000000000E+00 -0.00000000000E+00 -0.45593999997E+02  0.45594000000E+02  0.51100000000E-03 0.  1.
    9900012    2    1    2    0    0  0.13689151928E+02  0.40640984210E+02  0.66738938482E+01  0.47787270315E+02  0.19999996676E+02 0.  0.
         12    1    1    2    0    0 -0.13689151928E+02 -0.40640984210E+02 -0.66738938482E+01  0.43400729685E+02  0.00000000000E+00 0. -1.
         11    1    3    3    0    0  0.94586786402E+01  0.92123567704E+01  0.14811404608E+01  0.13286380102E+02  0.51100000000E-03 0. -1.
        -11    1    3    3    0    0  0.31324566421E+01  0.11212339150E+02  0.79079648514E+01  0.14073547605E+02  0.51100000000E-03 0.  1.
        -12    1    3    3    0    0  0.10980166452E+01  0.20216288290E+02 -0.27152114640E+01  0.20427342609E+02  0.00000000000E+00 0.  1.
</event>
<event>
 7    1  0.2647566E-010  0.4778727E+02  0.7816164E-02  0.1312668E+00
        -11   -1    0    0    0    0  0.00000000000E+00  0.00000000000E+00  0.45593999997E+02  0.45594000000E+02  0.51100000000E-03 0.  1.
         11   -1    0    0    0    0 -0.00000000000E+00 -0.00000000000E+00 -0.45593999997E+02  0.45594000000E+02  0.51100000000E-03 0. -1.
    9900012    2    1    2    0    0 -0.23312586814E+02 -0.36279177836E+02 -0.48956708603E+01  0.47787273721E+02  0.20000012204E+02 0.  0.
         12    1    1    2    0    0  0.23312586814E+02  0.36279177836E+02  0.48956708603E+01  0.43400726279E+02  0.00000000000E+00 0. -1.
         11    1    3    3    0    0  0.18845411034E+01  0.31692685623E+00 -0.19852751825E+01  0.27555862560E+01  0.51100000000E-03 0. -1.
        -11    1    3    3    0    0 -0.50990423211E+01 -0.36874000824E+01  0.54754111449E+00  0.63164035252E+01  0.51100000000E-03 0.  1.
        -12    1    3    3    0    0 -0.20098085596E+02 -0.32908704609E+02 -0.34579367923E+01  0.38715283940E+02  0.00000000000E+00 0.  1.
</event>
<event>
 7    1  0.2647566E-010  0.4778727E+02  0.7816164E-02  0.1312668E+00
        -11   -1    0    0    0    0  0.00000000000E+00  0.00000000000E+00  0.45593999997E+02  0.45594000000E+02  0.51100000000E-03 0.  1.
         11   -1    0    0    0    0 -0.00000000000E+00 -0.00000000000E+00 -0.45593999997E+02  0.45594000000E+02  0.51100000000E-03 0. -1.
    9900012    2    1    2    0    0  0.30655322088E+02 -0.30722512972E+02 -0.39741516752E-01  0.47787272414E+02  0.20000006243E+02 0.  0.
         12    1    1    2    0    0 -0.30655322088E+02  0.30722512972E+02  0.39741516752E-01  0.43400727586E+02  0.00000000000E+00 0. -1.
         11    1    3    3    0    0  0.94164079613E+00 -0.12599318770E+02 -0.19258817678E+01  0.12780396774E+02  0.51100000000E-03 0. -1.
        -11    1    3    3    0    0  0.37627718678E+01 -0.36267278462E+01  0.48501346418E+00  0.52485088664E+01  0.51100000000E-03 0.  1.
         12    1    3    3    0    0  0.25950909424E+02 -0.14496466355E+02  0.14011267869E+01  0.29758366773E+02  0.00000000000E+00 0. -1.
</event>
<event>
 7    1  0.2647566E-010  0.4778727E+02  0.7816164E-02  0.1312668E+00
        -11   -1    0    0    0    0  0.00000000000E+00  0.00000000000E+00  0.45593999997E+02  0.45594000000E+02  0.51100000000E-03 0.  1.
         11   -1    0    0    0    0 -0.00000000000E+00 -0.00000000000E+00 -0.45593999997E+02  0.45594000000E+02  0.51100000000E-03 0. -1.
    9900012    2    1    2    0    0 -0.56256134019E+00  0.41773498621E+02  0.11759321027E+02  0.47787270820E+02  0.19999998978E+02 0.  0.
         12    1    1    2    0    0  0.56256134019E+00 -0.41773498621E+02 -0.11759321027E+02  0.43400729180E+02  0.00000000000E+00 0. -1.
         11    1    3    3    0    0  0.24047200659E+01 -0.71129908786E+00  0.12747891742E+01  0.28131321845E+01  0.51100000000E-03 0. -1.
        -11    1    3    3    0    0 -0.11307388439E+00  0.47739377571E+01  0.47278237527E+01  0.67197905554E+01  0.51100000000E-03 0.  1.
        -12    1    3    3    0    0 -0.28542075217E+01  0.37710859952E+02  0.57567080998E+01  0.38254348080E+02  0.00000000000E+00 0.  1.
</event>
<event>
 7    1  0.2647566E-010  0.4778727E+02  0.7816164E-02  0.1312668E+00
        -11   -1    0    0    0    0  0.00000000000E+00  0.00000000000E+00  0.45593999997E+02  0.45594000000E+02  0.51100000000E-03 0.  1.
         11   -1    0    0    0    0 -0.00000000000E+00 -0.00000000000E+00 -0.45593999997E+02  0.45594000000E+02  0.51100000000E-03 0. -1.
    9900012    2    1    2    0    0  0.21597324754E+02  0.19378016141E+02  0.32274939747E+02  0.47787266346E+02  0.19999978576E+02 0.  0.
         12    1    1    2    0    0 -0.21597324754E+02 -0.19378016141E+02 -0.32274939747E+02  0.43400733654E+02  0.00000000000E+00 0. -1.
         11    1    3    3    0    0 -0.32920240191E+01  0.11308385581E+01  0.60018695223E+01  0.69382026499E+01  0.51100000000E-03 0. -1.
        -11    1    3    3    0    0  0.61489917594E+01  0.24699999636E+01  0.40013967778E+01  0.77409415391E+01  0.51100000000E-03 0.  1.
         12    1    3    3    0    0  0.18740357014E+02  0.15777177619E+02  0.22271673446E+02  0.33108122157E+02  0.00000000000E+00 0. -1.
</event>
<event>
 7    1  0.2647566E-010  0.4778726E+02  0.7816164E-02  0.1312668E+00
        -11   -1    0    0    0    0  0.00000000000E+00  0.00000000000E+00  0.45593999997E+02  0.45594000000E+02  0.51100000000E-03 0.  1.
         11   -1    0    0    0    0 -0.00000000000E+00 -0.00000000000E+00 -0.45593999997E+02  0.45594000000E+02  0.51100000000E-03 0. -1.
    9900012    2    1    2    0    0 -0.64441373300E+01  0.10998833511E+02  0.41486423488E+02  0.47787256016E+02  0.19999931480E+02 0.  0.
         12    1    1    2    0    0  0.64441373300E+01 -0.10998833511E+02 -0.41486423488E+02  0.43400743984E+02  0.00000000000E+00 0. -1.
         11    1    3    3    0    0  0.18615614121E+01  0.73149440002E+01  0.56657908322E+01  0.94379554265E+01  0.51100000000E-03 0.  1.
        -11    1    3    3    0    0  0.22087948564E+01  0.21257047413E+01  0.80764424404E+01  0.86386525639E+01  0.51100000000E-03 0. -1.
        -12    1    3    3    0    0 -0.10514493599E+02  0.15581847691E+01  0.27744190215E+02  0.29710648026E+02  0.00000000000E+00 0.  1.
</event>
<event>
 7    1  0.2647566E-010  0.4778727E+02  0.7816164E-02  0.1312668E+00
        -11   -1    0    0    0    0  0.00000000000E+00  0.00000000000E+00  0.45593999997E+02  0.45594000000E+02  0.51100000000E-03 0. -1.
         11   -1    0    0    0    0 -0.00000000000E+00 -0.00000000000E+00 -0.45593999997E+02  0.45594000000E+02  0.51100000000E-03 0.  1.
    9900012    2    1    2    0    0 -0.33420907215E+02  0.18385240989E+02 -0.20703840017E+02  0.47787272855E+02  0.20000008253E+02 0.  0.
         12    1    1    2    0    0  0.33420907215E+02 -0.18385240989E+02  0.20703840017E+02  0.43400727145E+02  0.00000000000E+00 0. -1.
         11    1    3    3    0    0 -0.73295135254E+01 -0.12573711016E+01  0.96667410625E-01  0.74372101931E+01  0.51100000000E-03 0. -1.
        -11    1    3    3    0    0 -0.17778320188E+01 -0.14743321302E+01 -0.20324264978E+01  0.30765402074E+01  0.51100000000E-03 0.  1.
        -12    1    3    3    0    0 -0.24313561670E+02  0.21116944221E+02 -0.18768080930E+02  0.37273522454E+02  0.00000000000E+00 0.  1.
</event>
<event>
 7    1  0.2647566E-010  0.4778727E+02  0.7816164E-02  0.1312668E+00
        -11   -1    0    0    0    0  0.00000000000E+00  0.00000000000E+00  0.45593999997E+02  0.45594000000E+02  0.51100000000E-03 0. -1.
         11   -1    0    0    0    0 -0.00000000000E+00 -0.00000000000E+00 -0.45593999997E+02  0.45594000000E+02  0.51100000000E-03 0.  1.
    9900012    2    1    2    0    0 -0.12212118905E+02 -0.40100520812E+02  0.11244358103E+02  0.47787271818E+02  0.20000003529E+02 0.  0.
         12    1    1    2    0    0  0.12212118905E+02  0.40100520812E+02 -0.11244358103E+02  0.43400728182E+02  0.00000000000E+00 0. -1.
         11    1    3    3    0    0  0.71178134910E+00 -0.50670515194E+00 -0.97363074353E+00  0.13081819009E+01  0.51100000000E-03 0. -1.
        -11    1    3    3    0    0 -0.25101664000E+01 -0.15522541027E+02  0.12753916897E+02  0.20246298718E+02  0.51100000000E-03 0.  1.
         12    1    3    3    0    0 -0.10413733854E+02 -0.24071274634E+02 -0.53592805095E+00  0.26232791200E+02  0.00000000000E+00 0. -1.
</event>
<event>
 7    1  0.2647566E-010  0.4778728E+02  0.7816164E-02  0.1312668E+00
        -11   -1    0    0    0    0  0.00000000000E+00  0.00000000000E+00  0.45593999997E+02  0.45594000000E+02  0.51100000000E-03 0.  1.
         11   -1    0    0    0    0 -0.00000000000E+00 -0.00000000000E+00 -0.45593999997E+02  0.45594000000E+02  0.51100000000E-03 0. -1.
    9900012    2    1    2    0    0 -0.32887021762E+02 -0.10686786233E+02  0.26227057696E+02  0.47787283926E+02  0.20000058730E+02 0.  0.
         12    1    1    2    0    0  0.32887021762E+02  0.10686786233E+02 -0.26227057696E+02  0.43400716074E+02  0.00000000000E+00 0. -1.
         11    1    3    3    0    0 -0.34719126927E+01 -0.21732491935E+01 -0.96877423229E+00  0.42090038699E+01  0.51100000000E-03 0. -1.
        -11    1    3    3    0    0 -0.13359590091E+01 -0.56081276799E+01  0.36980574826E+01  0.68491979058E+01  0.51100000000E-03 0.  1.
        -12    1    3    3    0    0 -0.28079150061E+02 -0.29054093597E+01  0.23497774446E+02  0.36729082150E+02  0.00000000000E+00 0.  1.
</event>
<event>
 7    1  0.2647566E-010  0.4778727E+02  0.7816164E-02  0.1312668E+00
        -11   -1    0    0    0    0  0.00000000000E+00  0.00000000000E+00  0.45593999997E+02  0.45594000000E+02  0.51100000000E-03 0. -1.
         11   -1    0    0    0    0 -0.00000000000E+00 -0.00000000000E+00 -0.45593999997E+02  0.45594000000E+02  0.51100000000E-03 0.  1.
    9900012    2    1    2    0    0 -0.32807298984E+01  0.28406069657E+02 -0.32648970628E+02  0.47787271146E+02  0.20000000463E+02 0.  0.
         12    1    1    2    0    0  0.32807298984E+01 -0.28406069657E+02  0.32648970628E+02  0.43400728854E+02  0.00000000000E+00 0. -1.
         11    1    3    3    0    0 -0.20518463739E+01  0.35265891395E+01 -0.16542444174E+02  0.17038173729E+02  0.51100000000E-03 0. -1.
        -11    1    3    3    0    0  0.84652941491E+00  0.15537002082E+01 -0.40285160038E+01  0.43999474816E+01  0.51100000000E-03 0.  1.
        -12    1    3    3    0    0 -0.20754129394E+01  0.23325780309E+02 -0.12078010450E+02  0.26349149935E+02  0.00000000000E+00 0.  1.
</event>
<event>
 7    1  0.2647566E-010  0.4778727E+02  0.7816164E-02  0.1312668E+00
        -11   -1    0    0    0    0  0.00000000000E+00  0.00000000000E+00  0.45593999997E+02  0.45594000000E+02  0.51100000000E-03 0. -1.
         11   -1    0    0    0    0 -0.00000000000E+00 -0.00000000000E+00 -0.45593999997E+02  0.45594000000E+02  0.51100000000E-03 0.  1.
    9900012    2    1    2    0    0  0.28361243607E+02  0.25977751094E+02 -0.20110192259E+02  0.47787268168E+02  0.19999986887E+02 0.  0.
         12    1    1    2    0    0 -0.28361243607E+02 -0.25977751094E+02  0.20110192259E+02  0.43400731832E+02  0.00000000000E+00 0. -1.
         11    1    3    3    0    0  0.17356903718E+02  0.31849659077E+01 -0.11303163597E+02  0.20956326541E+02  0.51100000000E-03 0.  1.
        -11    1    3    3    0    0  0.57829114754E+01  0.10525509447E+02 -0.43641484407E+01  0.12777879563E+02  0.51100000000E-03 0. -1.
        -12    1    3    3    0    0  0.52214284136E+01  0.12267275739E+02 -0.44428802214E+01  0.14053062065E+02  0.00000000000E+00 0.  1.
</event>
<event>
 7    1  0.2647566E-010  0.4778726E+02  0.7816164E-02  0.1312668E+00
        -11   -1    0    0    0    0  0.00000000000E+00  0.00000000000E+00  0.45593999997E+02  0.45594000000E+02  0.51100000000E-03 0. -1.
         11   -1    0    0    0    0 -0.00000000000E+00 -0.00000000000E+00 -0.45593999997E+02  0.45594000000E+02  0.51100000000E-03 0.  1.
    9900012    2    1    2    0    0 -0.25466659763E+02 -0.21599372385E+01 -0.35077178133E+02  0.47787256755E+02  0.19999934850E+02 0.  0.
         12    1    1    2    0    0  0.25466659763E+02  0.21599372385E+01  0.35077178133E+02  0.43400743245E+02  0.00000000000E+00 0. -1.
         11    1    3    3    0    0 -0.95516570162E+01 -0.82207009194E+01 -0.21083383989E+02  0.24562637400E+02  0.51100000000E-03 0. -1.
        -11    1    3    3    0    0 -0.80018139172E+01 -0.16035337761E+00 -0.88094590431E+01  0.11902155606E+02  0.51100000000E-03 0.  1.
         12    1    3    3    0    0 -0.79131888300E+01  0.62211170584E+01 -0.51843351015E+01  0.11322463750E+02  0.00000000000E+00 0. -1.
</event>
<event>
 7    1  0.2647566E-010  0.4778727E+02  0.7816164E-02  0.1312668E+00
        -11   -1    0    0    0    0  0.00000000000E+00  0.00000000000E+00  0.45593999997E+02  0.45594000000E+02  0.51100000000E-03 0. -1.
         11   -1    0    0    0    0 -0.00000000000E+00 -0.00000000000E+00 -0.45593999997E+02  0.45594000000E+02  0.51100000000E-03 0.  1.
    9900012    2    1    2    0    0  0.36652707988E+02  0.17963644933E+02 -0.14748204493E+02  0.47787273302E+02  0.20000010295E+02 0.  0.
         12    1    1    2    0    0 -0.36652707988E+02 -0.17963644933E+02  0.14748204493E+02  0.43400726698E+02  0.00000000000E+00 0. -1.
         11    1    3    3    0    0  0.13130880370E+02  0.74771474109E+01 -0.10579796996E+01  0.15147510489E+02  0.51100000000E-03 0. -1.
        -11    1    3    3    0    0 -0.13804647427E+00  0.26481954154E+01  0.18809580334E+01  0.32511535140E+01  0.51100000000E-03 0.  1.
        -12    1    3    3    0    0  0.23659874092E+02  0.78383021070E+01 -0.15571182827E+02  0.29388609300E+02  0.00000000000E+00 0.  1.
</event>
<event>
 7    1  0.2647566E-010  0.4778727E+02  0.7816164E-02  0.1312668E+00
        -11   -1    0    0    0    0  0.00000000000E+00  0.00000000000E+00  0.45593999997E+02  0.45594000000E+02  0.51100000000E-03 0. -1.
         11   -1    0    0    0    0 -0.00000000000E+00 -0.00000000000E+00 -0.45593999997E+02  0.45594000000E+02  0.51100000000E-03 0.  1.
    9900012    2    1    2    0    0  0.10983103803E+02  0.27697061560E+02 -0.31557370084E+02  0.47787269651E+02  0.19999993648E+02 0.  0.
         12    1    1    2    0    0 -0.10983103803E+02 -0.27697061560E+02  0.31557370084E+02  0.43400730349E+02  0.00000000000E+00 0. -1.
         11    1    3    3    0    0  0.44021929684E+01  0.78233809507E+01 -0.73934342005E+01  0.11629594231E+02  0.51100000000E-03 0. -1.
        -11    1    3    3    0    0  0.72963542054E+01  0.21221169054E+02 -0.25613440776E+02  0.34053239924E+02  0.51100000000E-03 0.  1.
         12    1    3    3    0    0 -0.71544337040E+00 -0.13474884444E+01  0.14495048930E+01  0.21044354965E+01  0.00000000000E+00 0. -1.
</event>
<event>
 7    1  0.2647566E-010  0.4778727E+02  0.7816164E-02  0.1312668E+00
        -11   -1    0    0    0    0  0.00000000000E+00  0.00000000000E+00  0.45593999997E+02  0.45594000000E+02  0.51100000000E-03 0.  1.
         11   -1    0    0    0    0 -0.00000000000E+00 -0.00000000000E+00 -0.45593999997E+02  0.45594000000E+02  0.51100000000E-03 0. -1.
    9900012    2    1    2    0    0 -0.28236222961E+01 -0.41081053380E+01  0.43113504576E+02  0.47787266721E+02  0.19999980287E+02 0.  0.
         12    1    1    2    0    0  0.28236222961E+01  0.41081053380E+01 -0.43113504576E+02  0.43400733279E+02  0.00000000000E+00 0. -1.
         11    1    3    3    0    0 -0.12781500972E+01 -0.30160784057E+01  0.17765098840E+02  0.18064582300E+02  0.51100000000E-03 0. -1.
        -11    1    3    3    0    0 -0.31442378754E+01 -0.78605566043E+01  0.12224390450E+02  0.14869778213E+02  0.51100000000E-03 0.  1.
         12    1    3    3    0    0  0.15987656765E+01  0.67685296720E+01  0.13124015286E+02  0.14852906208E+02  0.00000000000E+00 0. -1.
</event>
<event>
 7    1  0.2647566E-010  0.4778727E+02  0.7816164E-02  0.1312668E+00
        -11   -1    0    0    0    0  0.00000000000E+00  0.00000000000E+00  0.45593999997E+02  0.45594000000E+02  0.51100000000E-03 0.  1.
         11   -1    0    0    0    0 -0.00000000000E+00 -0.00000000000E+00 -0.45593999997E+02  0.45594000000E+02  0.51100000000E-03 0. -1.
    9900012    2    1    2    0    0 -0.47734580170E+01  0.41403057089E+02  0.12108848882E+02  0.47787271216E+02  0.20000000780E+02 0.  0.
         12    1    1    2    0    0  0.47734580170E+01 -0.41403057089E+02 -0.12108848882E+02  0.43400728784E+02  0.00000000000E+00 0. -1.
         11    1    3    3    0    0 -0.30856966359E+01  0.74708235007E+01 -0.10045807415E+01  0.81451771150E+01  0.51100000000E-03 0. -1.
        -11    1    3    3    0    0  0.63943887865E+01  0.88114909460E+01  0.23224648803E+01  0.11132134747E+02  0.51100000000E-03 0.  1.
        -12    1    3    3    0    0 -0.80821501676E+01  0.25120742643E+02  0.10790964743E+02  0.28509959353E+02  0.00000000000E+00 0.  1.
</event>
<event>
 7    1  0.2647566E-010  0.4778727E+02  0.7816164E-02  0.1312668E+00
        -11   -1    0    0    0    0  0.00000000000E+00  0.00000000000E+00  0.45593999997E+02  0.45594000000E+02  0.51100000000E-03 0. -1.
         11   -1    0    0    0    0 -0.00000000000E+00 -0.00000000000E+00 -0.45593999997E+02  0.45594000000E+02  0.51100000000E-03 0.  1.
    9900012    2    1    2    0    0 -0.41227193158E+02  0.64778896904E+01  0.11915494548E+02  0.47787268199E+02  0.19999987028E+02 0.  0.
         12    1    1    2    0    0  0.41227193158E+02 -0.64778896904E+01 -0.11915494548E+02  0.43400731801E+02  0.00000000000E+00 0. -1.
         11    1    3    3    0    0 -0.37546433391E+01  0.55607790195E+01  0.51872455389E+00  0.67296868673E+01  0.51100000000E-03 0. -1.
        -11    1    3    3    0    0 -0.13919630895E+02  0.54264802676E+01  0.76541867373E+01  0.16786583548E+02  0.51100000000E-03 0.  1.
         12    1    3    3    0    0 -0.23552918924E+02 -0.45093695967E+01  0.37425832571E+01  0.24270997784E+02  0.00000000000E+00 0. -1.
</event>
<event>
 7    1  0.2647566E-010  0.4778727E+02  0.7816164E-02  0.1312668E+00
        -11   -1    0    0    0    0  0.00000000000E+00  0.00000000000E+00  0.45593999997E+02  0.45594000000E+02  0.51100000000E-03 0.  1.
         11   -1    0    0    0    0 -0.00000000000E+00 -0.00000000000E+00 -0.45593999997E+02  0.45594000000E+02  0.51100000000E-03 0. -1.
    9900012    2    1    2    0    0 -0.51372938485E+01 -0.16838666591E+02  0.39669771817E+02  0.47787271012E+02  0.19999999853E+02 0.  0.
         12    1    1    2    0    0  0.51372938485E+01  0.16838666591E+02 -0.39669771817E+02  0.43400728988E+02  0.00000000000E+00 0. -1.
         11    1    3    3    0    0 -0.10434099531E+01  0.34680086142E+01  0.12958650541E+02  0.13455200191E+02  0.51100000000E-03 0. -1.
        -11    1    3    3    0    0  0.38301712859E+00 -0.20971755035E+01  0.65563240589E+00  0.22304038482E+01  0.51100000000E-03 0.  1.
        -12    1    3    3    0    0 -0.44769010239E+01 -0.18209499701E+02  0.26055488871E+02  0.32101666973E+02  0.00000000000E+00 0.  1.
</event>
<event>
 7    1  0.2647566E-010  0.4778727E+02  0.7816164E-02  0.1312668E+00
        -11   -1    0    0    0    0  0.00000000000E+00  0.00000000000E+00  0.45593999997E+02  0.45594000000E+02  0.51100000000E-03 0.  1.
         11   -1    0    0    0    0 -0.00000000000E+00 -0.00000000000E+00 -0.45593999997E+02  0.45594000000E+02  0.51100000000E-03 0. -1.
    9900012    2    1    2    0    0  0.48031319771E+01 -0.31457062222E+02  0.29512817513E+02  0.47787271458E+02  0.20000001887E+02 0.  0.
         12    1    1    2    0    0 -0.48031319771E+01  0.31457062222E+02 -0.29512817513E+02  0.43400728542E+02  0.00000000000E+00 0. -1.
         11    1    3    3    0    0  0.75501585908E+00 -0.81451896002E+01  0.18988664672E+02  0.20675675294E+02  0.51100000000E-03 0. -1.
        -11    1    3    3    0    0  0.36832616424E+01 -0.13236958001E+02  0.10042322426E+02  0.17018569664E+02  0.51100000000E-03 0.  1.
        -12    1    3    3    0    0  0.36485447567E+00 -0.10074914620E+02  0.48183041533E+00  0.10093026501E+02  0.00000000000E+00 0.  1.
</event>
<event>
 7    1  0.2647566E-010  0.4778725E+02  0.7816164E-02  0.1312668E+00
        -11   -1    0    0    0    0  0.00000000000E+00  0.00000000000E+00  0.45593999997E+02  0.45594000000E+02  0.51100000000E-03 0. -1.
         11   -1    0    0    0    0 -0.00000000000E+00 -0.00000000000E+00 -0.45593999997E+02  0.45594000000E+02  0.51100000000E-03 0.  1.
    9900012    2    1    2    0    0  0.22227510422E+02  0.31218510367E+02 -0.20370748403E+02  0.47787251163E+02  0.19999909353E+02 0.  0.
         12    1    1    2    0    0 -0.22227510422E+02 -0.31218510367E+02  0.20370748403E+02  0.43400748837E+02  0.00000000000E+00 0. -1.
         11    1    3    3    0    0  0.31631222138E+01  0.13125308579E+01 -0.17429152244E+01  0.38426336194E+01  0.51100000000E-03 0. -1.
        -11    1    3    3    0    0  0.13358595777E+02  0.74040035415E+01 -0.13003294335E+02  0.20058838785E+02  0.51100000000E-03 0.  1.
         12    1    3    3    0    0  0.57057924316E+01  0.22501975968E+02 -0.56245388435E+01  0.23885778759E+02  0.00000000000E+00 0. -1.
</event>
<event>
 7    1  0.2647566E-010  0.4778727E+02  0.7816164E-02  0.1312668E+00
        -11   -1    0    0    0    0  0.00000000000E+00  0.00000000000E+00  0.45593999997E+02  0.45594000000E+02  0.51100000000E-03 0.  1.
         11   -1    0    0    0    0 -0.00000000000E+00 -0.00000000000E+00 -0.45593999997E+02  0.45594000000E+02  0.51100000000E-03 0. -1.
    9900012    2    1    2    0    0  0.12207928973E+02 -0.41312446939E+02  0.52793405070E+01  0.47787271457E+02  0.20000001882E+02 0.  0.
         12    1    1    2    0    0 -0.12207928973E+02  0.41312446939E+02 -0.52793405070E+01  0.43400728543E+02  0.00000000000E+00 0. -1.
         11    1    3    3    0    0  0.27349703310E+01 -0.14049910130E+02 -0.40946286073E+01  0.14887780931E+02  0.51100000000E-03 0. -1.
        -11    1    3    3    0    0 -0.29034138680E+01 -0.84660826728E+01  0.16167403633E+01  0.90949556115E+01  0.51100000000E-03 0.  1.
         12    1    3    3    0    0  0.12376372510E+02 -0.18796454136E+02  0.77572287510E+01  0.23804534914E+02  0.00000000000E+00 0. -1.
</event>
<event>
 7    1  0.2647566E-010  0.4778726E+02  0.7816164E-02  0.1312668E+00
        -11   -1    0    0    0    0  0.00000000000E+00  0.00000000000E+00  0.45593999997E+02  0.45594000000E+02  0.51100000000E-03 0.  1.
         11   -1    0    0    0    0 -0.00000000000E+00 -0.00000000000E+00 -0.45593999997E+02  0.45594000000E+02  0.51100000000E-03 0. -1.
    9900012    2    1    2    0    0 -0.41501267609E+02 -0.98695600569E+01 -0.79912754960E+01  0.47787263682E+02  0.19999966431E+02 0.  0.
         12    1    1    2    0    0  0.41501267609E+02  0.98695600569E+01  0.79912754960E+01  0.43400736318E+02  0.00000000000E+00 0. -1.
         11    1    3    3    0    0 -0.21638517012E+02 -0.30522015991E+01  0.85882313623E+00  0.21869589172E+02  0.51100000000E-03 0.  1.
        -11    1    3    3    0    0 -0.76620286352E+01  0.13034562498E+01 -0.81246881015E+01  0.11243497588E+02  0.51100000000E-03 0. -1.
         12    1    3    3    0    0 -0.12200721962E+02 -0.81208147077E+01 -0.72541053075E+00  0.14674176922E+02  0.00000000000E+00 0. -1.
</event>
<event>
 7    1  0.2647566E-010  0.4778727E+02  0.7816164E-02  0.1312668E+00
        -11   -1    0    0    0    0  0.00000000000E+00  0.00000000000E+00  0.45593999997E+02  0.45594000000E+02  0.51100000000E-03 0.  1.
         11   -1    0    0    0    0 -0.00000000000E+00 -0.00000000000E+00 -0.45593999997E+02  0.45594000000E+02  0.51100000000E-03 0. -1.
    9900012    2    1    2    0    0 -0.33932515396E+00  0.40660368838E+02  0.15173740662E+02  0.47787272572E+02  0.20000006965E+02 0.  0.
         12    1    1    2    0    0  0.33932515396E+00 -0.40660368838E+02 -0.15173740662E+02  0.43400727428E+02  0.00000000000E+00 0. -1.
         11    1    3    3    0    0 -0.43081444080E+01  0.33903243371E+01  0.42325218798E+00  0.54985043445E+01  0.51100000000E-03 0. -1.
        -11    1    3    3    0    0 -0.39489658376E+01  0.14213312458E+02  0.23497383818E+01  0.14937665579E+02  0.51100000000E-03 0.  1.
        -12    1    3    3    0    0  0.79177850916E+01  0.23056732043E+02  0.12400750092E+02  0.27351102649E+02  0.00000000000E+00 0.  1.
</event>
<event>
 7    1  0.2647566E-010  0.4778727E+02  0.7816164E-02  0.1312668E+00
        -11   -1    0    0    0    0  0.00000000000E+00  0.00000000000E+00  0.45593999997E+02  0.45594000000E+02  0.51100000000E-03 0.  1.
         11   -1    0    0    0    0 -0.00000000000E+00 -0.00000000000E+00 -0.45593999997E+02  0.45594000000E+02  0.51100000000E-03 0. -1.
    9900012    2    1    2    0    0  0.33496403112E+02 -0.10732802591E+02  0.25424816210E+02  0.47787270142E+02  0.19999995886E+02 0.  0.
         12    1    1    2    0    0 -0.33496403112E+02  0.10732802591E+02 -0.25424816210E+02  0.43400729858E+02  0.00000000000E+00 0. -1.
         11    1    3    3    0    0  0.56806766392E+01 -0.96307221826E+01  0.78788437106E+01  0.13678343296E+02  0.51100000000E-03 0. -1.
        -11    1    3    3    0    0  0.41559683274E+01 -0.11555750121E+01 -0.51382463136E+00  0.43441273416E+01  0.51100000000E-03 0.  1.
        -12    1    3    3    0    0  0.23659758145E+02  0.53494603211E-01  0.18059797131E+02  0.29764799505E+02  0.00000000000E+00 0.  1.
</event>
<event>
 7    1  0.2647566E-010  0.4778729E+02  0.7816164E-02  0.1312668E+00
        -11   -1    0    0    0    0  0.00000000000E+00  0.00000000000E+00  0.45593999997E+02  0.45594000000E+02  0.51100000000E-03 0.  1.
         11   -1    0    0    0    0 -0.00000000000E+00 -0.00000000000E+00 -0.45593999997E+02  0.45594000000E+02  0.51100000000E-03 0. -1.
    9900012    2    1    2    0    0 -0.63560655829E+01 -0.13025687032E+02  0.40909084990E+02  0.47787293473E+02  0.20000102260E+02 0.  0.
         12    1    1    2    0    0  0.63560655829E+01  0.13025687032E+02 -0.40909084990E+02  0.43400706527E+02  0.00000000000E+00 0. -1.
         11    1    3    3    0    0 -0.68318033602E+01 -0.24686632748E+01  0.37515268957E+01  0.81756828356E+01  0.51100000000E-03 0. -1.
        -11    1    3    3    0    0  0.91730654800E+00 -0.20307960169E+01  0.96960116007E+00  0.24301667506E+01  0.51100000000E-03 0.  1.
        -12    1    3    3    0    0 -0.44156877065E+00 -0.85262277407E+01  0.36187956934E+02  0.37181443887E+02  0.00000000000E+00 0.  1.
</event>
<event>
 7    1  0.2647566E-010  0.4778727E+02  0.7816164E-02  0.1312668E+00
        -11   -1    0    0    0    0  0.00000000000E+00  0.00000000000E+00  0.45593999997E+02  0.45594000000E+02  0.51100000000E-03 0. -1.
         11   -1    0    0    0    0 -0.00000000000E+00 -0.00000000000E+00 -0.45593999997E+02  0.45594000000E+02  0.51100000000E-03 0.  1.
    9900012    2    1    2    0    0  0.34244406257E+02 -0.22491613008E+02  0.14320318868E+02  0.47787267885E+02  0.19999985597E+02 0.  0.
         12    1    1    2    0    0 -0.34244406257E+02  0.22491613008E+02 -0.14320318868E+02  0.43400732115E+02  0.00000000000E+00 0. -1.
         11    1    3    3    0    0  0.28527974039E+02 -0.15682398071E+02  0.18168509351E+02  0.37281062811E+02  0.51100000000E-03 0. -1.
        -11    1    3    3    0    0  0.54996666413E+01 -0.36936347807E+01 -0.22399133332E+01  0.69933170284E+01  0.51100000000E-03 0.  1.
        -12    1    3    3    0    0  0.21676557631E+00 -0.31155801568E+01 -0.16082771504E+01  0.35128880456E+01  0.00000000000E+00 0.  1.
</event>
<event>
 7    1  0.2647566E-010  0.4778727E+02  0.7816164E-02  0.1312668E+00
        -11   -1    0    0    0    0  0.00000000000E+00  0.00000000000E+00  0.45593999997E+02  0.45594000000E+02  0.51100000000E-03 0.  1.
         11   -1    0    0    0    0 -0.00000000000E+00 -0.00000000000E+00 -0.45593999997E+02  0.45594000000E+02  0.51100000000E-03 0. -1.
    9900012    2    1    2    0    0  0.17847644569E+02  0.38568546202E+02  0.88063476967E+01  0.47787274976E+02  0.20000017927E+02 0.  0.
         12    1    1    2    0    0 -0.17847644569E+02 -0.38568546202E+02 -0.88063476967E+01  0.43400725024E+02  0.00000000000E+00 0. -1.
         11    1    3    3    0    0  0.44459719613E+00 -0.36155256041E+00  0.11914723268E+01  0.13221170475E+01  0.51100000000E-03 0. -1.
        -11    1    3    3    0    0  0.19456180365E+02  0.25194614336E+02  0.37723136512E+01  0.32055294360E+02  0.51100000000E-03 0.  1.
        -12    1    3    3    0    0 -0.20531329921E+01  0.13735484427E+02  0.38425617187E+01  0.14409863569E+02  0.00000000000E+00 0.  1.
</event>
<event>
 7    1  0.2647566E-010  0.4778727E+02  0.7816164E-02  0.1312668E+00
        -11   -1    0    0    0    0  0.00000000000E+00  0.00000000000E+00  0.45593999997E+02  0.45594000000E+02  0.51100000000E-03 0.  1.
         11   -1    0    0    0    0 -0.00000000000E+00 -0.00000000000E+00 -0.45593999997E+02  0.45594000000E+02  0.51100000000E-03 0. -1.
    9900012    2    1    2    0    0 -0.71886602805E+01 -0.35456128641E+02  0.23975182034E+02  0.47787271338E+02  0.20000001338E+02 0.  0.
         12    1    1    2    0    0  0.71886602805E+01  0.35456128641E+02 -0.23975182034E+02  0.43400728662E+02  0.00000000000E+00 0. -1.
         11    1    3    3    0    0  0.47921914744E+00 -0.25554514162E+01  0.90370077182E+01  0.94035892983E+01  0.51100000000E-03 0. -1.
        -11    1    3    3    0    0  0.11677589091E+01 -0.75993277647E+01 -0.27212828542E-01  0.76885749098E+01  0.51100000000E-03 0.  1.
        -12    1    3    3    0    0 -0.88356383370E+01 -0.25301349460E+02  0.14965387144E+02  0.30695107130E+02  0.00000000000E+00 0.  1.
</event>
<event>
 7    1  0.2647566E-010  0.4778727E+02  0.7816164E-02  0.1312668E+00
        -11   -1    0    0    0    0  0.00000000000E+00  0.00000000000E+00  0.45593999997E+02  0.45594000000E+02  0.51100000000E-03 0.  1.
         11   -1    0    0    0    0 -0.00000000000E+00 -0.00000000000E+00 -0.45593999997E+02  0.45594000000E+02  0.51100000000E-03 0. -1.
    9900012    2    1    2    0    0  0.85392594569E+01 -0.42412970984E+02 -0.34415077382E+01  0.47787273793E+02  0.20000012534E+02 0.  0.
         12    1    1    2    0    0 -0.85392594569E+01  0.42412970984E+02  0.34415077382E+01  0.43400726207E+02  0.00000000000E+00 0. -1.
         11    1    3    3    0    0  0.11902875375E+02 -0.13997320531E+02 -0.39337738550E+01  0.18790369907E+02  0.51100000000E-03 0. -1.
        -11    1    3    3    0    0 -0.10724981513E+01 -0.95405135730E+00  0.52287906497E-01  0.14363845457E+01  0.51100000000E-03 0.  1.
        -12    1    3    3    0    0 -0.22911177669E+01 -0.27461599096E+02  0.43997821028E+00  0.27560519341E+02  0.00000000000E+00 0.  1.
</event>
<event>
 7    1  0.2647566E-010  0.4778727E+02  0.7816164E-02  0.1312668E+00
        -11   -1    0    0    0    0  0.00000000000E+00  0.00000000000E+00  0.45593999997E+02  0.45594000000E+02  0.51100000000E-03 0. -1.
         11   -1    0    0    0    0 -0.00000000000E+00 -0.00000000000E+00 -0.45593999997E+02  0.45594000000E+02  0.51100000000E-03 0.  1.
    9900012    2    1    2    0    0 -0.25177058040E+02  0.35278748022E+02 -0.22691204563E+01  0.47787271651E+02  0.20000002767E+02 0.  0.
         12    1    1    2    0    0  0.25177058040E+02 -0.35278748022E+02  0.22691204563E+01  0.43400728349E+02  0.00000000000E+00 0. -1.
         11    1    3    3    0    0 -0.41081890042E+01  0.19056528323E+02 -0.49235851849E+01  0.20106471097E+02  0.51100000000E-03 0. -1.
        -11    1    3    3    0    0 -0.53651277744E+01  0.57131888160E+01 -0.22594673407E+01  0.81566117602E+01  0.51100000000E-03 0.  1.
        -12    1    3    3    0    0 -0.15703741261E+02  0.10509030883E+02  0.49139320693E+01  0.19524188794E+02  0.00000000000E+00 0.  1.
</event>
<event>
 7    1  0.2647566E-010  0.4778727E+02  0.7816164E-02  0.1312668E+00
        -11   -1    0    0    0    0  0.00000000000E+00  0.00000000000E+00  0.45593999997E+02  0.45594000000E+02  0.51100000000E-03 0. -1.
         11   -1    0    0    0    0 -0.00000000000E+00 -0.00000000000E+00 -0.45593999997E+02  0.45594000000E+02  0.51100000000E-03 0.  1.
    9900012    2    1    2    0    0 -0.10688353560E+02 -0.33019092444E+02 -0.26059972759E+02  0.47787267888E+02  0.19999985609E+02 0.  0.
         12    1    1    2    0    0  0.10688353560E+02  0.33019092444E+02  0.26059972759E+02  0.43400732112E+02  0.00000000000E+00 0. -1.
         11    1    3    3    0    0 -0.39080271644E+01 -0.97724674388E+01 -0.73379236929E+01  0.12830390506E+02  0.51100000000E-03 0. -1.
        -11    1    3    3    0    0 -0.19710677098E+01 -0.68471919619E+01  0.26410972254E+01  0.75989828592E+01  0.51100000000E-03 0.  1.
        -12    1    3    3    0    0 -0.48092586862E+01 -0.16399433043E+02 -0.21363146291E+02  0.27357894523E+02  0.00000000000E+00 0.  1.
</event>
<event>
 7    1  0.2647566E-010  0.4778727E+02  0.7816164E-02  0.1312668E+00
        -11   -1    0    0    0    0  0.00000000000E+00  0.00000000000E+00  0.45593999997E+02  0.45594000000E+02  0.51100000000E-03 0.  1.
         11   -1    0    0    0    0 -0.00000000000E+00 -0.00000000000E+00 -0.45593999997E+02  0.45594000000E+02  0.51100000000E-03 0. -1.
    9900012    2    1    2    0    0 -0.37963571909E+02 -0.10401446112E+01  0.21007352479E+02  0.47787267850E+02  0.19999985437E+02 0.  0.
         12    1    1    2    0    0  0.37963571909E+02  0.10401446112E+01 -0.21007352479E+02  0.43400732150E+02  0.00000000000E+00 0. -1.
         11    1    3    3    0    0 -0.11215494747E+02 -0.21542126952E+01  0.96094263828E+01  0.14925449086E+02  0.51100000000E-03 0. -1.
        -11    1    3    3    0    0 -0.15693299900E+02  0.34470567037E+00  0.14484132861E+02  0.21358571786E+02  0.51100000000E-03 0.  1.
        -12    1    3    3    0    0 -0.11054777262E+02  0.76936241355E+00 -0.30862067644E+01  0.11503246978E+02  0.00000000000E+00 0.  1.
</event>
<event>
 7    1  0.2647566E-010  0.4778727E+02  0.7816164E-02  0.1312668E+00
        -11   -1    0    0    0    0  0.00000000000E+00  0.00000000000E+00  0.45593999997E+02  0.45594000000E+02  0.51100000000E-03 0.  1.
         11   -1    0    0    0    0 -0.00000000000E+00 -0.00000000000E+00 -0.45593999997E+02  0.45594000000E+02  0.51100000000E-03 0. -1.
    9900012    2    1    2    0    0 -0.21342413892E+02  0.35464297695E+02 -0.13054069167E+02  0.47787265403E+02  0.19999974279E+02 0.  0.
         12    1    1    2    0    0  0.21342413892E+02 -0.35464297695E+02  0.13054069167E+02  0.43400734597E+02  0.00000000000E+00 0. -1.
         11    1    3    3    0    0 -0.41014425014E+01  0.17033678609E+02 -0.19323704104E+01  0.17626743693E+02  0.51100000000E-03 0. -1.
        -11    1    3    3    0    0  0.43287131260E-01  0.60047110191E+01  0.28131560810E+00  0.60114529801E+01  0.51100000000E-03 0.  1.
        -12    1    3    3    0    0 -0.17284258522E+02  0.12425908067E+02 -0.11403014364E+02  0.24149068730E+02  0.00000000000E+00 0.  1.
</event>
<event>
 7    1  0.2647566E-010  0.4778727E+02  0.7816164E-02  0.1312668E+00
        -11   -1    0    0    0    0  0.00000000000E+00  0.00000000000E+00  0.45593999997E+02  0.45594000000E+02  0.51100000000E-03 0. -1.
         11   -1    0    0    0    0 -0.00000000000E+00 -0.00000000000E+00 -0.45593999997E+02  0.45594000000E+02  0.51100000000E-03 0.  1.
    9900012    2    1    2    0    0 -0.49944883461E+01  0.35228785857E+02  0.24851780085E+02  0.47787271433E+02  0.20000001770E+02 0.  0.
         12    1    1    2    0    0  0.49944883461E+01 -0.35228785857E+02 -0.24851780085E+02  0.43400728567E+02  0.00000000000E+00 0. -1.
         11    1    3    3    0    0  0.47607163599E+01  0.54847984891E+01  0.51217680300E+01  0.88870660366E+01  0.51100000000E-03 0. -1.
        -11    1    3    3    0    0  0.23443792125E+01  0.88538087213E+01  0.34724974543E+01  0.97951151906E+01  0.51100000000E-03 0.  1.
        -12    1    3    3    0    0 -0.12099583918E+02  0.20890178646E+02  0.16257514601E+02  0.29105090205E+02  0.00000000000E+00 0.  1.
</event>
<event>
 7    1  0.2647566E-010  0.4778727E+02  0.7816164E-02  0.1312668E+00
        -11   -1    0    0    0    0  0.00000000000E+00  0.00000000000E+00  0.45593999997E+02  0.45594000000E+02  0.51100000000E-03 0.  1.
         11   -1    0    0    0    0 -0.00000000000E+00 -0.00000000000E+00 -0.45593999997E+02  0.45594000000E+02  0.51100000000E-03 0. -1.
    9900012    2    1    2    0    0  0.31510513740E+02 -0.29797522752E+02  0.16788660093E+01  0.47787269253E+02  0.19999991831E+02 0.  0.
         12    1    1    2    0    0 -0.31510513740E+02  0.29797522752E+02 -0.16788660093E+01  0.43400730747E+02  0.00000000000E+00 0. -1.
         11    1    3    3    0    0  0.39497117592E+01  0.24681889506E+00  0.20039156449E+01  0.44358562557E+01  0.51100000000E-03 0. -1.
        -11    1    3    3    0    0  0.24146957674E+02 -0.20793602653E+02  0.48211159803E+01  0.32228754796E+02  0.51100000000E-03 0.  1.
        -12    1    3    3    0    0  0.34138443070E+01 -0.92507389947E+01 -0.51461656160E+01  0.11122658201E+02  0.00000000000E+00 0.  1.
</event>
<event>
 7    1  0.2647566E-010  0.4778728E+02  0.7816164E-02  0.1312668E+00
        -11   -1    0    0    0    0  0.00000000000E+00  0.00000000000E+00  0.45593999997E+02  0.45594000000E+02  0.51100000000E-03 0.  1.
         11   -1    0    0    0    0 -0.00000000000E+00 -0.00000000000E+00 -0.45593999997E+02  0.45594000000E+02  0.51100000000E-03 0. -1.
    9900012    2    1    2    0    0  0.29436914145E+02 -0.80742175808E+01  0.30852838651E+02  0.47787279306E+02  0.20000037669E+02 0.  0.
         12    1    1    2    0    0 -0.29436914145E+02  0.80742175808E+01 -0.30852838651E+02  0.43400720694E+02  0.00000000000E+00 0. -1.
         11    1    3    3    0    0  0.27660721696E+01  0.25572828296E+01  0.12309876336E+02  0.12873379758E+02  0.51100000000E-03 0. -1.
        -11    1    3    3    0    0  0.46295110896E+01 -0.26264285683E+01  0.69522162696E+01  0.87557873017E+01  0.51100000000E-03 0.  1.
        -12    1    3    3    0    0  0.22041330886E+02 -0.80050718421E+01  0.11590746045E+02  0.26158112246E+02  0.00000000000E+00 0.  1.
</event>
<event>
 7    1  0.2647566E-010  0.4778727E+02  0.7816164E-02  0.1312668E+00
        -11   -1    0    0    0    0  0.00000000000E+00  0.00000000000E+00  0.45593999997E+02  0.45594000000E+02  0.51100000000E-03 0.  1.
         11   -1    0    0    0    0 -0.00000000000E+00 -0.00000000000E+00 -0.45593999997E+02  0.45594000000E+02  0.51100000000E-03 0. -1.
    9900012    2    1    2    0    0  0.19331955008E+02  0.31708517458E+02  0.22460390399E+02  0.47787266128E+02  0.19999977584E+02 0.  0.
         12    1    1    2    0    0 -0.19331955008E+02 -0.31708517458E+02 -0.22460390399E+02  0.43400733872E+02  0.00000000000E+00 0. -1.
         11    1    3    3    0    0 -0.19390470296E+01 -0.12966186333E+01  0.11523567824E+01  0.26017397407E+01  0.51100000000E-03 0. -1.
        -11    1    3    3    0    0  0.38882746899E+01  0.81626427645E+01  0.80031342356E+01  0.12074666655E+02  0.51100000000E-03 0.  1.
        -12    1    3    3    0    0  0.17382727347E+02  0.24842493326E+02  0.13304899380E+02  0.33110859733E+02  0.00000000000E+00 0.  1.
</event>
<event>
 7    1  0.2647566E-010  0.4778727E+02  0.7816164E-02  0.1312668E+00
        -11   -1    0    0    0    0  0.00000000000E+00  0.00000000000E+00  0.45593999997E+02  0.45594000000E+02  0.51100000000E-03 0.  1.
         11   -1    0    0    0    0 -0.00000000000E+00 -0.00000000000E+00 -0.45593999997E+02  0.45594000000E+02  0.51100000000E-03 0. -1.
    9900012    2    1    2    0    0  0.39735752161E+02  0.10085902753E+02  0.14246675448E+02  0.47787271948E+02  0.20000004121E+02 0.  0.
         12    1    1    2    0    0 -0.39735752161E+02 -0.10085902753E+02 -0.14246675448E+02  0.43400728052E+02  0.00000000000E+00 0. -1.
         11    1    3    3    0    0  0.68068747412E+01  0.18019625232E+01  0.55569005087E+01  0.89699362429E+01  0.51100000000E-03 0.  1.
        -11    1    3    3    0    0  0.72192393480E+01  0.84498326618E+01 -0.13929492197E+01  0.11200776606E+02  0.51100000000E-03 0. -1.
        -12    1    3    3    0    0  0.25709638071E+02 -0.16589243236E+00  0.10082724159E+02  0.27616559100E+02  0.00000000000E+00 0.  1.
</event>
<event>
 7    1  0.2647566E-010  0.4778728E+02  0.7816164E-02  0.1312668E+00
        -11   -1    0    0    0    0  0.00000000000E+00  0.00000000000E+00  0.45593999997E+02  0.45594000000E+02  0.51100000000E-03 0.  1.
         11   -1    0    0    0    0 -0.00000000000E+00 -0.00000000000E+00 -0.45593999997E+02  0.45594000000E+02  0.51100000000E-03 0. -1.
    9900012    2    1    2    0    0  0.35393801265E+02  0.20983882302E+02  0.13804985816E+02  0.47787284363E+02  0.20000060724E+02 0.  0.
         12    1    1    2    0    0 -0.35393801265E+02 -0.20983882302E+02 -0.13804985816E+02  0.43400715637E+02  0.00000000000E+00 0. -1.
         11    1    3    3    0    0  0.12585759468E+02  0.11710390367E+02  0.23047755460E+00  0.17192664253E+02  0.51100000000E-03 0. -1.
        -11    1    3    3    0    0  0.11424695459E+02  0.15359665027E+01  0.38907797970E+00  0.11534047050E+02  0.51100000000E-03 0.  1.
         12    1    3    3    0    0  0.11383346338E+02  0.77375254315E+01  0.13185430282E+02  0.19060573060E+02  0.00000000000E+00 0. -1.
</event>
<event>
 7    1  0.2647566E-010  0.4778727E+02  0.7816164E-02  0.1312668E+00
        -11   -1    0    0    0    0  0.00000000000E+00  0.00000000000E+00  0.45593999997E+02  0.45594000000E+02  0.51100000000E-03 0.  1.
         11   -1    0    0    0    0 -0.00000000000E+00 -0.00000000000E+00 -0.45593999997E+02  0.45594000000E+02  0.51100000000E-03 0. -1.
    9900012    2    1    2    0    0 -0.14177196041E+02  0.23584789204E+02  0.33561704769E+02  0.47787271937E+02  0.20000004070E+02 0.  0.
         12    1    1    2    0    0  0.14177196041E+02 -0.23584789204E+02 -0.33561704769E+02  0.43400728063E+02  0.00000000000E+00 0. -1.
         11    1    3    3    0    0 -0.14852599959E+01  0.13279107072E+01  0.81079711198E+01  0.83491640325E+01  0.51100000000E-03 0. -1.
        -11    1    3    3    0    0 -0.11681986487E+02  0.12609358991E+02  0.24161712623E+02  0.29652202272E+02  0.51100000000E-03 0.  1.
        -12    1    3    3    0    0 -0.10099495580E+01  0.96475195053E+01  0.12920210268E+01  0.97859056325E+01  0.00000000000E+00 0.  1.
</event>
<event>
 7    1  0.2647566E-010  0.4778723E+02  0.7816164E-02  0.1312668E+00
        -11   -1    0    0    0    0  0.00000000000E+00  0.00000000000E+00  0.45593999997E+02  0.45594000000E+02  0.51100000000E-03 0.  1.
         11   -1    0    0    0    0 -0.00000000000E+00 -0.00000000000E+00 -0.45593999997E+02  0.45594000000E+02  0.51100000000E-03 0. -1.
    9900012    2    1    2    0    0 -0.27917057284E+02 -0.14990950492E+02  0.29656968793E+02  0.47787234085E+02  0.19999831487E+02 0.  0.
         12    1    1    2    0    0  0.27917057284E+02  0.14990950492E+02 -0.29656968793E+02  0.43400765915E+02  0.00000000000E+00 0. -1.
         11    1    3    3    0    0 -0.12501939323E+00 -0.26950018428E+01  0.90339698579E+01  0.94282170337E+01  0.51100000000E-03 0. -1.
        -11    1    3    3    0    0 -0.10075733338E+02 -0.51393735443E+01  0.14300681794E+02  0.18233021219E+02  0.51100000000E-03 0.  1.
         12    1    3    3    0    0 -0.17716304552E+02 -0.71565751049E+01  0.63223171409E+01  0.20125995833E+02  0.00000000000E+00 0. -1.
</event>
<event>
 7    1  0.2647566E-010  0.4778726E+02  0.7816164E-02  0.1312668E+00
        -11   -1    0    0    0    0  0.00000000000E+00  0.00000000000E+00  0.45593999997E+02  0.45594000000E+02  0.51100000000E-03 0.  1.
         11   -1    0    0    0    0 -0.00000000000E+00 -0.00000000000E+00 -0.45593999997E+02  0.45594000000E+02  0.51100000000E-03 0. -1.
    9900012    2    1    2    0    0 -0.26385337725E+01 -0.41074502550E+02  0.13767631201E+02  0.47787259348E+02  0.19999946673E+02 0.  0.
         12    1    1    2    0    0  0.26385337725E+01  0.41074502550E+02 -0.13767631201E+02  0.43400740652E+02  0.00000000000E+00 0. -1.
         11    1    3    3    0    0 -0.22036913427E+01 -0.53402115438E+00  0.27336256093E+00  0.22838917395E+01  0.51100000000E-03 0. -1.
        -11    1    3    3    0    0 -0.51600618330E+01 -0.34867855329E+02  0.76034684249E+01  0.36058373587E+02  0.51100000000E-03 0.  1.
        -12    1    3    3    0    0  0.47252194031E+01 -0.56726260665E+01  0.58908002155E+01  0.94449940221E+01  0.00000000000E+00 0.  1.
</event>
<event>
 7    1  0.2647566E-010  0.4778727E+02  0.7816164E-02  0.1312668E+00
        -11   -1    0    0    0    0  0.00000000000E+00  0.00000000000E+00  0.45593999997E+02  0.45594000000E+02  0.51100000000E-03 0.  1.
         11   -1    0    0    0    0 -0.00000000000E+00 -0.00000000000E+00 -0.45593999997E+02  0.45594000000E+02  0.51100000000E-03 0. -1.
    9900012    2    1    2    0    0  0.35166053559E+02  0.18934902412E+02  0.16983569069E+02  0.47787268778E+02  0.19999989668E+02 0.  0.
         12    1    1    2    0    0 -0.35166053559E+02 -0.18934902412E+02 -0.16983569069E+02  0.43400731222E+02  0.00000000000E+00 0. -1.
         11    1    3    3    0    0  0.44672643507E+00  0.34314457341E+01  0.31390428036E+01  0.46720417718E+01  0.51100000000E-03 0. -1.
        -11    1    3    3    0    0  0.11125847593E+02  0.23433240024E+01  0.11217705097E+02  0.15972243423E+02  0.51100000000E-03 0.  1.
        -12    1    3    3    0    0  0.23593479531E+02  0.13160132675E+02  0.26268211686E+01  0.27142983584E+02  0.00000000000E+00 0.  1.
</event>
<event>
 7    1  0.2647566E-010  0.4778727E+02  0.7816164E-02  0.1312668E+00
        -11   -1    0    0    0    0  0.00000000000E+00  0.00000000000E+00  0.45593999997E+02  0.45594000000E+02  0.51100000000E-03 0.  1.
         11   -1    0    0    0    0 -0.00000000000E+00 -0.00000000000E+00 -0.45593999997E+02  0.45594000000E+02  0.51100000000E-03 0. -1.
    9900012    2    1    2    0    0  0.29587343281E+02  0.28974374126E+02 -0.12988386661E+02  0.47787269286E+02  0.19999991982E+02 0.  0.
         12    1    1    2    0    0 -0.29587343281E+02 -0.28974374126E+02  0.12988386661E+02  0.43400730714E+02  0.00000000000E+00 0. -1.
         11    1    3    3    0    0 -0.11918965619E+01  0.42269690251E+01 -0.41459045553E+01  0.60395702990E+01  0.51100000000E-03 0. -1.
        -11    1    3    3    0    0  0.87111762958E+01  0.98671309545E+01 -0.73830235822E+01  0.15091517591E+02  0.51100000000E-03 0.  1.
        -12    1    3    3    0    0  0.22068063547E+02  0.14880274147E+02 -0.14594585238E+01  0.26656181396E+02  0.00000000000E+00 0.  1.
</event>
<event>
 7    1  0.2647566E-010  0.4778727E+02  0.7816164E-02  0.1312668E+00
        -11   -1    0    0    0    0  0.00000000000E+00  0.00000000000E+00  0.45593999997E+02  0.45594000000E+02  0.51100000000E-03 0. -1.
         11   -1    0    0    0    0 -0.00000000000E+00 -0.00000000000E+00 -0.45593999997E+02  0.45594000000E+02  0.51100000000E-03 0.  1.
    9900012    2    1    2    0    0  0.78624000609E+01 -0.25733578525E+02 -0.34052733091E+02  0.47787273861E+02  0.20000012842E+02 0.  0.
         12    1    1    2    0    0 -0.78624000609E+01  0.25733578525E+02  0.34052733091E+02  0.43400726139E+02  0.00000000000E+00 0. -1.
         11    1    3    3    0    0  0.47980621882E+01 -0.18144026070E+02 -0.26862992903E+02  0.32769612002E+02  0.51100000000E-03 0. -1.
        -11    1    3    3    0    0  0.30080873168E+01 -0.91669596864E+01 -0.85823533557E+01  0.12912727387E+02  0.51100000000E-03 0.  1.
         12    1    3    3    0    0  0.56250555889E-01  0.15774072315E+01  0.13926131669E+01  0.21049344721E+01  0.00000000000E+00 0. -1.
</event>
<event>
 7    1  0.2647566E-010  0.4778727E+02  0.7816164E-02  0.1312668E+00
        -11   -1    0    0    0    0  0.00000000000E+00  0.00000000000E+00  0.45593999997E+02  0.45594000000E+02  0.51100000000E-03 0.  1.
         11   -1    0    0    0    0 -0.00000000000E+00 -0.00000000000E+00 -0.45593999997E+02  0.45594000000E+02  0.51100000000E-03 0. -1.
    9900012    2    1    2    0    0  0.32479354561E+02  0.14214291481E+02 -0.25033354567E+02  0.47787269639E+02  0.19999993590E+02 0.  0.
         12    1    1    2    0    0 -0.32479354561E+02 -0.14214291481E+02  0.25033354567E+02  0.43400730361E+02  0.00000000000E+00 0. -1.
         11    1    3    3    0    0  0.82514505608E+01  0.11448501767E+02 -0.11386895140E+02  0.18133284596E+02  0.51100000000E-03 0. -1.
        -11    1    3    3    0    0  0.13034774461E+02  0.42100130807E+01 -0.12073050189E+02  0.18258918274E+02  0.51100000000E-03 0.  1.
         12    1    3    3    0    0  0.11193129540E+02 -0.14442233672E+01 -0.15734092380E+01  0.11395066768E+02  0.00000000000E+00 0. -1.
</event>
<event>
 7    1  0.2647566E-010  0.4778727E+02  0.7816164E-02  0.1312668E+00
        -11   -1    0    0    0    0  0.00000000000E+00  0.00000000000E+00  0.45593999997E+02  0.45594000000E+02  0.51100000000E-03 0. -1.
         11   -1    0    0    0    0 -0.00000000000E+00 -0.00000000000E+00 -0.45593999997E+02  0.45594000000E+02  0.51100000000E-03 0.  1.
    9900012    2    1    2    0    0  0.11809807120E+02 -0.41377482525E+02 -0.56617671004E+01  0.47787271769E+02  0.20000003303E+02 0.  0.
         12    1    1    2    0    0 -0.11809807120E+02  0.41377482525E+02  0.56617671004E+01  0.43400728231E+02  0.00000000000E+00 0. -1.
         11    1    3    3    0    0  0.77893548694E+01 -0.28618139463E+02 -0.75081009879E+01  0.30594828587E+02  0.51100000000E-03 0. -1.
        -11    1    3    3    0    0  0.25906636715E+01 -0.14258058117E+02  0.11364522416E+00  0.14491952078E+02  0.51100000000E-03 0.  1.
         12    1    3    3    0    0  0.14297885789E+01  0.14987150549E+01  0.17326886634E+01  0.27004911035E+01  0.00000000000E+00 0. -1.
</event>
<event>
 7    1  0.2647566E-010  0.4778727E+02  0.7816164E-02  0.1312668E+00
        -11   -1    0    0    0    0  0.00000000000E+00  0.00000000000E+00  0.45593999997E+02  0.45594000000E+02  0.51100000000E-03 0.  1.
         11   -1    0    0    0    0 -0.00000000000E+00 -0.00000000000E+00 -0.45593999997E+02  0.45594000000E+02  0.51100000000E-03 0. -1.
    9900012    2    1    2    0    0  0.14320862787E-01 -0.33608345740E+01  0.43270402787E+02  0.47787272224E+02  0.20000005377E+02 0.  0.
         12    1    1    2    0    0 -0.14320862787E-01  0.33608345740E+01 -0.43270402787E+02  0.43400727776E+02  0.00000000000E+00 0. -1.
         11    1    3    3    0    0 -0.13020204740E+01 -0.16851768035E+01  0.17749793211E+00  0.21369567031E+01  0.51100000000E-03 0. -1.
        -11    1    3    3    0    0 -0.53500203238E+01 -0.40407387193E+01  0.11835503563E+02  0.13602552397E+02  0.51100000000E-03 0.  1.
         12    1    3    3    0    0  0.66663616606E+01  0.23650809489E+01  0.31257401292E+02  0.32047763123E+02  0.00000000000E+00 0. -1.
</event>
<event>
 7    1  0.2647566E-010  0.4778727E+02  0.7816164E-02  0.1312668E+00
        -11   -1    0    0    0    0  0.00000000000E+00  0.00000000000E+00  0.45593999997E+02  0.45594000000E+02  0.51100000000E-03 0. -1.
         11   -1    0    0    0    0 -0.00000000000E+00 -0.00000000000E+00 -0.45593999997E+02  0.45594000000E+02  0.51100000000E-03 0.  1.
    9900012    2    1    2    0    0 -0.23203021045E+02 -0.36106765076E+02 -0.64455029385E+01  0.47787272149E+02  0.20000005036E+02 0.  0.
         12    1    1    2    0    0  0.23203021045E+02  0.36106765076E+02  0.64455029385E+01  0.43400727851E+02  0.00000000000E+00 0. -1.
         11    1    3    3    0    0 -0.12812693172E+01 -0.18741214430E+01  0.37403276855E+01  0.43753895486E+01  0.51100000000E-03 0. -1.
        -11    1    3    3    0    0 -0.47182111514E+01 -0.52634801045E+01  0.23709838102E+01  0.74556893557E+01  0.51100000000E-03 0.  1.
        -12    1    3    3    0    0 -0.17203540577E+02 -0.28969163528E+02 -0.12556814434E+02  0.35956193245E+02  0.00000000000E+00 0.  1.
</event>
<event>
 7    1  0.2647566E-010  0.4778727E+02  0.7816164E-02  0.1312668E+00
        -11   -1    0    0    0    0  0.00000000000E+00  0.00000000000E+00  0.45593999997E+02  0.45594000000E+02  0.51100000000E-03 0.  1.
         11   -1    0    0    0    0 -0.00000000000E+00 -0.00000000000E+00 -0.45593999997E+02  0.45594000000E+02  0.51100000000E-03 0. -1.
    9900012    2    1    2    0    0  0.12091871983E+01  0.41100876246E+02  0.13888090854E+02  0.47787271557E+02  0.20000002335E+02 0.  0.
         12    1    1    2    0    0 -0.12091871983E+01 -0.41100876246E+02 -0.13888090854E+02  0.43400728443E+02  0.00000000000E+00 0. -1.
         11    1    3    3    0    0  0.58357645349E+00  0.14660353981E+02 -0.30791909889E+00  0.14675195220E+02  0.51100000000E-03 0. -1.
        -11    1    3    3    0    0  0.23336384917E+01 -0.90718437393E+00  0.95713943777E+00  0.26804791107E+01  0.51100000000E-03 0.  1.
        -12    1    3    3    0    0 -0.17080277470E+01  0.27347706639E+02  0.13238870516E+02  0.30431597226E+02  0.00000000000E+00 0.  1.
</event>
<event>
 7    1  0.2647566E-010  0.4778727E+02  0.7816164E-02  0.1312668E+00
        -11   -1    0    0    0    0  0.00000000000E+00  0.00000000000E+00  0.45593999997E+02  0.45594000000E+02  0.51100000000E-03 0.  1.
         11   -1    0    0    0    0 -0.00000000000E+00 -0.00000000000E+00 -0.45593999997E+02  0.45594000000E+02  0.51100000000E-03 0. -1.
    9900012    2    1    2    0    0  0.25899853946E+01 -0.40369452158E+02  0.15723314841E+02  0.47787270496E+02  0.19999997499E+02 0.  0.
         12    1    1    2    0    0 -0.25899853946E+01  0.40369452158E+02 -0.15723314841E+02  0.43400729504E+02  0.00000000000E+00 0. -1.
         11    1    3    3    0    0  0.21774006433E+01 -0.32846822255E+01  0.39444524565E+01  0.55757435672E+01  0.51100000000E-03 0. -1.
        -11    1    3    3    0    0  0.69671833922E+01 -0.16347672698E+02  0.99992294963E+01  0.20390503619E+02  0.51100000000E-03 0.  1.
         12    1    3    3    0    0 -0.65545986409E+01 -0.20737097235E+02  0.17796328881E+01  0.21821023310E+02  0.00000000000E+00 0. -1.
</event>
<event>
 7    1  0.2647566E-010  0.4778727E+02  0.7816164E-02  0.1312668E+00
        -11   -1    0    0    0    0  0.00000000000E+00  0.00000000000E+00  0.45593999997E+02  0.45594000000E+02  0.51100000000E-03 0.  1.
         11   -1    0    0    0    0 -0.00000000000E+00 -0.00000000000E+00 -0.45593999997E+02  0.45594000000E+02  0.51100000000E-03 0. -1.
    9900012    2    1    2    0    0 -0.37339328264E+02  0.22084257159E+02  0.12974509977E+01  0.47787271567E+02  0.20000002381E+02 0.  0.
         12    1    1    2    0    0  0.37339328264E+02 -0.22084257159E+02 -0.12974509977E+01  0.43400728433E+02  0.00000000000E+00 0. -1.
         11    1    3    3    0    0 -0.22813261779E+02  0.21182778999E+02  0.58026053901E+01  0.31667416514E+02  0.51100000000E-03 0. -1.
        -11    1    3    3    0    0 -0.98908767103E+01  0.23013394015E+01 -0.11302701921E+01  0.10217784305E+02  0.51100000000E-03 0.  1.
         12    1    3    3    0    0 -0.46351897741E+01 -0.13998612414E+01 -0.33748842003E+01  0.59020707470E+01  0.00000000000E+00 0. -1.
</event>
<event>
 7    1  0.2647566E-010  0.4778726E+02  0.7816164E-02  0.1312668E+00
        -11   -1    0    0    0    0  0.00000000000E+00  0.00000000000E+00  0.45593999997E+02  0.45594000000E+02  0.51100000000E-03 0.  1.
         11   -1    0    0    0    0 -0.00000000000E+00 -0.00000000000E+00 -0.45593999997E+02  0.45594000000E+02  0.51100000000E-03 0. -1.
    9900012    2    1    2    0    0 -0.16782347720E+02 -0.31198765230E+01  0.39902927439E+02  0.47787257578E+02  0.19999938603E+02 0.  0.
         12    1    1    2    0    0  0.16782347720E+02  0.31198765230E+01 -0.39902927439E+02  0.43400742422E+02  0.00000000000E+00 0. -1.
         11    1    3    3    0    0 -0.15901434199E+01 -0.22843948120E+01  0.13024552646E+01  0.30730124846E+01  0.51100000000E-03 0.  1.
        -11    1    3    3    0    0 -0.14909988280E+02  0.17861160429E+01  0.15934222558E+02  0.21895145805E+02  0.51100000000E-03 0. -1.
         12    1    3    3    0    0 -0.28221602028E+00 -0.26215977538E+01  0.22666249617E+02  0.22819099289E+02  0.00000000000E+00 0. -1.
</event>
<event>
 7    1  0.2647566E-010  0.4778727E+02  0.7816164E-02  0.1312668E+00
        -11   -1    0    0    0    0  0.00000000000E+00  0.00000000000E+00  0.45593999997E+02  0.45594000000E+02  0.51100000000E-03 0.  1.
         11   -1    0    0    0    0 -0.00000000000E+00 -0.00000000000E+00 -0.45593999997E+02  0.45594000000E+02  0.51100000000E-03 0. -1.
    9900012    2    1    2    0    0 -0.68184311177E+01 -0.31770091460E+02  0.28771396546E+02  0.47787274505E+02  0.20000015778E+02 0.  0.
         12    1    1    2    0    0  0.68184311177E+01  0.31770091460E+02 -0.28771396546E+02  0.43400725495E+02  0.00000000000E+00 0. -1.
         11    1    3    3    0    0  0.28181037672E+01 -0.19762357426E+02  0.84007280055E+01  0.21657901818E+02  0.51100000000E-03 0. -1.
        -11    1    3    3    0    0 -0.83976764792E+00 -0.16387573376E+01  0.26957355203E+00  0.18610226960E+01  0.51100000000E-03 0.  1.
        -12    1    3    3    0    0 -0.87967672369E+01 -0.10368976697E+02  0.20101094988E+02  0.24268349991E+02  0.00000000000E+00 0.  1.
</event>
<event>
 7    1  0.2647566E-010  0.4778727E+02  0.7816164E-02  0.1312668E+00
        -11   -1    0    0    0    0  0.00000000000E+00  0.00000000000E+00  0.45593999997E+02  0.45594000000E+02  0.51100000000E-03 0. -1.
         11   -1    0    0    0    0 -0.00000000000E+00 -0.00000000000E+00 -0.45593999997E+02  0.45594000000E+02  0.51100000000E-03 0.  1.
    9900012    2    1    2    0    0  0.75158366416E+01 -0.40721777520E+02  0.12995100182E+02  0.47787267362E+02  0.19999983210E+02 0.  0.
         12    1    1    2    0    0 -0.75158366416E+01  0.40721777520E+02 -0.12995100182E+02  0.43400732638E+02  0.00000000000E+00 0. -1.
         11    1    3    3    0    0 -0.16370021224E+01 -0.63434299547E+01  0.77449034805E+01  0.10144082498E+02  0.51100000000E-03 0. -1.
        -11    1    3    3    0    0  0.44458609366E+01 -0.14454581260E+02  0.77946497345E+01  0.17013440675E+02  0.51100000000E-03 0.  1.
        -12    1    3    3    0    0  0.47069778275E+01 -0.19923766305E+02 -0.25444530336E+01  0.20629744189E+02  0.00000000000E+00 0.  1.
</event>
<event>
 7    1  0.2647566E-010  0.4778727E+02  0.7816164E-02  0.1312668E+00
        -11   -1    0    0    0    0  0.00000000000E+00  0.00000000000E+00  0.45593999997E+02  0.45594000000E+02  0.51100000000E-03 0. -1.
         11   -1    0    0    0    0 -0.00000000000E+00 -0.00000000000E+00 -0.45593999997E+02  0.45594000000E+02  0.51100000000E-03 0.  1.
    9900012    2    1    2    0    0 -0.26539213099E+02 -0.34338800857E+02 -0.37476438022E+00  0.47787268156E+02  0.19999986832E+02 0.  0.
         12    1    1    2    0    0  0.26539213099E+02  0.34338800857E+02  0.37476438022E+00  0.43400731844E+02  0.00000000000E+00 0. -1.
         11    1    3    3    0    0 -0.21078135084E+01 -0.69160393595E+01  0.24765842776E+01  0.76425092838E+01  0.51100000000E-03 0. -1.
        -11    1    3    3    0    0 -0.18514537161E+01 -0.70738608026E+00 -0.47160403972E+01  0.51155950991E+01  0.51100000000E-03 0.  1.
         12    1    3    3    0    0 -0.22579945874E+02 -0.26715375417E+02  0.18646917393E+01  0.35029163773E+02  0.00000000000E+00 0. -1.
</event>
<event>
 7    1  0.2647566E-010  0.4778727E+02  0.7816164E-02  0.1312668E+00
        -11   -1    0    0    0    0  0.00000000000E+00  0.00000000000E+00  0.45593999997E+02  0.45594000000E+02  0.51100000000E-03 0. -1.
         11   -1    0    0    0    0 -0.00000000000E+00 -0.00000000000E+00 -0.45593999997E+02  0.45594000000E+02  0.51100000000E-03 0.  1.
    9900012    2    1    2    0    0 -0.23738875449E+02  0.36323256912E+02 -0.84270737300E+00  0.47787270098E+02  0.19999995687E+02 0.  0.
         12    1    1    2    0    0  0.23738875449E+02 -0.36323256912E+02  0.84270737300E+00  0.43400729902E+02  0.00000000000E+00 0. -1.
         11    1    3    3    0    0 -0.12647060994E+01  0.41622545419E+01 -0.52350320780E+01  0.68065707598E+01  0.51100000000E-03 0. -1.
        -11    1    3    3    0    0 -0.35518501758E+01  0.90701325362E+01 -0.30614689542E+01  0.10210560039E+02  0.51100000000E-03 0.  1.
        -12    1    3    3    0    0 -0.18922319174E+02  0.23090869834E+02  0.74537936591E+01  0.30770139299E+02  0.00000000000E+00 0.  1.
</event>
<event>
 7    1  0.2647566E-010  0.4778727E+02  0.7816164E-02  0.1312668E+00
        -11   -1    0    0    0    0  0.00000000000E+00  0.00000000000E+00  0.45593999997E+02  0.45594000000E+02  0.51100000000E-03 0.  1.
         11   -1    0    0    0    0 -0.00000000000E+00 -0.00000000000E+00 -0.45593999997E+02  0.45594000000E+02  0.51100000000E-03 0. -1.
    9900012    2    1    2    0    0 -0.61423309427E+01 -0.42405454125E+02  0.69045313911E+01  0.47787270482E+02  0.19999997435E+02 0.  0.
         12    1    1    2    0    0  0.61423309427E+01  0.42405454125E+02 -0.69045313911E+01  0.43400729518E+02  0.00000000000E+00 0. -1.
         11    1    3    3    0    0  0.55385066375E+00 -0.13185766293E+02 -0.36948371061E+01  0.13704853330E+02  0.51100000000E-03 0. -1.
        -11    1    3    3    0    0  0.23797933638E+01 -0.16885688072E+02  0.48975063746E+01  0.17741912160E+02  0.51100000000E-03 0.  1.
         12    1    3    3    0    0 -0.90759749703E+01 -0.12333999760E+02  0.57018621225E+01  0.16340504992E+02  0.00000000000E+00 0. -1.
</event>
<event>
 7    1  0.2647566E-010  0.4778729E+02  0.7816164E-02  0.1312668E+00
        -11   -1    0    0    0    0  0.00000000000E+00  0.00000000000E+00  0.45593999997E+02  0.45594000000E+02  0.51100000000E-03 0.  1.
         11   -1    0    0    0    0 -0.00000000000E+00 -0.00000000000E+00 -0.45593999997E+02  0.45594000000E+02  0.51100000000E-03 0. -1.
    9900012    2    1    2    0    0 -0.40683074834E+02 -0.97091931928E+01  0.11586226986E+02  0.47787289566E+02  0.20000084449E+02 0.  0.
         12    1    1    2    0    0  0.40683074834E+02  0.97091931928E+01 -0.11586226986E+02  0.43400710434E+02  0.00000000000E+00 0. -1.
         11    1    3    3    0    0 -0.16691405603E+02 -0.57680085577E+00  0.62828767001E+00  0.16713182398E+02  0.51100000000E-03 0. -1.
        -11    1    3    3    0    0 -0.19522571014E+02 -0.51898560474E+01  0.19789352741E+01  0.20297329131E+02  0.51100000000E-03 0.  1.
        -12    1    3    3    0    0 -0.44690982171E+01 -0.39425362897E+01  0.89790040421E+01  0.10776778037E+02  0.00000000000E+00 0.  1.
</event>
<event>
 7    1  0.2647566E-010  0.4778727E+02  0.7816164E-02  0.1312668E+00
        -11   -1    0    0    0    0  0.00000000000E+00  0.00000000000E+00  0.45593999997E+02  0.45594000000E+02  0.51100000000E-03 0.  1.
         11   -1    0    0    0    0 -0.00000000000E+00 -0.00000000000E+00 -0.45593999997E+02  0.45594000000E+02  0.51100000000E-03 0. -1.
    9900012    2    1    2    0    0  0.71308306096E+01  0.35952116982E+02 -0.23242632077E+02  0.47787269515E+02  0.19999993029E+02 0.  0.
         12    1    1    2    0    0 -0.71308306096E+01 -0.35952116982E+02  0.23242632077E+02  0.43400730485E+02  0.00000000000E+00 0. -1.
         11    1    3    3    0    0  0.16573761521E+01  0.94000217046E+01 -0.70629810309E+01  0.11874047543E+02  0.51100000000E-03 0.  1.
        -11    1    3    3    0    0 -0.88090638444E+00  0.83375163516E+01 -0.14240044958E+02  0.16524801228E+02  0.51100000000E-03 0. -1.
         12    1    3    3    0    0  0.63543608419E+01  0.18214578926E+02 -0.19396060890E+01  0.19388420744E+02  0.00000000000E+00 0. -1.
</event>
<event>
 7    1  0.2647566E-010  0.4778727E+02  0.7816164E-02  0.1312668E+00
        -11   -1    0    0    0    0  0.00000000000E+00  0.00000000000E+00  0.45593999997E+02  0.45594000000E+02  0.51100000000E-03 0. -1.
         11   -1    0    0    0    0 -0.00000000000E+00 -0.00000000000E+00 -0.45593999997E+02  0.45594000000E+02  0.51100000000E-03 0.  1.
    9900012    2    1    2    0    0 -0.15640123933E+02 -0.20452078109E+02 -0.34938835693E+02  0.47787271720E+02  0.20000003081E+02 0.  0.
         12    1    1    2    0    0  0.15640123933E+02  0.20452078109E+02  0.34938835693E+02  0.43400728280E+02  0.00000000000E+00 0. -1.
         11    1    3    3    0    0 -0.57168997886E+01 -0.75029141217E+01 -0.20149631821E+01  0.96455554737E+01  0.51100000000E-03 0. -1.
        -11    1    3    3    0    0 -0.78705734470E+01 -0.30391330983E+01 -0.10002655394E+02  0.13085693393E+02  0.51100000000E-03 0.  1.
         12    1    3    3    0    0 -0.20526506976E+01 -0.99100308887E+01 -0.22921217118E+02  0.25056022854E+02  0.00000000000E+00 0. -1.
</event>
<event>
 7    1  0.2647566E-010  0.4778727E+02  0.7816164E-02  0.1312668E+00
        -11   -1    0    0    0    0  0.00000000000E+00  0.00000000000E+00  0.45593999997E+02  0.45594000000E+02  0.51100000000E-03 0.  1.
         11   -1    0    0    0    0 -0.00000000000E+00 -0.00000000000E+00 -0.45593999997E+02  0.45594000000E+02  0.51100000000E-03 0. -1.
    9900012    2    1    2    0    0 -0.93214500279E+01 -0.41254014168E+02 -0.97385890921E+01  0.47787271514E+02  0.20000002140E+02 0.  0.
         12    1    1    2    0    0  0.93214500279E+01  0.41254014168E+02  0.97385890921E+01  0.43400728486E+02  0.00000000000E+00 0. -1.
         11    1    3    3    0    0  0.63343297970E+00 -0.38664812892E+01  0.90594538036E+00  0.40213992830E+01  0.51100000000E-03 0. -1.
        -11    1    3    3    0    0 -0.34906516869E+01 -0.42795855752E+00 -0.45544855957E+01  0.57542277526E+01  0.51100000000E-03 0.  1.
        -12    1    3    3    0    0 -0.64642313207E+01 -0.36959574322E+02 -0.60900488768E+01  0.38011644478E+02  0.00000000000E+00 0.  1.
</event>
<event>
 7    1  0.2647566E-010  0.4778727E+02  0.7816164E-02  0.1312668E+00
        -11   -1    0    0    0    0  0.00000000000E+00  0.00000000000E+00  0.45593999997E+02  0.45594000000E+02  0.51100000000E-03 0. -1.
         11   -1    0    0    0    0 -0.00000000000E+00 -0.00000000000E+00 -0.45593999997E+02  0.45594000000E+02  0.51100000000E-03 0.  1.
    9900012    2    1    2    0    0 -0.18936304911E+02 -0.14002577444E+02 -0.36455005635E+02  0.47787271267E+02  0.20000001012E+02 0.  0.
         12    1    1    2    0    0  0.18936304911E+02  0.14002577444E+02  0.36455005635E+02  0.43400728733E+02  0.00000000000E+00 0. -1.
         11    1    3    3    0    0 -0.43360572539E+00  0.36758258224E+00 -0.50239145774E+01  0.50559716002E+01  0.51100000000E-03 0. -1.
        -11    1    3    3    0    0 -0.14911223858E+02 -0.15888693068E+02 -0.32077915343E+02  0.38778703142E+02  0.51100000000E-03 0.  1.
         12    1    3    3    0    0 -0.35914753275E+01  0.15185330413E+01  0.64682428598E+00  0.39525965241E+01  0.00000000000E+00 0. -1.
</event>
<event>
 7    1  0.2647566E-010  0.4778728E+02  0.7816164E-02  0.1312668E+00
        -11   -1    0    0    0    0  0.00000000000E+00  0.00000000000E+00  0.45593999997E+02  0.45594000000E+02  0.51100000000E-03 0.  1.
         11   -1    0    0    0    0 -0.00000000000E+00 -0.00000000000E+00 -0.45593999997E+02  0.45594000000E+02  0.51100000000E-03 0. -1.
    9900012    2    1    2    0    0  0.13071688789E+02  0.13431661971E+02  0.39145161344E+02  0.47787282866E+02  0.20000053897E+02 0.  0.
         12    1    1    2    0    0 -0.13071688789E+02 -0.13431661971E+02 -0.39145161344E+02  0.43400717134E+02  0.00000000000E+00 0. -1.
         11    1    3    3    0    0 -0.22072660638E+01  0.38075537218E+01  0.15690262847E+02  0.16295822695E+02  0.51100000000E-03 0. -1.
        -11    1    3    3    0    0  0.59591230822E+01  0.96748443480E+01  0.15620116465E+02  0.19315843231E+02  0.51100000000E-03 0.  1.
         12    1    3    3    0    0  0.93198317708E+01 -0.50736098491E-01  0.78347820317E+01  0.12175616940E+02  0.00000000000E+00 0. -1.
</event>
<event>
 7    1  0.2647566E-010  0.4778727E+02  0.7816164E-02  0.1312668E+00
        -11   -1    0    0    0    0  0.00000000000E+00  0.00000000000E+00  0.45593999997E+02  0.45594000000E+02  0.51100000000E-03 0.  1.
         11   -1    0    0    0    0 -0.00000000000E+00 -0.00000000000E+00 -0.45593999997E+02  0.45594000000E+02  0.51100000000E-03 0. -1.
    9900012    2    1    2    0    0  0.96555078938E+01 -0.40721747865E+02  0.11494952165E+02  0.47787268357E+02  0.19999987746E+02 0.  0.
         12    1    1    2    0    0 -0.96555078938E+01  0.40721747865E+02 -0.11494952165E+02  0.43400731643E+02  0.00000000000E+00 0. -1.
         11    1    3    3    0    0  0.34194158361E+01 -0.50238386157E+01 -0.29316412265E+01  0.67472868354E+01  0.51100000000E-03 0. -1.
        -11    1    3    3    0    0 -0.14385911159E+01 -0.19008942987E+02  0.27165850791E+01  0.19255889817E+02  0.51100000000E-03 0.  1.
        -12    1    3    3    0    0  0.76746831736E+01 -0.16688966263E+02  0.11710008312E+02  0.21784091705E+02  0.00000000000E+00 0.  1.
</event>
<event>
 7    1  0.2647566E-010  0.4778727E+02  0.7816164E-02  0.1312668E+00
        -11   -1    0    0    0    0  0.00000000000E+00  0.00000000000E+00  0.45593999997E+02  0.45594000000E+02  0.51100000000E-03 0.  1.
         11   -1    0    0    0    0 -0.00000000000E+00 -0.00000000000E+00 -0.45593999997E+02  0.45594000000E+02  0.51100000000E-03 0. -1.
    9900012    2    1    2    0    0  0.52811019456E+01 -0.10574842489E+02  0.41760100866E+02  0.47787270101E+02  0.19999995701E+02 0.  0.
         12    1    1    2    0    0 -0.52811019456E+01  0.10574842489E+02 -0.41760100866E+02  0.43400729899E+02  0.00000000000E+00 0. -1.
         11    1    3    3    0    0  0.70677962731E+01 -0.13138999806E+01  0.23861964897E+02  0.24921345195E+02  0.51100000000E-03 0. -1.
        -11    1    3    3    0    0  0.28858360089E+01 -0.81713796004E+01  0.14813070474E+02  0.17161775874E+02  0.51100000000E-03 0.  1.
         12    1    3    3    0    0 -0.46725303364E+01 -0.10895629079E+01  0.30850654951E+01  0.57041490324E+01  0.00000000000E+00 0. -1.
</event>
<event>
 7    1  0.2647566E-010  0.4778727E+02  0.7816164E-02  0.1312668E+00
        -11   -1    0    0    0    0  0.00000000000E+00  0.00000000000E+00  0.45593999997E+02  0.45594000000E+02  0.51100000000E-03 0. -1.
         11   -1    0    0    0    0 -0.00000000000E+00 -0.00000000000E+00 -0.45593999997E+02  0.45594000000E+02  0.51100000000E-03 0.  1.
    9900012    2    1    2    0    0  0.26301878197E+02  0.32566543027E+02 -0.11456655505E+02  0.47787268707E+02  0.19999989343E+02 0.  0.
         12    1    1    2    0    0 -0.26301878197E+02 -0.32566543027E+02  0.11456655505E+02  0.43400731293E+02  0.00000000000E+00 0. -1.
         11    1    3    3    0    0  0.70237274573E+01  0.11430925117E+01 -0.86257191881E-01  0.71166599223E+01  0.51100000000E-03 0. -1.
        -11    1    3    3    0    0 -0.17084455566E+00 -0.10838258581E+01 -0.74909982758E+00  0.13285394859E+01  0.51100000000E-03 0.  1.
        -12    1    3    3    0    0  0.19448995295E+02  0.32507276373E+02 -0.10621298486E+02  0.39342069299E+02  0.00000000000E+00 0.  1.
</event>
<event>
 7    1  0.2647566E-010  0.4778728E+02  0.7816164E-02  0.1312668E+00
        -11   -1    0    0    0    0  0.00000000000E+00  0.00000000000E+00  0.45593999997E+02  0.45594000000E+02  0.51100000000E-03 0. -1.
         11   -1    0    0    0    0 -0.00000000000E+00 -0.00000000000E+00 -0.45593999997E+02  0.45594000000E+02  0.51100000000E-03 0.  1.
    9900012    2    1    2    0    0 -0.17318688680E+02 -0.31129270048E+02 -0.24792224221E+02  0.47787276352E+02  0.20000024200E+02 0.  0.
         12    1    1    2    0    0  0.17318688680E+02  0.31129270048E+02  0.24792224221E+02  0.43400723648E+02  0.00000000000E+00 0. -1.
         11    1    3    3    0    0 -0.49344010980E+01 -0.11994161825E+01 -0.21769077806E+01  0.55250195584E+01  0.51100000000E-03 0. -1.
        -11    1    3    3    0    0 -0.12290048808E+02 -0.13630552997E+02 -0.68615268412E+01  0.19593821107E+02  0.51100000000E-03 0.  1.
        -12    1    3    3    0    0 -0.94238773642E-01 -0.16299300869E+02 -0.15753789599E+02  0.22668435687E+02  0.00000000000E+00 0.  1.
</event>
<event>
 7    1  0.2647566E-010  0.4778727E+02  0.7816164E-02  0.1312668E+00
        -11   -1    0    0    0    0  0.00000000000E+00  0.00000000000E+00  0.45593999997E+02  0.45594000000E+02  0.51100000000E-03 0.  1.
         11   -1    0    0    0    0 -0.00000000000E+00 -0.00000000000E+00 -0.45593999997E+02  0.45594000000E+02  0.51100000000E-03 0. -1.
    9900012    2    1    2    0    0  0.27170746450E+02 -0.24377231657E+02  0.23476042934E+02  0.47787268696E+02  0.19999989292E+02 0.  0.
         12    1    1    2    0    0 -0.27170746450E+02  0.24377231657E+02 -0.23476042934E+02  0.43400731304E+02  0.00000000000E+00 0. -1.
         11    1    3    3    0    0  0.39747946334E+01 -0.41952920576E+01  0.12257595784E+02  0.13551683382E+02  0.51100000000E-03 0. -1.
        -11    1    3    3    0    0  0.14529896062E+02 -0.10604780696E+02  0.11439651737E+02  0.21317712947E+02  0.51100000000E-03 0.  1.
        -12    1    3    3    0    0  0.86660557548E+01 -0.95771589027E+01 -0.22120458714E+00  0.12917872366E+02  0.00000000000E+00 0.  1.
</event>
<event>
 7    1  0.2647566E-010  0.4778727E+02  0.7816164E-02  0.1312668E+00
        -11   -1    0    0    0    0  0.00000000000E+00  0.00000000000E+00  0.45593999997E+02  0.45594000000E+02  0.51100000000E-03 0.  1.
         11   -1    0    0    0    0 -0.00000000000E+00 -0.00000000000E+00 -0.45593999997E+02  0.45594000000E+02  0.51100000000E-03 0. -1.
    9900012    2    1    2    0    0 -0.81112772788E+01 -0.34157871245E+02  0.25516082927E+02  0.47787268727E+02  0.19999989435E+02 0.  0.
         12    1    1    2    0    0  0.81112772788E+01  0.34157871245E+02 -0.25516082927E+02  0.43400731273E+02  0.00000000000E+00 0. -1.
         11    1    3    3    0    0 -0.23415328261E+01 -0.44231504774E+01  0.26669466568E+00  0.50118023133E+01  0.51100000000E-03 0. -1.
        -11    1    3    3    0    0 -0.99237912735E+01 -0.28019081079E+02  0.23717334747E+02  0.38027128546E+02  0.51100000000E-03 0.  1.
        -12    1    3    3    0    0  0.41540468209E+01 -0.17156396889E+01  0.15320535144E+01  0.47483378674E+01  0.00000000000E+00 0.  1.
</event>
<event>
 7    1  0.2647566E-010  0.4778726E+02  0.7816164E-02  0.1312668E+00
        -11   -1    0    0    0    0  0.00000000000E+00  0.00000000000E+00  0.45593999997E+02  0.45594000000E+02  0.51100000000E-03 0.  1.
         11   -1    0    0    0    0 -0.00000000000E+00 -0.00000000000E+00 -0.45593999997E+02  0.45594000000E+02  0.51100000000E-03 0. -1.
    9900012    2    1    2    0    0  0.22687705700E+02 -0.28094442514E+02  0.24074761525E+02  0.47787264608E+02  0.19999970654E+02 0.  0.
         12    1    1    2    0    0 -0.22687705700E+02  0.28094442514E+02 -0.24074761525E+02  0.43400735392E+02  0.00000000000E+00 0. -1.
         11    1    3    3    0    0 -0.47478786735E+00 -0.11701635434E+02  0.10271557491E+02  0.15577502653E+02  0.51100000000E-03 0. -1.
        -11    1    3    3    0    0  0.83306089914E+01 -0.98170811428E+01  0.63253822941E+01  0.14345193960E+02  0.51100000000E-03 0.  1.
         12    1    3    3    0    0  0.14831884576E+02 -0.65757259368E+01  0.74778217401E+01  0.17864567995E+02  0.00000000000E+00 0. -1.
</event>
<event>
 7    1  0.2647566E-010  0.4778727E+02  0.7816164E-02  0.1312668E+00
        -11   -1    0    0    0    0  0.00000000000E+00  0.00000000000E+00  0.45593999997E+02  0.45594000000E+02  0.51100000000E-03 0.  1.
         11   -1    0    0    0    0 -0.00000000000E+00 -0.00000000000E+00 -0.45593999997E+02  0.45594000000E+02  0.51100000000E-03 0. -1.
    9900012    2    1    2    0    0 -0.28017789031E+01 -0.23245669257E+02  0.36543296796E+02  0.47787266770E+02  0.19999980510E+02 0.  0.
         12    1    1    2    0    0  0.28017789031E+01  0.23245669257E+02 -0.36543296796E+02  0.43400733230E+02  0.00000000000E+00 0. -1.
         11    1    3    3    0    0  0.18362867994E+01 -0.18407503276E+02  0.35513494657E+02  0.40042682591E+02  0.51100000000E-03 0. -1.
        -11    1    3    3    0    0 -0.11694566214E+01 -0.29008731323E+01  0.19241679170E+01  0.36722086205E+01  0.51100000000E-03 0.  1.
         12    1    3    3    0    0 -0.34686090811E+01 -0.19372928484E+01 -0.89436577851E+00  0.40723755578E+01  0.00000000000E+00 0. -1.
</event>
<event>
 7    1  0.2647566E-010  0.4778726E+02  0.7816164E-02  0.1312668E+00
        -11   -1    0    0    0    0  0.00000000000E+00  0.00000000000E+00  0.45593999997E+02  0.45594000000E+02  0.51100000000E-03 0.  1.
         11   -1    0    0    0    0 -0.00000000000E+00 -0.00000000000E+00 -0.45593999997E+02  0.45594000000E+02  0.51100000000E-03 0. -1.
    9900012    2    1    2    0    0 -0.65251572567E+01  0.20391530627E+02  0.37752241862E+02  0.47787263092E+02  0.19999963744E+02 0.  0.
         12    1    1    2    0    0  0.65251572567E+01 -0.20391530627E+02 -0.37752241862E+02  0.43400736908E+02  0.00000000000E+00 0. -1.
         11    1    3    3    0    0  0.13423428955E+01 -0.23407738851E+01 -0.33001205825E+00  0.27184582119E+01  0.51100000000E-03 0. -1.
        -11    1    3    3    0    0 -0.22091730412E+01  0.45086582801E+01  0.79409915197E+01  0.93950940170E+01  0.51100000000E-03 0.  1.
         12    1    3    3    0    0 -0.56583271111E+01  0.18223646232E+02  0.30141262400E+02  0.35673710863E+02  0.00000000000E+00 0. -1.
</event>
<event>
 7    1  0.2647566E-010  0.4778727E+02  0.7816164E-02  0.1312668E+00
        -11   -1    0    0    0    0  0.00000000000E+00  0.00000000000E+00  0.45593999997E+02  0.45594000000E+02  0.51100000000E-03 0. -1.
         11   -1    0    0    0    0 -0.00000000000E+00 -0.00000000000E+00 -0.45593999997E+02  0.45594000000E+02  0.51100000000E-03 0.  1.
    9900012    2    1    2    0    0 -0.56328380242E+01 -0.27592262360E+02 -0.33023648106E+02  0.47787272580E+02  0.20000007002E+02 0.  0.
         12    1    1    2    0    0  0.56328380242E+01  0.27592262360E+02  0.33023648106E+02  0.43400727420E+02  0.00000000000E+00 0. -1.
         11    1    3    3    0    0 -0.21817919382E+01 -0.76838661890E+01 -0.19743715280E+02  0.21298270094E+02  0.51100000000E-03 0. -1.
        -11    1    3    3    0    0  0.11965396377E+00 -0.54426851596E+01 -0.97652110087E+01  0.11180182696E+02  0.51100000000E-03 0.  1.
        -12    1    3    3    0    0 -0.35707000498E+01 -0.14465711012E+02 -0.35147218173E+01  0.15308819790E+02  0.00000000000E+00 0.  1.
</event>
<event>
 7    1  0.2647566E-010  0.4778725E+02  0.7816164E-02  0.1312668E+00
        -11   -1    0    0    0    0  0.00000000000E+00  0.00000000000E+00  0.45593999997E+02  0.45594000000E+02  0.51100000000E-03 0.  1.
         11   -1    0    0    0    0 -0.00000000000E+00 -0.00000000000E+00 -0.45593999997E+02  0.45594000000E+02  0.51100000000E-03 0. -1.
    9900012    2    1    2    0    0  0.19006764163E+02  0.11684830179E+02  0.37226770149E+02  0.47787253969E+02  0.19999922148E+02 0.  0.
         12    1    1    2    0    0 -0.19006764163E+02 -0.11684830179E+02 -0.37226770149E+02  0.43400746031E+02  0.00000000000E+00 0. -1.
         11    1    3    3    0    0  0.11200242861E+02 -0.74787840789E+00  0.15238190425E+02  0.18926362829E+02  0.51100000000E-03 0. -1.
        -11    1    3    3    0    0  0.10578171825E+02  0.74474556321E+01  0.14235932335E+02  0.19236010092E+02  0.51100000000E-03 0.  1.
         12    1    3    3    0    0 -0.27716505230E+01  0.49852529553E+01  0.77526473894E+01  0.96248810483E+01  0.00000000000E+00 0. -1.
</event>
<event>
 7    1  0.2647566E-010  0.4778727E+02  0.7816164E-02  0.1312668E+00
        -11   -1    0    0    0    0  0.00000000000E+00  0.00000000000E+00  0.45593999997E+02  0.45594000000E+02  0.51100000000E-03 0.  1.
         11   -1    0    0    0    0 -0.00000000000E+00 -0.00000000000E+00 -0.45593999997E+02  0.45594000000E+02  0.51100000000E-03 0. -1.
    9900012    2    1    2    0    0  0.16412482582E+02 -0.14686255524E+02  0.37397427316E+02  0.47787271254E+02  0.20000000954E+02 0.  0.
         12    1    1    2    0    0 -0.16412482582E+02  0.14686255524E+02 -0.37397427316E+02  0.43400728746E+02  0.00000000000E+00 0. -1.
         11    1    3    3    0    0  0.14897171900E+02 -0.95874192938E+01  0.24695270458E+02  0.30392445156E+02  0.51100000000E-03 0. -1.
        -11    1    3    3    0    0  0.41213141302E+01 -0.39032484014E+01  0.13304739564E+02  0.14465015499E+02  0.51100000000E-03 0.  1.
         12    1    3    3    0    0 -0.26060034481E+01 -0.11955878288E+01 -0.60258270567E+00  0.29298105988E+01  0.00000000000E+00 0. -1.
</event>
<event>
 7    1  0.2647566E-010  0.4778726E+02  0.7816164E-02  0.1312668E+00
        -11   -1    0    0    0    0  0.00000000000E+00  0.00000000000E+00  0.45593999997E+02  0.45594000000E+02  0.51100000000E-03 0.  1.
         11   -1    0    0    0    0 -0.00000000000E+00 -0.00000000000E+00 -0.45593999997E+02  0.45594000000E+02  0.51100000000E-03 0. -1.
    9900012    2    1    2    0    0 -0.16941525347E+02  0.18926973644E+02  0.35190605238E+02  0.47787259114E+02  0.19999945607E+02 0.  0.
         12    1    1    2    0    0  0.16941525347E+02 -0.18926973644E+02 -0.35190605238E+02  0.43400740886E+02  0.00000000000E+00 0. -1.
         11    1    3    3    0    0 -0.42168546902E+01  0.40775479481E+01  0.69994877225E+00  0.59074689413E+01  0.51100000000E-03 0. -1.
        -11    1    3    3    0    0 -0.62202463528E+01  0.13261310974E+01  0.30755825541E+01  0.70646512076E+01  0.51100000000E-03 0.  1.
        -12    1    3    3    0    0 -0.65044243039E+01  0.13523294599E+02  0.31415073912E+02  0.34815138966E+02  0.00000000000E+00 0.  1.
</event>
<event>
 7    1  0.2647566E-010  0.4778727E+02  0.7816164E-02  0.1312668E+00
        -11   -1    0    0    0    0  0.00000000000E+00  0.00000000000E+00  0.45593999997E+02  0.45594000000E+02  0.51100000000E-03 0.  1.
         11   -1    0    0    0    0 -0.00000000000E+00 -0.00000000000E+00 -0.45593999997E+02  0.45594000000E+02  0.51100000000E-03 0. -1.
    9900012    2    1    2    0    0 -0.66467156990E+01 -0.85752457704E+01  0.42022727283E+02  0.47787270998E+02  0.19999999787E+02 0.  0.
         12    1    1    2    0    0  0.66467156990E+01  0.85752457704E+01 -0.42022727283E+02  0.43400729002E+02  0.00000000000E+00 0. -1.
         11    1    3    3    0    0  0.20182531848E+01 -0.12657658609E+01  0.17400973637E+02  0.17563296755E+02  0.51100000000E-03 0. -1.
        -11    1    3    3    0    0 -0.25776525366E+01  0.33698818042E+01  0.25222822837E+01  0.49358184887E+01  0.51100000000E-03 0.  1.
        -12    1    3    3    0    0 -0.60873163472E+01 -0.10679361714E+02  0.22099471363E+02  0.25288155754E+02  0.00000000000E+00 0.  1.
</event>
<event>
 7    1  0.2647566E-010  0.4778727E+02  0.7816164E-02  0.1312668E+00
        -11   -1    0    0    0    0  0.00000000000E+00  0.00000000000E+00  0.45593999997E+02  0.45594000000E+02  0.51100000000E-03 0. -1.
         11   -1    0    0    0    0 -0.00000000000E+00 -0.00000000000E+00 -0.45593999997E+02  0.45594000000E+02  0.51100000000E-03 0.  1.
    9900012    2    1    2    0    0  0.30516666046E+02  0.28837398773E+02 -0.10989120467E+02  0.47787271398E+02  0.20000001612E+02 0.  0.
         12    1    1    2    0    0 -0.30516666046E+02 -0.28837398773E+02  0.10989120467E+02  0.43400728602E+02  0.00000000000E+00 0. -1.
         11    1    3    3    0    0 -0.11414677383E+01  0.20180013227E+01 -0.13475600842E-01  0.23185037824E+01  0.51100000000E-03 0. -1.
        -11    1    3    3    0    0  0.43677500769E+01  0.49214467487E+01  0.36735929303E+01  0.75361239449E+01  0.51100000000E-03 0.  1.
        -12    1    3    3    0    0  0.27290383708E+02  0.21897950701E+02 -0.14649237796E+02  0.37932643671E+02  0.00000000000E+00 0.  1.
</event>
<event>
 7    1  0.2647566E-010  0.4778727E+02  0.7816164E-02  0.1312668E+00
        -11   -1    0    0    0    0  0.00000000000E+00  0.00000000000E+00  0.45593999997E+02  0.45594000000E+02  0.51100000000E-03 0.  1.
         11   -1    0    0    0    0 -0.00000000000E+00 -0.00000000000E+00 -0.45593999997E+02  0.45594000000E+02  0.51100000000E-03 0. -1.
    9900012    2    1    2    0    0 -0.88958628638E+01 -0.41352820632E+02  0.97175789500E+01  0.47787268544E+02  0.19999988598E+02 0.  0.
         12    1    1    2    0    0  0.88958628638E+01  0.41352820632E+02 -0.97175789500E+01  0.43400731456E+02  0.00000000000E+00 0. -1.
         11    1    3    3    0    0  0.27541203922E-01  0.13292507579E+01  0.13035282465E+00  0.13359110058E+01  0.51100000000E-03 0. -1.
        -11    1    3    3    0    0  0.18833195227E+01 -0.19702964678E+02  0.66919329808E+01  0.20893436213E+02  0.51100000000E-03 0.  1.
        -12    1    3    3    0    0 -0.10806723590E+02 -0.22979106712E+02  0.28952931446E+01  0.25557921325E+02  0.00000000000E+00 0.  1.
</event>
<event>
 7    1  0.2647566E-010  0.4778728E+02  0.7816164E-02  0.1312668E+00
        -11   -1    0    0    0    0  0.00000000000E+00  0.00000000000E+00  0.45593999997E+02  0.45594000000E+02  0.51100000000E-03 0.  1.
         11   -1    0    0    0    0 -0.00000000000E+00 -0.00000000000E+00 -0.45593999997E+02  0.45594000000E+02  0.51100000000E-03 0. -1.
    9900012    2    1    2    0    0 -0.15363929741E+02 -0.10707015165E+02  0.39152676784E+02  0.47787278690E+02  0.20000034860E+02 0.  0.
         12    1    1    2    0    0  0.15363929741E+02  0.10707015165E+02 -0.39152676784E+02  0.43400721310E+02  0.00000000000E+00 0. -1.
         11    1    3    3    0    0 -0.25765887312E+01 -0.41915603399E+01  0.32866336433E+01  0.59169205284E+01  0.51100000000E-03 0. -1.
        -11    1    3    3    0    0  0.86130258621E+00 -0.31916364371E+01  0.21591049682E+02  0.21842660367E+02  0.51100000000E-03 0.  1.
        -12    1    3    3    0    0 -0.13648643596E+02 -0.33238183884E+01  0.14274993459E+02  0.20027697794E+02  0.00000000000E+00 0.  1.
</event>
<event>
 7    1  0.2647566E-010  0.4778727E+02  0.7816164E-02  0.1312668E+00
        -11   -1    0    0    0    0  0.00000000000E+00  0.00000000000E+00  0.45593999997E+02  0.45594000000E+02  0.51100000000E-03 0.  1.
         11   -1    0    0    0    0 -0.00000000000E+00 -0.00000000000E+00 -0.45593999997E+02  0.45594000000E+02  0.51100000000E-03 0. -1.
    9900012    2    1    2    0    0 -0.40083835096E+01  0.88084675584E+01  0.42308000715E+02  0.47787272315E+02  0.20000005792E+02 0.  0.
         12    1    1    2    0    0  0.40083835096E+01 -0.88084675584E+01 -0.42308000715E+02  0.43400727685E+02  0.00000000000E+00 0. -1.
         11    1    3    3    0    0 -0.27582787721E+01  0.14381556715E+01  0.43223916753E+00  0.31405770934E+01  0.51100000000E-03 0. -1.
        -11    1    3    3    0    0 -0.71922836205E+01  0.26275228848E+01  0.17229211121E+02  0.18854138439E+02  0.51100000000E-03 0.  1.
        -12    1    3    3    0    0  0.59421788830E+01  0.47427890022E+01  0.24646550427E+02  0.25792556782E+02  0.00000000000E+00 0.  1.
</event>
<event>
 7    1  0.2647566E-010  0.4778727E+02  0.7816164E-02  0.1312668E+00
        -11   -1    0    0    0    0  0.00000000000E+00  0.00000000000E+00  0.45593999997E+02  0.45594000000E+02  0.51100000000E-03 0. -1.
         11   -1    0    0    0    0 -0.00000000000E+00 -0.00000000000E+00 -0.45593999997E+02  0.45594000000E+02  0.51100000000E-03 0.  1.
    9900012    2    1    2    0    0 -0.15893371333E+02 -0.19763859886E+02 -0.35219507458E+02  0.47787272869E+02  0.20000008319E+02 0.  0.
         12    1    1    2    0    0  0.15893371333E+02  0.19763859886E+02  0.35219507458E+02  0.43400727131E+02  0.00000000000E+00 0. -1.
         11    1    3    3    0    0  0.35642591609E+01 -0.72251226797E+00 -0.77070292727E+01  0.85219873161E+01  0.51100000000E-03 0. -1.
        -11    1    3    3    0    0 -0.90321654766E+01 -0.63998007956E+01 -0.15029819859E+02  0.18666358742E+02  0.51100000000E-03 0.  1.
         12    1    3    3    0    0 -0.10425465017E+02 -0.12641546822E+02 -0.12482658327E+02  0.20598926811E+02  0.00000000000E+00 0. -1.
</event>
<event>
 7    1  0.2647566E-010  0.4778727E+02  0.7816164E-02  0.1312668E+00
        -11   -1    0    0    0    0  0.00000000000E+00  0.00000000000E+00  0.45593999997E+02  0.45594000000E+02  0.51100000000E-03 0. -1.
         11   -1    0    0    0    0 -0.00000000000E+00 -0.00000000000E+00 -0.45593999997E+02  0.45594000000E+02  0.51100000000E-03 0.  1.
    9900012    2    1    2    0    0  0.40750222959E+02  0.36832649282E+01 -0.14473281681E+02  0.47787274265E+02  0.20000014683E+02 0.  0.
         12    1    1    2    0    0 -0.40750222959E+02 -0.36832649282E+01  0.14473281681E+02  0.43400725735E+02  0.00000000000E+00 0. -1.
         11    1    3    3    0    0  0.23964773451E+02  0.51643432202E+01 -0.29416296133E+01  0.24690767353E+02  0.51100000000E-03 0.  1.
        -11    1    3    3    0    0  0.10027158127E+01  0.33135724806E+01 -0.13727938425E+01  0.37242133103E+01  0.51100000000E-03 0. -1.
        -12    1    3    3    0    0  0.15782733695E+02 -0.47946507727E+01 -0.10158858226E+02  0.19372293601E+02  0.00000000000E+00 0.  1.
</event>
<event>
 7    1  0.2647566E-010  0.4778727E+02  0.7816164E-02  0.1312668E+00
        -11   -1    0    0    0    0  0.00000000000E+00  0.00000000000E+00  0.45593999997E+02  0.45594000000E+02  0.51100000000E-03 0. -1.
         11   -1    0    0    0    0 -0.00000000000E+00 -0.00000000000E+00 -0.45593999997E+02  0.45594000000E+02  0.51100000000E-03 0.  1.
    9900012    2    1    2    0    0 -0.14048394345E+02 -0.13539223272E+02 -0.38767969631E+02  0.47787269364E+02  0.19999992336E+02 0.  0.
         12    1    1    2    0    0  0.14048394345E+02  0.13539223272E+02  0.38767969631E+02  0.43400730636E+02  0.00000000000E+00 0. -1.
         11    1    3    3    0    0 -0.76399369656E+01 -0.42554975568E+00 -0.21102483847E+02  0.22446927501E+02  0.51100000000E-03 0. -1.
        -11    1    3    3    0    0 -0.12528568505E+01 -0.12231510590E+01 -0.10270869072E+02  0.10419045089E+02  0.51100000000E-03 0.  1.
        -12    1    3    3    0    0 -0.51556005288E+01 -0.11890522457E+02 -0.73946167111E+01  0.14921296774E+02  0.00000000000E+00 0.  1.
</event>
<event>
 7    1  0.2647566E-010  0.4778727E+02  0.7816164E-02  0.1312668E+00
        -11   -1    0    0    0    0  0.00000000000E+00  0.00000000000E+00  0.45593999997E+02  0.45594000000E+02  0.51100000000E-03 0. -1.
         11   -1    0    0    0    0 -0.00000000000E+00 -0.00000000000E+00 -0.45593999997E+02  0.45594000000E+02  0.51100000000E-03 0.  1.
    9900012    2    1    2    0    0 -0.14762898967E+02  0.50442408979E+01 -0.40499824245E+02  0.47787270558E+02  0.19999997784E+02 0.  0.
         12    1    1    2    0    0  0.14762898967E+02 -0.50442408979E+01  0.40499824245E+02  0.43400729442E+02  0.00000000000E+00 0. -1.
         11    1    3    3    0    0 -0.32516298816E+01 -0.35935520932E+01 -0.92460618964E+01  0.10439174986E+02  0.51100000000E-03 0. -1.
        -11    1    3    3    0    0 -0.34611719750E+01  0.49672605131E+01 -0.26738036173E+02  0.27414885866E+02  0.51100000000E-03 0.  1.
        -12    1    3    3    0    0 -0.80500971107E+01  0.36705324780E+01 -0.45157261764E+01  0.99332097060E+01  0.00000000000E+00 0.  1.
</event>
<event>
 7    1  0.2647566E-010  0.4778727E+02  0.7816164E-02  0.1312668E+00
        -11   -1    0    0    0    0  0.00000000000E+00  0.00000000000E+00  0.45593999997E+02  0.45594000000E+02  0.51100000000E-03 0.  1.
         11   -1    0    0    0    0 -0.00000000000E+00 -0.00000000000E+00 -0.45593999997E+02  0.45594000000E+02  0.51100000000E-03 0. -1.
    9900012    2    1    2    0    0  0.28066705118E+02  0.30703960665E+02  0.12375397656E+02  0.47787267243E+02  0.19999982666E+02 0.  0.
         12    1    1    2    0    0 -0.28066705118E+02 -0.30703960665E+02 -0.12375397656E+02  0.43400732757E+02  0.00000000000E+00 0. -1.
         11    1    3    3    0    0  0.31352486264E+01  0.68524431854E+01 -0.23291397647E+01  0.78873730648E+01  0.51100000000E-03 0.  1.
        -11    1    3    3    0    0  0.84206649304E+01  0.46971867127E+01 -0.16524052812E+01  0.97827196811E+01  0.51100000000E-03 0. -1.
         12    1    3    3    0    0  0.16510791562E+02  0.19154330767E+02  0.16356942702E+02  0.30117174497E+02  0.00000000000E+00 0. -1.
</event>
<event>
 7    1  0.2647566E-010  0.4778727E+02  0.7816164E-02  0.1312668E+00
        -11   -1    0    0    0    0  0.00000000000E+00  0.00000000000E+00  0.45593999997E+02  0.45594000000E+02  0.51100000000E-03 0. -1.
         11   -1    0    0    0    0 -0.00000000000E+00 -0.00000000000E+00 -0.45593999997E+02  0.45594000000E+02  0.51100000000E-03 0.  1.
    9900012    2    1    2    0    0  0.12568721344E+02  0.38905027042E+02 -0.14561911744E+02  0.47787272368E+02  0.20000006035E+02 0.  0.
         12    1    1    2    0    0 -0.12568721344E+02 -0.38905027042E+02  0.14561911744E+02  0.43400727632E+02  0.00000000000E+00 0. -1.
         11    1    3    3    0    0  0.44083949361E+01  0.11040745648E+02 -0.12309810211E+02  0.17113253287E+02  0.51100000000E-03 0. -1.
        -11    1    3    3    0    0  0.81394519276E+01  0.13711874248E+02 -0.39288680999E+01  0.16422611787E+02  0.51100000000E-03 0.  1.
        -12    1    3    3    0    0  0.20874480754E-01  0.14152407145E+02  0.16767665673E+01  0.14251407294E+02  0.00000000000E+00 0.  1.
</event>
<event>
 7    1  0.2647566E-010  0.4778729E+02  0.7816164E-02  0.1312668E+00
        -11   -1    0    0    0    0  0.00000000000E+00  0.00000000000E+00  0.45593999997E+02  0.45594000000E+02  0.51100000000E-03 0.  1.
         11   -1    0    0    0    0 -0.00000000000E+00 -0.00000000000E+00 -0.45593999997E+02  0.45594000000E+02  0.51100000000E-03 0. -1.
    9900012    2    1    2    0    0 -0.10760858027E+02  0.25874534629E+02  0.33141126624E+02  0.47787287083E+02  0.20000073128E+02 0.  0.
         12    1    1    2    0    0  0.10760858027E+02 -0.25874534629E+02 -0.33141126624E+02  0.43400712917E+02  0.00000000000E+00 0. -1.
         11    1    3    3    0    0  0.73399245428E+00 -0.27370804111E+01  0.11205850081E+01  0.30473045666E+01  0.51100000000E-03 0. -1.
        -11    1    3    3    0    0 -0.41487769020E+01  0.75195406878E+01  0.11924075487E+02  0.14694877285E+02  0.51100000000E-03 0.  1.
         12    1    3    3    0    0 -0.73460735792E+01  0.21092074353E+02  0.20096466128E+02  0.30045105232E+02  0.00000000000E+00 0. -1.
</event>
<event>
 7    1 -0.3353333E-010  0.4778727E+02  0.7816164E-02  0.1312668E+00
        -11   -1    0    0    0    0  0.00000000000E+00  0.00000000000E+00  0.45593999997E+02  0.45594000000E+02  0.51100000000E-03 0.  1.
         11   -1    0    0    0    0 -0.00000000000E+00 -0.00000000000E+00 -0.45593999997E+02  0.45594000000E+02  0.51100000000E-03 0. -1.
    9900012    2    1    2    0    0 -0.12919410809E+02 -0.13194140481E+02  0.39276283669E+02  0.47787274458E+02  0.20000015565E+02 0.  0.
         12    1    1    2    0    0  0.12919410809E+02  0.13194140481E+02 -0.39276283669E+02  0.43400725542E+02  0.00000000000E+00 0. -1.
         11    1    3    3    0    0  0.73560508983E+00 -0.45189510598E+01  0.21765257668E+02  0.22241593359E+02  0.51100000000E-03 0. -1.
        -11    1    3    3    0    0 -0.66361127435E+01 -0.80072562483E+00  0.11771153959E+02  0.13536588184E+02  0.51100000000E-03 0.  1.
         12    1    3    3    0    0 -0.70189031549E+01 -0.78744637967E+01  0.57398720416E+01  0.12009092915E+02  0.00000000000E+00 0. -1.
</event>
<event>
 7    1  0.2647566E-010  0.4778727E+02  0.7816164E-02  0.1312668E+00
        -11   -1    0    0    0    0  0.00000000000E+00  0.00000000000E+00  0.45593999997E+02  0.45594000000E+02  0.51100000000E-03 0.  1.
         11   -1    0    0    0    0 -0.00000000000E+00 -0.00000000000E+00 -0.45593999997E+02  0.45594000000E+02  0.51100000000E-03 0. -1.
    9900012    2    1    2    0    0  0.39326101903E+02 -0.17030555845E+02 -0.68586647801E+01  0.47787269524E+02  0.19999993067E+02 0.  0.
         12    1    1    2    0    0 -0.39326101903E+02  0.17030555845E+02  0.68586647801E+01  0.43400730476E+02  0.00000000000E+00 0. -1.
         11    1    3    3    0    0 -0.44664086788E+00  0.12180152734E+01  0.95313938436E+00  0.16098211759E+01  0.51100000000E-03 0. -1.
        -11    1    3    3    0    0  0.19577169184E+02 -0.87073601387E+01  0.25083074909E+01  0.21572558508E+02  0.51100000000E-03 0.  1.
         12    1    3    3    0    0  0.20195573587E+02 -0.95412109797E+01 -0.10320111655E+02  0.24604889841E+02  0.00000000000E+00 0. -1.
</event>
<event>
 7    1  0.2647566E-010  0.4778727E+02  0.7816164E-02  0.1312668E+00
        -11   -1    0    0    0    0  0.00000000000E+00  0.00000000000E+00  0.45593999997E+02  0.45594000000E+02  0.51100000000E-03 0. -1.
         11   -1    0    0    0    0 -0.00000000000E+00 -0.00000000000E+00 -0.45593999997E+02  0.45594000000E+02  0.51100000000E-03 0.  1.
    9900012    2    1    2    0    0  0.24507052296E+02  0.23763610114E+02 -0.26801465829E+02  0.47787270185E+02  0.19999996082E+02 0.  0.
         12    1    1    2    0    0 -0.24507052296E+02 -0.23763610114E+02  0.26801465829E+02  0.43400729815E+02  0.00000000000E+00 0. -1.
         11    1    3    3    0    0  0.11674458007E+02  0.12626641065E+02 -0.72998438223E+01  0.18681883053E+02  0.51100000000E-03 0. -1.
        -11    1    3    3    0    0 -0.80620087047E+00  0.64869961616E+01 -0.29840903231E+01  0.71858106266E+01  0.51100000000E-03 0.  1.
         12    1    3    3    0    0  0.13638795159E+02  0.46499728883E+01 -0.16517531683E+02  0.21919576505E+02  0.00000000000E+00 0. -1.
</event>
<event>
 7    1  0.2647566E-010  0.4778727E+02  0.7816164E-02  0.1312668E+00
        -11   -1    0    0    0    0  0.00000000000E+00  0.00000000000E+00  0.45593999997E+02  0.45594000000E+02  0.51100000000E-03 0.  1.
         11   -1    0    0    0    0 -0.00000000000E+00 -0.00000000000E+00 -0.45593999997E+02  0.45594000000E+02  0.51100000000E-03 0. -1.
    9900012    2    1    2    0    0 -0.30794602091E+02 -0.24580527328E+02  0.18196519948E+02  0.47787272127E+02  0.20000004935E+02 0.  0.
         12    1    1    2    0    0  0.30794602091E+02  0.24580527328E+02 -0.18196519948E+02  0.43400727873E+02  0.00000000000E+00 0. -1.
         11    1    3    3    0    0 -0.48410403933E+00 -0.32685484143E+01  0.26640871095E+01  0.42444229108E+01  0.51100000000E-03 0.  1.
        -11    1    3    3    0    0 -0.14112730566E+02 -0.87690082102E+01  0.15978423564E+02  0.23051565866E+02  0.51100000000E-03 0. -1.
         12    1    3    3    0    0 -0.16197767486E+02 -0.12542970704E+02 -0.44599072520E+00  0.20491283350E+02  0.00000000000E+00 0. -1.
</event>
<event>
 7    1  0.2647566E-010  0.4778727E+02  0.7816164E-02  0.1312668E+00
        -11   -1    0    0    0    0  0.00000000000E+00  0.00000000000E+00  0.45593999997E+02  0.45594000000E+02  0.51100000000E-03 0.  1.
         11   -1    0    0    0    0 -0.00000000000E+00 -0.00000000000E+00 -0.45593999997E+02  0.45594000000E+02  0.51100000000E-03 0. -1.
    9900012    2    1    2    0    0 -0.10685162761E+02  0.15037876865E+02  0.39285019026E+02  0.47787272314E+02  0.20000005786E+02 0.  0.
         12    1    1    2    0    0  0.10685162761E+02 -0.15037876865E+02 -0.39285019026E+02  0.43400727686E+02  0.00000000000E+00 0. -1.
         11    1    3    3    0    0  0.40970869418E+01  0.16948853241E+01  0.28781356699E+01  0.52860592946E+01  0.51100000000E-03 0. -1.
        -11    1    3    3    0    0 -0.46787766540E+01  0.44068750889E+01  0.44590128716E+01  0.78226782547E+01  0.51100000000E-03 0.  1.
        -12    1    3    3    0    0 -0.10103473049E+02  0.89361164525E+01  0.31947870484E+02  0.34678534764E+02  0.00000000000E+00 0.  1.
</event>
<event>
 7    1  0.2647566E-010  0.4778727E+02  0.7816164E-02  0.1312668E+00
        -11   -1    0    0    0    0  0.00000000000E+00  0.00000000000E+00  0.45593999997E+02  0.45594000000E+02  0.51100000000E-03 0.  1.
         11   -1    0    0    0    0 -0.00000000000E+00 -0.00000000000E+00 -0.45593999997E+02  0.45594000000E+02  0.51100000000E-03 0. -1.
    9900012    2    1    2    0    0  0.20177532819E+02 -0.35309328550E+02  0.15157236211E+02  0.47787270480E+02  0.19999997427E+02 0.  0.
         12    1    1    2    0    0 -0.20177532819E+02  0.35309328550E+02 -0.15157236211E+02  0.43400729520E+02  0.00000000000E+00 0. -1.
         11    1    3    3    0    0  0.34425110113E+01 -0.79852974247E+01 -0.15818767494E+00  0.86971765894E+01  0.51100000000E-03 0. -1.
        -11    1    3    3    0    0  0.10750981837E+02 -0.25207720985E+02  0.63931398759E+01  0.28140452119E+02  0.51100000000E-03 0.  1.
        -12    1    3    3    0    0  0.59840399707E+01 -0.21163101402E+01  0.89222840102E+01  0.10949641772E+02  0.00000000000E+00 0.  1.
</event>
<event>
 7    1  0.2647566E-010  0.4778727E+02  0.7816164E-02  0.1312668E+00
        -11   -1    0    0    0    0  0.00000000000E+00  0.00000000000E+00  0.45593999997E+02  0.45594000000E+02  0.51100000000E-03 0.  1.
         11   -1    0    0    0    0 -0.00000000000E+00 -0.00000000000E+00 -0.45593999997E+02  0.45594000000E+02  0.51100000000E-03 0. -1.
    9900012    2    1    2    0    0 -0.28665723116E+02 -0.20516547171E+02  0.25317407015E+02  0.47787268583E+02  0.19999988776E+02 0.  0.
         12    1    1    2    0    0  0.28665723116E+02  0.20516547171E+02 -0.25317407015E+02  0.43400731417E+02  0.00000000000E+00 0. -1.
         11    1    3    3    0    0 -0.43548046322E+00  0.99991311945E+00 -0.17360360701E+01  0.20501929124E+01  0.51100000000E-03 0. -1.
        -11    1    3    3    0    0 -0.10585890418E+02 -0.68726903424E+01  0.40439738783E+01  0.13253251430E+02  0.51100000000E-03 0.  1.
        -12    1    3    3    0    0 -0.17644352235E+02 -0.14643769948E+02  0.23009469207E+02  0.32483824240E+02  0.00000000000E+00 0.  1.
</event>
<event>
 7    1  0.2647566E-010  0.4778727E+02  0.7816164E-02  0.1312668E+00
        -11   -1    0    0    0    0  0.00000000000E+00  0.00000000000E+00  0.45593999997E+02  0.45594000000E+02  0.51100000000E-03 0.  1.
         11   -1    0    0    0    0 -0.00000000000E+00 -0.00000000000E+00 -0.45593999997E+02  0.45594000000E+02  0.51100000000E-03 0. -1.
    9900012    2    1    2    0    0 -0.47912866194E+00 -0.35565920451E+02  0.24868834494E+02  0.47787272000E+02  0.20000004359E+02 0.  0.
         12    1    1    2    0    0  0.47912866194E+00  0.35565920451E+02 -0.24868834494E+02  0.43400728000E+02  0.00000000000E+00 0. -1.
         11    1    3    3    0    0 -0.23643989686E+01 -0.56018496225E+01  0.51749320068E+01  0.79844237871E+01  0.51100000000E-03 0. -1.
        -11    1    3    3    0    0  0.27432574288E+01 -0.24531979043E+02  0.65264074421E+01  0.25533065845E+02  0.51100000000E-03 0.  1.
        -12    1    3    3    0    0 -0.85798712217E+00 -0.54320917854E+01  0.13167495045E+02  0.14269782368E+02  0.00000000000E+00 0.  1.
</event>
<event>
 7    1  0.2647566E-010  0.4778727E+02  0.7816164E-02  0.1312668E+00
        -11   -1    0    0    0    0  0.00000000000E+00  0.00000000000E+00  0.45593999997E+02  0.45594000000E+02  0.51100000000E-03 0. -1.
         11   -1    0    0    0    0 -0.00000000000E+00 -0.00000000000E+00 -0.45593999997E+02  0.45594000000E+02  0.51100000000E-03 0.  1.
    9900012    2    1    2    0    0  0.27351601495E+02 -0.28945938400E+02 -0.17252416272E+02  0.47787270496E+02  0.19999997500E+02 0.  0.
         12    1    1    2    0    0 -0.27351601495E+02  0.28945938400E+02  0.17252416272E+02  0.43400729504E+02  0.00000000000E+00 0. -1.
         11    1    3    3    0    0  0.39053393184E+01  0.11344811917E+01 -0.52958339708E+01  0.66771685971E+01  0.51100000000E-03 0. -1.
        -11    1    3    3    0    0  0.11787161197E+02 -0.89579048992E+01 -0.74219865831E+01  0.16561011876E+02  0.51100000000E-03 0.  1.
        -12    1    3    3    0    0  0.11659100980E+02 -0.21122514693E+02 -0.45345957182E+01  0.24549090023E+02  0.00000000000E+00 0.  1.
</event>
<event>
 7    1  0.2647566E-010  0.4778727E+02  0.7816164E-02  0.1312668E+00
        -11   -1    0    0    0    0  0.00000000000E+00  0.00000000000E+00  0.45593999997E+02  0.45594000000E+02  0.51100000000E-03 0. -1.
         11   -1    0    0    0    0 -0.00000000000E+00 -0.00000000000E+00 -0.45593999997E+02  0.45594000000E+02  0.51100000000E-03 0.  1.
    9900012    2    1    2    0    0  0.40683806246E+01  0.40539755017E+02 -0.14953251842E+02  0.47787271914E+02  0.20000003965E+02 0.  0.
         12    1    1    2    0    0 -0.40683806246E+01 -0.40539755017E+02  0.14953251842E+02  0.43400728086E+02  0.00000000000E+00 0. -1.
         11    1    3    3    0    0  0.81999132139E+00  0.18776674112E+02 -0.16986238653E+02  0.25333143909E+02  0.51100000000E-03 0. -1.
        -11    1    3    3    0    0  0.88659970364E+00  0.98490241450E+00  0.70250857045E+00  0.14998701121E+01  0.51100000000E-03 0.  1.
         12    1    3    3    0    0  0.23617895995E+01  0.20778178490E+02  0.13304782409E+01  0.20954257893E+02  0.00000000000E+00 0. -1.
</event>
<event>
 7    1  0.2647566E-010  0.4778727E+02  0.7816164E-02  0.1312668E+00
        -11   -1    0    0    0    0  0.00000000000E+00  0.00000000000E+00  0.45593999997E+02  0.45594000000E+02  0.51100000000E-03 0.  1.
         11   -1    0    0    0    0 -0.00000000000E+00 -0.00000000000E+00 -0.45593999997E+02  0.45594000000E+02  0.51100000000E-03 0. -1.
    9900012    2    1    2    0    0 -0.14648239059E+02  0.31734886363E+02  0.25728374180E+02  0.47787272380E+02  0.20000006090E+02 0.  0.
         12    1    1    2    0    0  0.14648239059E+02 -0.31734886363E+02 -0.25728374180E+02  0.43400727620E+02  0.00000000000E+00 0. -1.
         11    1    3    3    0    0 -0.19655340880E+01  0.53818603459E+01 -0.16063759646E+00  0.57318016132E+01  0.51100000000E-03 0. -1.
        -11    1    3    3    0    0 -0.52197031000E+01  0.19969146537E+02  0.89963906787E+01  0.22515487101E+02  0.51100000000E-03 0.  1.
        -12    1    3    3    0    0 -0.74630018706E+01  0.63838794802E+01  0.16892621097E+02  0.19539983666E+02  0.00000000000E+00 0.  1.
</event>
<event>
 7    1  0.2647566E-010  0.4778727E+02  0.7816164E-02  0.1312668E+00
        -11   -1    0    0    0    0  0.00000000000E+00  0.00000000000E+00  0.45593999997E+02  0.45594000000E+02  0.51100000000E-03 0.  1.
         11   -1    0    0    0    0 -0.00000000000E+00 -0.00000000000E+00 -0.45593999997E+02  0.45594000000E+02  0.51100000000E-03 0. -1.
    9900012    2    1    2    0    0  0.16022933364E+02  0.32532290289E+02  0.23844056262E+02  0.47787270466E+02  0.19999997364E+02 0.  0.
         12    1    1    2    0    0 -0.16022933364E+02 -0.32532290289E+02 -0.23844056262E+02  0.43400729534E+02  0.00000000000E+00 0. -1.
         11    1    3    3    0    0  0.11313303266E+01 -0.92354582638E+00  0.44291967989E+00  0.15261137917E+01  0.51100000000E-03 0. -1.
        -11    1    3    3    0    0  0.16885130006E+02  0.19440817182E+02  0.15105005185E+02  0.29853210379E+02  0.51100000000E-03 0.  1.
         12    1    3    3    0    0 -0.19935269690E+01  0.14015018933E+02  0.82961313975E+01  0.16407946295E+02  0.00000000000E+00 0. -1.
</event>
<event>
 7    1  0.2647566E-010  0.4778727E+02  0.7816164E-02  0.1312668E+00
        -11   -1    0    0    0    0  0.00000000000E+00  0.00000000000E+00  0.45593999997E+02  0.45594000000E+02  0.51100000000E-03 0.  1.
         11   -1    0    0    0    0 -0.00000000000E+00 -0.00000000000E+00 -0.45593999997E+02  0.45594000000E+02  0.51100000000E-03 0. -1.
    9900012    2    1    2    0    0 -0.15940953448E+02 -0.26232478853E+02  0.30681699309E+02  0.47787267102E+02  0.19999982026E+02 0.  0.
         12    1    1    2    0    0  0.15940953448E+02  0.26232478853E+02 -0.30681699309E+02  0.43400732898E+02  0.00000000000E+00 0. -1.
         11    1    3    3    0    0 -0.16708665822E+02 -0.23634781572E+02  0.19651419116E+02  0.34985149521E+02  0.51100000000E-03 0. -1.
        -11    1    3    3    0    0 -0.64574141866E+00 -0.41696961632E+01  0.86119869470E+01  0.95900817259E+01  0.51100000000E-03 0.  1.
        -12    1    3    3    0    0  0.14134537928E+01  0.15719988823E+01  0.24182932459E+01  0.32120358550E+01  0.00000000000E+00 0.  1.
</event>
<event>
 7    1  0.2647566E-010  0.4778727E+02  0.7816164E-02  0.1312668E+00
        -11   -1    0    0    0    0  0.00000000000E+00  0.00000000000E+00  0.45593999997E+02  0.45594000000E+02  0.51100000000E-03 0.  1.
         11   -1    0    0    0    0 -0.00000000000E+00 -0.00000000000E+00 -0.45593999997E+02  0.45594000000E+02  0.51100000000E-03 0. -1.
    9900012    2    1    2    0    0  0.16755874825E+02 -0.14863715310E+02  0.37174367950E+02  0.47787274126E+02  0.20000014049E+02 0.  0.
         12    1    1    2    0    0 -0.16755874825E+02  0.14863715310E+02 -0.37174367950E+02  0.43400725874E+02  0.00000000000E+00 0. -1.
         11    1    3    3    0    0 -0.12150147939E+01  0.77970826798E+00  0.11902962947E+02  0.11990193206E+02  0.51100000000E-03 0. -1.
        -11    1    3    3    0    0  0.45145030836E+01 -0.16081948461E+00  0.69741713719E+01  0.83093722738E+01  0.51100000000E-03 0.  1.
        -12    1    3    3    0    0  0.13456386535E+02 -0.15482604093E+02  0.18297233631E+02  0.27487708646E+02  0.00000000000E+00 0.  1.
</event>
<event>
 7    1  0.2647566E-010  0.4778725E+02  0.7816164E-02  0.1312668E+00
        -11   -1    0    0    0    0  0.00000000000E+00  0.00000000000E+00  0.45593999997E+02  0.45594000000E+02  0.51100000000E-03 0.  1.
         11   -1    0    0    0    0 -0.00000000000E+00 -0.00000000000E+00 -0.45593999997E+02  0.45594000000E+02  0.51100000000E-03 0. -1.
    9900012    2    1    2    0    0  0.41397671889E+02 -0.12936562767E+02  0.15820882204E+01  0.47787252342E+02  0.19999914730E+02 0.  0.
         12    1    1    2    0    0 -0.41397671889E+02  0.12936562767E+02 -0.15820882204E+01  0.43400747658E+02  0.00000000000E+00 0. -1.
         11    1    3    3    0    0  0.24357906525E+02 -0.98902234179E+01 -0.20607153322E+01  0.26369882015E+02  0.51100000000E-03 0. -1.
        -11    1    3    3    0    0  0.18788412922E+02 -0.27961671681E+01  0.43954533410E+01  0.19497256763E+02  0.51100000000E-03 0.  1.
         12    1    3    3    0    0 -0.17486475569E+01 -0.25017218125E+00 -0.75264978834E+00  0.19201135649E+01  0.00000000000E+00 0. -1.
</event>
<event>
 7    1  0.2647566E-010  0.4778726E+02  0.7816164E-02  0.1312668E+00
        -11   -1    0    0    0    0  0.00000000000E+00  0.00000000000E+00  0.45593999997E+02  0.45594000000E+02  0.51100000000E-03 0. -1.
         11   -1    0    0    0    0 -0.00000000000E+00 -0.00000000000E+00 -0.45593999997E+02  0.45594000000E+02  0.51100000000E-03 0.  1.
    9900012    2    1    2    0    0 -0.42339697890E+02 -0.88722442903E+01 -0.35010371238E+01  0.47787262713E+02  0.19999962012E+02 0.  0.
         12    1    1    2    0    0  0.42339697890E+02  0.88722442903E+01  0.35010371238E+01  0.43400737287E+02  0.00000000000E+00 0. -1.
         11    1    3    3    0    0 -0.86000762088E+01 -0.10133592404E+01 -0.28550738184E+01  0.91180948951E+01  0.51100000000E-03 0. -1.
        -11    1    3    3    0    0 -0.19416197494E+02 -0.89811066793E+00 -0.81352885982E+01  0.21070791365E+02  0.51100000000E-03 0.  1.
         12    1    3    3    0    0 -0.14323424187E+02 -0.69607743820E+01  0.74893252928E+01  0.17598376453E+02  0.00000000000E+00 0. -1.
</event>
<event>
 7    1  0.2647566E-010  0.4778727E+02  0.7816164E-02  0.1312668E+00
        -11   -1    0    0    0    0  0.00000000000E+00  0.00000000000E+00  0.45593999997E+02  0.45594000000E+02  0.51100000000E-03 0. -1.
         11   -1    0    0    0    0 -0.00000000000E+00 -0.00000000000E+00 -0.45593999997E+02  0.45594000000E+02  0.51100000000E-03 0.  1.
    9900012    2    1    2    0    0  0.40782802855E+02  0.14824878075E+02  0.78045708079E+00  0.47787272680E+02  0.20000007455E+02 0.  0.
         12    1    1    2    0    0 -0.40782802855E+02 -0.14824878075E+02 -0.78045708079E+00  0.43400727320E+02  0.00000000000E+00 0. -1.
         11    1    3    3    0    0  0.11159760620E+02 -0.57849479665E+00  0.40912595992E+01  0.11900139440E+02  0.51100000000E-03 0. -1.
        -11    1    3    3    0    0  0.17079737081E+02  0.86158735966E+01  0.44637558932E+01  0.19643721987E+02  0.51100000000E-03 0.  1.
        -12    1    3    3    0    0  0.12543305155E+02  0.67874992751E+01 -0.77745584116E+01  0.16243411253E+02  0.00000000000E+00 0.  1.
</event>
<event>
 7    1  0.2647566E-010  0.4778728E+02  0.7816164E-02  0.1312668E+00
        -11   -1    0    0    0    0  0.00000000000E+00  0.00000000000E+00  0.45593999997E+02  0.45594000000E+02  0.51100000000E-03 0. -1.
         11   -1    0    0    0    0 -0.00000000000E+00 -0.00000000000E+00 -0.45593999997E+02  0.45594000000E+02  0.51100000000E-03 0.  1.
    9900012    2    1    2    0    0  0.41190494269E+02 -0.34455272727E+00 -0.13669202085E+02  0.47787278574E+02  0.20000034330E+02 0.  0.
         12    1    1    2    0    0 -0.41190494269E+02  0.34455272727E+00  0.13669202085E+02  0.43400721426E+02  0.00000000000E+00 0. -1.
         11    1    3    3    0    0  0.48940468024E+01  0.17843599353E+00  0.35074244905E+01  0.60237496898E+01  0.51100000000E-03 0. -1.
        -11    1    3    3    0    0  0.47521604641E+01  0.22859267300E+01  0.82211156166E+00  0.53370738961E+01  0.51100000000E-03 0.  1.
        -12    1    3    3    0    0  0.31544287002E+02 -0.28089154508E+01 -0.17998738137E+02  0.36426454988E+02  0.00000000000E+00 0.  1.
</event>
<event>
 7    1  0.2956328E-010  0.4778727E+02  0.7816164E-02  0.1312668E+00
        -11   -1    0    0    0    0  0.00000000000E+00  0.00000000000E+00  0.45593999997E+02  0.45594000000E+02  0.51100000000E-03 0.  1.
         11   -1    0    0    0    0 -0.00000000000E+00 -0.00000000000E+00 -0.45593999997E+02  0.45594000000E+02  0.51100000000E-03 0. -1.
    9900012    2    1    2    0    0  0.17776775997E+02  0.33940985963E+02 -0.20386738730E+02  0.47787269488E+02  0.19999992902E+02 0.  0.
         12    1    1    2    0    0 -0.17776775997E+02 -0.33940985963E+02  0.20386738730E+02  0.43400730512E+02  0.00000000000E+00 0. -1.
         11    1    3    3    0    0  0.48575215435E+00 -0.11493452751E+01  0.95068280849E+00  0.15686770797E+01  0.51100000000E-03 0. -1.
        -11    1    3    3    0    0  0.91975197669E+01  0.15360080623E+02 -0.31241535965E+01  0.18173793840E+02  0.51100000000E-03 0.  1.
        -12    1    3    3    0    0  0.80935040758E+01  0.19730250615E+02 -0.18213267942E+02  0.28044798567E+02  0.00000000000E+00 0.  1.
</event>
<event>
 7    1  0.2647566E-010  0.4778727E+02  0.7816164E-02  0.1312668E+00
        -11   -1    0    0    0    0  0.00000000000E+00  0.00000000000E+00  0.45593999997E+02  0.45594000000E+02  0.51100000000E-03 0.  1.
         11   -1    0    0    0    0 -0.00000000000E+00 -0.00000000000E+00 -0.45593999997E+02  0.45594000000E+02  0.51100000000E-03 0. -1.
    9900012    2    1    2    0    0  0.38628738738E+01  0.42390694920E+02  0.84694097230E+01  0.47787266004E+02  0.19999977019E+02 0.  0.
         12    1    1    2    0    0 -0.38628738738E+01 -0.42390694920E+02 -0.84694097230E+01  0.43400733996E+02  0.00000000000E+00 0. -1.
         11    1    3    3    0    0  0.12280664530E+01  0.14288853076E+02  0.66655873327E+01  0.15814851380E+02  0.51100000000E-03 0. -1.
        -11    1    3    3    0    0  0.65048346757E+01  0.27159531366E+02  0.13038155830E+01  0.27958057042E+02  0.51100000000E-03 0.  1.
         12    1    3    3    0    0 -0.38700272549E+01  0.94231047729E+00  0.50000680723E+00  0.40143575820E+01  0.00000000000E+00 0. -1.
</event>
<event>
 7    1  0.2647566E-010  0.4778724E+02  0.7816164E-02  0.1312668E+00
        -11   -1    0    0    0    0  0.00000000000E+00  0.00000000000E+00  0.45593999997E+02  0.45594000000E+02  0.51100000000E-03 0.  1.
         11   -1    0    0    0    0 -0.00000000000E+00 -0.00000000000E+00 -0.45593999997E+02  0.45594000000E+02  0.51100000000E-03 0. -1.
    9900012    2    1    2    0    0  0.11222208942E+02 -0.27422714878E+02  0.31712499218E+02  0.47787241119E+02  0.19999863557E+02 0.  0.
         12    1    1    2    0    0 -0.11222208942E+02  0.27422714878E+02 -0.31712499218E+02  0.43400758881E+02  0.00000000000E+00 0. -1.
         11    1    3    3    0    0 -0.48765574997E+00 -0.58706510754E+01  0.65801431361E+01  0.88317968801E+01  0.51100000000E-03 0. -1.
        -11    1    3    3    0    0 -0.30520092831E+01  0.84188547423E-01  0.52435792210E+01  0.60676990436E+01  0.51100000000E-03 0.  1.
         12    1    3    3    0    0  0.14761873975E+02 -0.21636252350E+02  0.19888776861E+02  0.32887745195E+02  0.00000000000E+00 0. -1.
</event>
<event>
 7    1  0.2647566E-010  0.4778727E+02  0.7816164E-02  0.1312668E+00
        -11   -1    0    0    0    0  0.00000000000E+00  0.00000000000E+00  0.45593999997E+02  0.45594000000E+02  0.51100000000E-03 0.  1.
         11   -1    0    0    0    0 -0.00000000000E+00 -0.00000000000E+00 -0.45593999997E+02  0.45594000000E+02  0.51100000000E-03 0. -1.
    9900012    2    1    2    0    0 -0.33490657738E+02  0.18473887878E+02  0.20511337379E+02  0.47787266710E+02  0.19999980238E+02 0.  0.
         12    1    1    2    0    0  0.33490657738E+02 -0.18473887878E+02 -0.20511337379E+02  0.43400733290E+02  0.00000000000E+00 0. -1.
         11    1    3    3    0    0  0.14769279756E+01  0.29662733042E+00  0.93635469960E+00  0.17737148595E+01  0.51100000000E-03 0. -1.
        -11    1    3    3    0    0 -0.10080684294E+02  0.12741358008E+01  0.73156415655E-01  0.10161150033E+02  0.51100000000E-03 0.  1.
        -12    1    3    3    0    0 -0.24886901419E+02  0.16903124747E+02  0.19501826264E+02  0.35852401817E+02  0.00000000000E+00 0.  1.
</event>
<event>
 7    1  0.2647566E-010  0.4778727E+02  0.7816164E-02  0.1312668E+00
        -11   -1    0    0    0    0  0.00000000000E+00  0.00000000000E+00  0.45593999997E+02  0.45594000000E+02  0.51100000000E-03 0.  1.
         11   -1    0    0    0    0 -0.00000000000E+00 -0.00000000000E+00 -0.45593999997E+02  0.45594000000E+02  0.51100000000E-03 0. -1.
    9900012    2    1    2    0    0 -0.26781153932E+02  0.32684814139E+02  0.99043453271E+01  0.47787270310E+02  0.19999996652E+02 0.  0.
         12    1    1    2    0    0  0.26781153932E+02 -0.32684814139E+02 -0.99043453271E+01  0.43400729690E+02  0.00000000000E+00 0. -1.
         11    1    3    3    0    0 -0.17591687337E+02  0.17496458771E+02  0.57957464473E+00  0.24817925778E+02  0.51100000000E-03 0. -1.
        -11    1    3    3    0    0 -0.71178855759E+01  0.56638055267E+01 -0.52568646162E+00  0.91114946432E+01  0.51100000000E-03 0.  1.
         12    1    3    3    0    0 -0.20715810191E+01  0.95245498413E+01  0.98504571440E+01  0.13857849889E+02  0.00000000000E+00 0. -1.
</event>
<event>
 7    1  0.2647566E-010  0.4778727E+02  0.7816164E-02  0.1312668E+00
        -11   -1    0    0    0    0  0.00000000000E+00  0.00000000000E+00  0.45593999997E+02  0.45594000000E+02  0.51100000000E-03 0.  1.
         11   -1    0    0    0    0 -0.00000000000E+00 -0.00000000000E+00 -0.45593999997E+02  0.45594000000E+02  0.51100000000E-03 0. -1.
    9900012    2    1    2    0    0 -0.12687136524E+02 -0.39932557562E+02 -0.11315935957E+02  0.47787274277E+02  0.20000014741E+02 0.  0.
         12    1    1    2    0    0  0.12687136524E+02  0.39932557562E+02  0.11315935957E+02  0.43400725723E+02  0.00000000000E+00 0. -1.
         11    1    3    3    0    0  0.14403297266E+01  0.62302574325E+00 -0.22018983982E+01  0.27038985956E+01  0.51100000000E-03 0. -1.
        -11    1    3    3    0    0 -0.28375227690E+01 -0.85724642033E+01 -0.63794130121E+01  0.11056020469E+02  0.51100000000E-03 0.  1.
        -12    1    3    3    0    0 -0.11289943482E+02 -0.31983119102E+02 -0.27346245470E+01  0.34027355212E+02  0.00000000000E+00 0.  1.
</event>
<event>
 7    1  0.2647566E-010  0.4778727E+02  0.7816164E-02  0.1312668E+00
        -11   -1    0    0    0    0  0.00000000000E+00  0.00000000000E+00  0.45593999997E+02  0.45594000000E+02  0.51100000000E-03 0. -1.
         11   -1    0    0    0    0 -0.00000000000E+00 -0.00000000000E+00 -0.45593999997E+02  0.45594000000E+02  0.51100000000E-03 0.  1.
    9900012    2    1    2    0    0  0.10929612554E+02 -0.35945767650E+02 -0.21727145305E+02  0.47787268605E+02  0.19999988877E+02 0.  0.
         12    1    1    2    0    0 -0.10929612554E+02  0.35945767650E+02  0.21727145305E+02  0.43400731395E+02  0.00000000000E+00 0. -1.
         11    1    3    3    0    0 -0.17673954166E+01 -0.40057552737E+01 -0.85125992508E+01  0.95725706128E+01  0.51100000000E-03 0. -1.
        -11    1    3    3    0    0  0.64485613196E+01 -0.18375050153E+02 -0.12742667073E+02  0.23272343578E+02  0.51100000000E-03 0.  1.
         12    1    3    3    0    0  0.62484466508E+01 -0.13564962223E+02 -0.47187898142E+00  0.14942354414E+02  0.00000000000E+00 0. -1.
</event>
<event>
 7    1  0.2647566E-010  0.4778727E+02  0.7816164E-02  0.1312668E+00
        -11   -1    0    0    0    0  0.00000000000E+00  0.00000000000E+00  0.45593999997E+02  0.45594000000E+02  0.51100000000E-03 0.  1.
         11   -1    0    0    0    0 -0.00000000000E+00 -0.00000000000E+00 -0.45593999997E+02  0.45594000000E+02  0.51100000000E-03 0. -1.
    9900012    2    1    2    0    0 -0.13428002515E+02  0.25250511546E+02  0.32645420965E+02  0.47787273107E+02  0.20000009403E+02 0.  0.
         12    1    1    2    0    0  0.13428002515E+02 -0.25250511546E+02 -0.32645420965E+02  0.43400726893E+02  0.00000000000E+00 0. -1.
         11    1    3    3    0    0 -0.10647078585E+02  0.99247292722E+01  0.56167389990E+01  0.15601547704E+02  0.51100000000E-03 0. -1.
        -11    1    3    3    0    0 -0.34262758252E+01  0.23644062260E+01  0.95339990619E+01  0.10403216868E+02  0.51100000000E-03 0.  1.
        -12    1    3    3    0    0  0.64535189611E+00  0.12961376048E+02  0.17494682904E+02  0.21782508534E+02  0.00000000000E+00 0.  1.
</event>
<event>
 7    1  0.2647566E-010  0.4778727E+02  0.7816164E-02  0.1312668E+00
        -11   -1    0    0    0    0  0.00000000000E+00  0.00000000000E+00  0.45593999997E+02  0.45594000000E+02  0.51100000000E-03 0. -1.
         11   -1    0    0    0    0 -0.00000000000E+00 -0.00000000000E+00 -0.45593999997E+02  0.45594000000E+02  0.51100000000E-03 0.  1.
    9900012    2    1    2    0    0 -0.32572901634E+02  0.93419227813E+01 -0.27117478977E+02  0.47787272953E+02  0.20000008701E+02 0.  0.
         12    1    1    2    0    0  0.32572901634E+02 -0.93419227813E+01  0.27117478977E+02  0.43400727047E+02  0.00000000000E+00 0. -1.
         11    1    3    3    0    0 -0.15201040215E+02 -0.26723110853E+01 -0.12277572576E+02  0.19721857387E+02  0.51100000000E-03 0. -1.
        -11    1    3    3    0    0 -0.13184794321E+02  0.46811373986E+01 -0.44605943964E+01  0.14684983870E+02  0.51100000000E-03 0.  1.
         12    1    3    3    0    0 -0.41870670988E+01  0.73330964681E+01 -0.10379312005E+02  0.13380431697E+02  0.00000000000E+00 0. -1.
</event>
<event>
 7    1  0.2647566E-010  0.4778728E+02  0.7816164E-02  0.1312668E+00
        -11   -1    0    0    0    0  0.00000000000E+00  0.00000000000E+00  0.45593999997E+02  0.45594000000E+02  0.51100000000E-03 0.  1.
         11   -1    0    0    0    0 -0.00000000000E+00 -0.00000000000E+00 -0.45593999997E+02  0.45594000000E+02  0.51100000000E-03 0. -1.
    9900012    2    1    2    0    0  0.40836134303E+02 -0.74012442370E+01  0.12698586544E+02  0.47787281328E+02  0.20000046885E+02 0.  0.
         12    1    1    2    0    0 -0.40836134303E+02  0.74012442370E+01 -0.12698586544E+02  0.43400718672E+02  0.00000000000E+00 0. -1.
         11    1    3    3    0    0  0.19056487137E+02 -0.49002430711E+01  0.55629040330E+01  0.20447689007E+02  0.51100000000E-03 0. -1.
        -11    1    3    3    0    0  0.14803852504E+02 -0.25356607041E+01 -0.27211911810E+01  0.15263961015E+02  0.51100000000E-03 0.  1.
         12    1    3    3    0    0  0.69757946618E+01  0.34659538188E-01  0.98568736925E+01  0.12075631306E+02  0.00000000000E+00 0. -1.
</event>
<event>
 7    1  0.2647566E-010  0.4778727E+02  0.7816164E-02  0.1312668E+00
        -11   -1    0    0    0    0  0.00000000000E+00  0.00000000000E+00  0.45593999997E+02  0.45594000000E+02  0.51100000000E-03 0.  1.
         11   -1    0    0    0    0 -0.00000000000E+00 -0.00000000000E+00 -0.45593999997E+02  0.45594000000E+02  0.51100000000E-03 0. -1.
    9900012    2    1    2    0    0  0.27633842214E+02  0.50908347624E+00  0.33462441951E+02  0.47787269328E+02  0.19999992176E+02 0.  0.
         12    1    1    2    0    0 -0.27633842214E+02 -0.50908347624E+00 -0.33462441951E+02  0.43400730672E+02  0.00000000000E+00 0. -1.
         11    1    3    3    0    0 -0.13809814589E+01 -0.25273105346E+01  0.46796477435E+01  0.54948622905E+01  0.51100000000E-03 0. -1.
        -11    1    3    3    0    0  0.93624240976E+01 -0.21044696585E+00  0.32579667414E+01  0.99153225090E+01  0.51100000000E-03 0.  1.
        -12    1    3    3    0    0  0.19652399575E+02  0.32468409767E+01  0.25524827466E+02  0.32377084529E+02  0.00000000000E+00 0.  1.
</event>
<event>
 7    1  0.2647566E-010  0.4778727E+02  0.7816164E-02  0.1312668E+00
        -11   -1    0    0    0    0  0.00000000000E+00  0.00000000000E+00  0.45593999997E+02  0.45594000000E+02  0.51100000000E-03 0.  1.
         11   -1    0    0    0    0 -0.00000000000E+00 -0.00000000000E+00 -0.45593999997E+02  0.45594000000E+02  0.51100000000E-03 0. -1.
    9900012    2    1    2    0    0 -0.16961745799E+02 -0.61376386927E+01  0.39474701497E+02  0.47787268582E+02  0.19999988775E+02 0.  0.
         12    1    1    2    0    0  0.16961745799E+02  0.61376386927E+01 -0.39474701497E+02  0.43400731418E+02  0.00000000000E+00 0. -1.
         11    1    3    3    0    0 -0.46485562191E+01  0.20746353478E+00  0.34326234102E+01  0.57823022904E+01  0.51100000000E-03 0. -1.
        -11    1    3    3    0    0 -0.60988072791E+01  0.25373936995E+01  0.30466103703E+01  0.72743145398E+01  0.51100000000E-03 0.  1.
         12    1    3    3    0    0 -0.62143823010E+01 -0.88824959270E+01  0.32995467717E+02  0.34730651752E+02  0.00000000000E+00 0. -1.
</event>
<event>
 7    1  0.2647566E-010  0.4778728E+02  0.7816164E-02  0.1312668E+00
        -11   -1    0    0    0    0  0.00000000000E+00  0.00000000000E+00  0.45593999997E+02  0.45594000000E+02  0.51100000000E-03 0. -1.
         11   -1    0    0    0    0 -0.00000000000E+00 -0.00000000000E+00 -0.45593999997E+02  0.45594000000E+02  0.51100000000E-03 0.  1.
    9900012    2    1    2    0    0  0.65735869107E+01 -0.10065276318E+01 -0.42888200133E+02  0.47787275888E+02  0.20000022085E+02 0.  0.
         12    1    1    2    0    0 -0.65735869107E+01  0.10065276318E+01  0.42888200133E+02  0.43400724112E+02  0.00000000000E+00 0. -1.
         11    1    3    3    0    0  0.35645465651E+01  0.76363415730E+01 -0.22936200446E+02  0.24435404559E+02  0.51100000000E-03 0. -1.
        -11    1    3    3    0    0  0.29904941313E+01 -0.47468908850E+00 -0.10153112728E+02  0.10595002747E+02  0.51100000000E-03 0.  1.
        -12    1    3    3    0    0  0.18546214316E-01 -0.81681801163E+01 -0.97988869598E+01  0.12756868582E+02  0.00000000000E+00 0.  1.
</event>
<event>
 7    1  0.2647566E-010  0.4778727E+02  0.7816164E-02  0.1312668E+00
        -11   -1    0    0    0    0  0.00000000000E+00  0.00000000000E+00  0.45593999997E+02  0.45594000000E+02  0.51100000000E-03 0.  1.
         11   -1    0    0    0    0 -0.00000000000E+00 -0.00000000000E+00 -0.45593999997E+02  0.45594000000E+02  0.51100000000E-03 0. -1.
    9900012    2    1    2    0    0  0.28946311108E+02 -0.29199664050E+02 -0.13896547691E+02  0.47787270223E+02  0.19999996256E+02 0.  0.
         12    1    1    2    0    0 -0.28946311108E+02  0.29199664050E+02  0.13896547691E+02  0.43400729777E+02  0.00000000000E+00 0. -1.
         11    1    3    3    0    0  0.48610112639E+01 -0.69546542089E+01  0.63604109171E+00  0.85088891287E+01  0.51100000000E-03 0. -1.
        -11    1    3    3    0    0  0.69708441549E+01 -0.13591691719E+02 -0.97874671393E-01  0.15275350462E+02  0.51100000000E-03 0.  1.
         12    1    3    3    0    0  0.17114455690E+02 -0.86533181222E+01 -0.14434714112E+02  0.24003030633E+02  0.00000000000E+00 0. -1.
</event>
<event>
 7    1  0.2647566E-010  0.4778727E+02  0.7816164E-02  0.1312668E+00
        -11   -1    0    0    0    0  0.00000000000E+00  0.00000000000E+00  0.45593999997E+02  0.45594000000E+02  0.51100000000E-03 0.  1.
         11   -1    0    0    0    0 -0.00000000000E+00 -0.00000000000E+00 -0.45593999997E+02  0.45594000000E+02  0.51100000000E-03 0. -1.
    9900012    2    1    2    0    0  0.80348679315E+01 -0.74530310482E+00  0.42643976897E+02  0.47787270225E+02  0.19999996264E+02 0.  0.
         12    1    1    2    0    0 -0.80348679315E+01  0.74530310482E+00 -0.42643976897E+02  0.43400729775E+02  0.00000000000E+00 0. -1.
         11    1    3    3    0    0  0.55240402603E+01  0.29019019557E+01  0.87059291421E+01  0.10711174457E+02  0.51100000000E-03 0. -1.
        -11    1    3    3    0    0  0.42250881513E+01  0.45447533834E+01  0.10600454963E+02  0.12283151016E+02  0.51100000000E-03 0.  1.
        -12    1    3    3    0    0 -0.17142604801E+01 -0.81919584439E+01  0.23337592792E+02  0.24792944752E+02  0.00000000000E+00 0.  1.
</event>
<event>
 7    1  0.2647566E-010  0.4778727E+02  0.7816164E-02  0.1312668E+00
        -11   -1    0    0    0    0  0.00000000000E+00  0.00000000000E+00  0.45593999997E+02  0.45594000000E+02  0.51100000000E-03 0.  1.
         11   -1    0    0    0    0 -0.00000000000E+00 -0.00000000000E+00 -0.45593999997E+02  0.45594000000E+02  0.51100000000E-03 0. -1.
    9900012    2    1    2    0    0 -0.29238084029E+02  0.11473004064E+02  0.29952092742E+02  0.47787271440E+02  0.20000001803E+02 0.  0.
         12    1    1    2    0    0  0.29238084029E+02 -0.11473004064E+02 -0.29952092742E+02  0.43400728560E+02  0.00000000000E+00 0. -1.
         11    1    3    3    0    0 -0.22102931272E+02  0.66011914069E+01  0.28385285938E+02  0.36576491861E+02  0.51100000000E-03 0.  1.
        -11    1    3    3    0    0 -0.33505350948E+01  0.24261882074E+01  0.42788371186E+01  0.59515478649E+01  0.51100000000E-03 0. -1.
         12    1    3    3    0    0 -0.37846176619E+01  0.24456244498E+01 -0.27120303147E+01  0.52592317142E+01  0.00000000000E+00 0. -1.
</event>
<event>
 7    1  0.2647566E-010  0.4778726E+02  0.7816164E-02  0.1312668E+00
        -11   -1    0    0    0    0  0.00000000000E+00  0.00000000000E+00  0.45593999997E+02  0.45594000000E+02  0.51100000000E-03 0.  1.
         11   -1    0    0    0    0 -0.00000000000E+00 -0.00000000000E+00 -0.45593999997E+02  0.45594000000E+02  0.51100000000E-03 0. -1.
    9900012    2    1    2    0    0  0.87539680197E+01  0.11369597388E+02  0.40960032868E+02  0.47787262755E+02  0.19999962205E+02 0.  0.
         12    1    1    2    0    0 -0.87539680197E+01 -0.11369597388E+02 -0.40960032868E+02  0.43400737245E+02  0.00000000000E+00 0. -1.
         11    1    3    3    0    0  0.10649159580E+02 -0.22320526342E+00  0.14963621519E+02  0.18367481851E+02  0.51100000000E-03 0. -1.
        -11    1    3    3    0    0  0.15503788190E+01  0.20366753736E+01  0.16664603173E+01  0.30543102838E+01  0.51100000000E-03 0.  1.
        -12    1    3    3    0    0 -0.34455703788E+01  0.95561272782E+01  0.24329951032E+02  0.26365470620E+02  0.00000000000E+00 0.  1.
</event>
<event>
 7    1  0.2647566E-010  0.4778726E+02  0.7816164E-02  0.1312668E+00
        -11   -1    0    0    0    0  0.00000000000E+00  0.00000000000E+00  0.45593999997E+02  0.45594000000E+02  0.51100000000E-03 0.  1.
         11   -1    0    0    0    0 -0.00000000000E+00 -0.00000000000E+00 -0.45593999997E+02  0.45594000000E+02  0.51100000000E-03 0. -1.
    9900012    2    1    2    0    0  0.20086705786E+02 -0.31976506733E+02  0.21392786700E+02  0.47787262046E+02  0.19999958971E+02 0.  0.
         12    1    1    2    0    0 -0.20086705786E+02  0.31976506733E+02 -0.21392786700E+02  0.43400737954E+02  0.00000000000E+00 0. -1.
         11    1    3    3    0    0  0.28710719820E+01 -0.11922179955E+02  0.92488698313E+01  0.15359785891E+02  0.51100000000E-03 0. -1.
        -11    1    3    3    0    0  0.73595113174E+01 -0.15206382963E+02  0.13134707378E+02  0.21398995953E+02  0.51100000000E-03 0.  1.
         12    1    3    3    0    0  0.98561224870E+01 -0.48479438150E+01 -0.99079050942E+00  0.11028480201E+02  0.00000000000E+00 0. -1.
</event>
<event>
 7    1  0.2647566E-010  0.4778726E+02  0.7816164E-02  0.1312668E+00
        -11   -1    0    0    0    0  0.00000000000E+00  0.00000000000E+00  0.45593999997E+02  0.45594000000E+02  0.51100000000E-03 0.  1.
         11   -1    0    0    0    0 -0.00000000000E+00 -0.00000000000E+00 -0.45593999997E+02  0.45594000000E+02  0.51100000000E-03 0. -1.
    9900012    2    1    2    0    0  0.23630961287E+01 -0.11048332006E+02  0.41904350526E+02  0.47787257421E+02  0.19999937884E+02 0.  0.
         12    1    1    2    0    0 -0.23630961287E+01  0.11048332006E+02 -0.41904350526E+02  0.43400742579E+02  0.00000000000E+00 0. -1.
         11    1    3    3    0    0 -0.40356591071E+01 -0.43706101101E+00  0.18406449900E+01  0.44570776296E+01  0.51100000000E-03 0. -1.
        -11    1    3    3    0    0 -0.23777592675E+00 -0.34601327693E+00  0.18790101728E+02  0.18794791453E+02  0.51100000000E-03 0.  1.
         12    1    3    3    0    0  0.66365311625E+01 -0.10265257718E+02  0.21273603808E+02  0.24535388338E+02  0.00000000000E+00 0. -1.
</event>
<event>
 7    1  0.2647566E-010  0.4778726E+02  0.7816164E-02  0.1312668E+00
        -11   -1    0    0    0    0  0.00000000000E+00  0.00000000000E+00  0.45593999997E+02  0.45594000000E+02  0.51100000000E-03 0.  1.
         11   -1    0    0    0    0 -0.00000000000E+00 -0.00000000000E+00 -0.45593999997E+02  0.45594000000E+02  0.51100000000E-03 0. -1.
    9900012    2    1    2    0    0 -0.31911411856E+02  0.41036551534E+01  0.29128089938E+02  0.47787264803E+02  0.19999971541E+02 0.  0.
         12    1    1    2    0    0  0.31911411856E+02 -0.41036551534E+01 -0.29128089938E+02  0.43400735197E+02  0.00000000000E+00 0. -1.
         11    1    3    3    0    0 -0.10596688333E+02 -0.16795597855E+01  0.65676183346E+01  0.12579520481E+02  0.51100000000E-03 0. -1.
        -11    1    3    3    0    0 -0.22762345300E+02  0.18574711843E+01  0.18759630685E+02  0.29555004762E+02  0.51100000000E-03 0.  1.
         12    1    3    3    0    0  0.14476217774E+01  0.39257437545E+01  0.38008409183E+01  0.56527395591E+01  0.00000000000E+00 0. -1.
</event>
<event>
 7    1  0.2647566E-010  0.4778727E+02  0.7816164E-02  0.1312668E+00
        -11   -1    0    0    0    0  0.00000000000E+00  0.00000000000E+00  0.45593999997E+02  0.45594000000E+02  0.51100000000E-03 0.  1.
         11   -1    0    0    0    0 -0.00000000000E+00 -0.00000000000E+00 -0.45593999997E+02  0.45594000000E+02  0.51100000000E-03 0. -1.
    9900012    2    1    2    0    0  0.28607891303E+02 -0.19933615561E+02  0.25843038908E+02  0.47787272654E+02  0.20000007338E+02 0.  0.
         12    1    1    2    0    0 -0.28607891303E+02  0.19933615561E+02 -0.25843038908E+02  0.43400727346E+02  0.00000000000E+00 0. -1.
         11    1    3    3    0    0  0.10094066157E+02 -0.82150772388E+01  0.12395056363E+02  0.17972620513E+02  0.51100000000E-03 0. -1.
        -11    1    3    3    0    0  0.21182708342E+02 -0.10593788280E+02  0.11535189389E+02  0.26343805293E+02  0.51100000000E-03 0.  1.
         12    1    3    3    0    0 -0.26688831963E+01 -0.11247500429E+01  0.19127931571E+01  0.34708468472E+01  0.00000000000E+00 0. -1.
</event>
<event>
 7    1  0.2647566E-010  0.4778727E+02  0.7816164E-02  0.1312668E+00
        -11   -1    0    0    0    0  0.00000000000E+00  0.00000000000E+00  0.45593999997E+02  0.45594000000E+02  0.51100000000E-03 0.  1.
         11   -1    0    0    0    0 -0.00000000000E+00 -0.00000000000E+00 -0.45593999997E+02  0.45594000000E+02  0.51100000000E-03 0. -1.
    9900012    2    1    2    0    0 -0.18940886332E+02  0.38171105353E+02  0.82360637590E+01  0.47787271836E+02  0.20000003610E+02 0.  0.
         12    1    1    2    0    0  0.18940886332E+02 -0.38171105353E+02 -0.82360637590E+01  0.43400728164E+02  0.00000000000E+00 0. -1.
         11    1    3    3    0    0 -0.13603483171E+01  0.11948420742E+02 -0.22453222384E+01  0.12233428709E+02  0.51100000000E-03 0. -1.
        -11    1    3    3    0    0 -0.97877396073E+00  0.55011967981E+01  0.67158519351E+01  0.87363511922E+01  0.51100000000E-03 0.  1.
        -12    1    3    3    0    0 -0.16601764054E+02  0.20721487813E+02  0.37655340623E+01  0.26817491935E+02  0.00000000000E+00 0.  1.
</event>
<event>
 7    1  0.2647566E-010  0.4778727E+02  0.7816164E-02  0.1312668E+00
        -11   -1    0    0    0    0  0.00000000000E+00  0.00000000000E+00  0.45593999997E+02  0.45594000000E+02  0.51100000000E-03 0.  1.
         11   -1    0    0    0    0 -0.00000000000E+00 -0.00000000000E+00 -0.45593999997E+02  0.45594000000E+02  0.51100000000E-03 0. -1.
    9900012    2    1    2    0    0  0.16795425596E+02 -0.37769252646E+02  0.13229530322E+02  0.47787271447E+02  0.20000001833E+02 0.  0.
         12    1    1    2    0    0 -0.16795425596E+02  0.37769252646E+02 -0.13229530322E+02  0.43400728553E+02  0.00000000000E+00 0. -1.
         11    1    3    3    0    0  0.62542257748E+01 -0.12473015876E+02  0.17505241879E+01  0.14062567343E+02  0.51100000000E-03 0. -1.
        -11    1    3    3    0    0  0.54888548386E+01 -0.22748773244E+02  0.14276537774E+02  0.27412656613E+02  0.51100000000E-03 0.  1.
         12    1    3    3    0    0  0.50523449826E+01 -0.25474635265E+01 -0.27975316394E+01  0.63120474900E+01  0.00000000000E+00 0. -1.
</event>
<event>
 7    1  0.2647566E-010  0.4778729E+02  0.7816164E-02  0.1312668E+00
        -11   -1    0    0    0    0  0.00000000000E+00  0.00000000000E+00  0.45593999997E+02  0.45594000000E+02  0.51100000000E-03 0. -1.
         11   -1    0    0    0    0 -0.00000000000E+00 -0.00000000000E+00 -0.45593999997E+02  0.45594000000E+02  0.51100000000E-03 0.  1.
    9900012    2    1    2    0    0 -0.12256899775E+02  0.34062267044E+02 -0.23940588564E+02  0.47787292528E+02  0.20000097953E+02 0.  0.
         12    1    1    2    0    0  0.12256899775E+02 -0.34062267044E+02  0.23940588564E+02  0.43400707472E+02  0.00000000000E+00 0. -1.
         11    1    3    3    0    0  0.78153667520E+00 -0.15064097277E+01 -0.66507164144E+00  0.18227425468E+01  0.51100000000E-03 0. -1.
        -11    1    3    3    0    0 -0.35673348257E+00  0.67130440849E+01 -0.93257631440E+01  0.11496176675E+02  0.51100000000E-03 0.  1.
        -12    1    3    3    0    0 -0.12681702968E+02  0.28855632687E+02 -0.13949753779E+02  0.34468373306E+02  0.00000000000E+00 0.  1.
</event>
<event>
 7    1  0.2647566E-010  0.4778727E+02  0.7816164E-02  0.1312668E+00
        -11   -1    0    0    0    0  0.00000000000E+00  0.00000000000E+00  0.45593999997E+02  0.45594000000E+02  0.51100000000E-03 0.  1.
         11   -1    0    0    0    0 -0.00000000000E+00 -0.00000000000E+00 -0.45593999997E+02  0.45594000000E+02  0.51100000000E-03 0. -1.
    9900012    2    1    2    0    0  0.13346013319E+02  0.41099558945E+02  0.40414652229E+01  0.47787271226E+02  0.20000000829E+02 0.  0.
         12    1    1    2    0    0 -0.13346013319E+02 -0.41099558945E+02 -0.40414652229E+01  0.43400728774E+02  0.00000000000E+00 0. -1.
         11    1    3    3    0    0  0.49335618002E+00  0.75744979044E+00  0.18405584417E+01  0.20505575203E+01  0.51100000000E-03 0. -1.
        -11    1    3    3    0    0 -0.20892871022E+01  0.22439314668E+01  0.36758146367E+01  0.47866441822E+01  0.51100000000E-03 0.  1.
         12    1    3    3    0    0  0.14941944241E+02  0.38098177687E+02 -0.14749078556E+01  0.40950069524E+02  0.00000000000E+00 0. -1.
</event>
<event>
 7    1  0.2647566E-010  0.4778727E+02  0.7816164E-02  0.1312668E+00
        -11   -1    0    0    0    0  0.00000000000E+00  0.00000000000E+00  0.45593999997E+02  0.45594000000E+02  0.51100000000E-03 0.  1.
         11   -1    0    0    0    0 -0.00000000000E+00 -0.00000000000E+00 -0.45593999997E+02  0.45594000000E+02  0.51100000000E-03 0. -1.
    9900012    2    1    2    0    0  0.23103933145E+02  0.36451666460E+02  0.45943097530E+01  0.47787269631E+02  0.19999993554E+02 0.  0.
         12    1    1    2    0    0 -0.23103933145E+02 -0.36451666460E+02 -0.45943097530E+01  0.43400730369E+02  0.00000000000E+00 0. -1.
         11    1    3    3    0    0  0.41406684916E+00  0.12841900306E+02 -0.38484625543E+01  0.13412550806E+02  0.51100000000E-03 0. -1.
        -11    1    3    3    0    0  0.80778830812E+01  0.49255351801E+01  0.99400344080E+00  0.95132084485E+01  0.51100000000E-03 0.  1.
        -12    1    3    3    0    0  0.14611983215E+02  0.18684230974E+02  0.74487688665E+01  0.24861510376E+02  0.00000000000E+00 0.  1.
</event>
<event>
 7    1  0.2647566E-010  0.4778727E+02  0.7816164E-02  0.1312668E+00
        -11   -1    0    0    0    0  0.00000000000E+00  0.00000000000E+00  0.45593999997E+02  0.45594000000E+02  0.51100000000E-03 0.  1.
         11   -1    0    0    0    0 -0.00000000000E+00 -0.00000000000E+00 -0.45593999997E+02  0.45594000000E+02  0.51100000000E-03 0. -1.
    9900012    2    1    2    0    0  0.57403723875E+01 -0.13497668321E+02  0.40847089268E+02  0.47787266977E+02  0.19999981456E+02 0.  0.
         12    1    1    2    0    0 -0.57403723875E+01  0.13497668321E+02 -0.40847089268E+02  0.43400733023E+02  0.00000000000E+00 0. -1.
         11    1    3    3    0    0  0.58026151004E+01 -0.88993983399E+01  0.81890236585E+01  0.13413789232E+02  0.51100000000E-03 0. -1.
        -11    1    3    3    0    0  0.52411642734E-01  0.17183149470E+01  0.80196740682E+00  0.18969726461E+01  0.51100000000E-03 0.  1.
        -12    1    3    3    0    0 -0.11465435564E+00 -0.63165849281E+01  0.31856098203E+02  0.32476505099E+02  0.00000000000E+00 0.  1.
</event>
<event>
 7    1  0.2647566E-010  0.4778727E+02  0.7816164E-02  0.1312668E+00
        -11   -1    0    0    0    0  0.00000000000E+00  0.00000000000E+00  0.45593999997E+02  0.45594000000E+02  0.51100000000E-03 0.  1.
         11   -1    0    0    0    0 -0.00000000000E+00 -0.00000000000E+00 -0.45593999997E+02  0.45594000000E+02  0.51100000000E-03 0. -1.
    9900012    2    1    2    0    0 -0.36490804621E+02 -0.18187746762E+02  0.14874479319E+02  0.47787273172E+02  0.20000009702E+02 0.  0.
         12    1    1    2    0    0  0.36490804621E+02  0.18187746762E+02 -0.14874479319E+02  0.43400726828E+02  0.00000000000E+00 0. -1.
         11    1    3    3    0    0 -0.28029887161E+02 -0.16587333507E+02  0.16543471577E+02  0.36530817938E+02  0.51100000000E-03 0. -1.
        -11    1    3    3    0    0 -0.90608671737E+01 -0.15286749501E+01  0.30306268381E+00  0.91939114796E+01  0.51100000000E-03 0.  1.
         12    1    3    3    0    0  0.59994971389E+00 -0.71738304235E-01 -0.19720549423E+01  0.20625437544E+01  0.00000000000E+00 0. -1.
</event>
<event>
 7    1  0.2647566E-010  0.4778727E+02  0.7816164E-02  0.1312668E+00
        -11   -1    0    0    0    0  0.00000000000E+00  0.00000000000E+00  0.45593999997E+02  0.45594000000E+02  0.51100000000E-03 0.  1.
         11   -1    0    0    0    0 -0.00000000000E+00 -0.00000000000E+00 -0.45593999997E+02  0.45594000000E+02  0.51100000000E-03 0. -1.
    9900012    2    1    2    0    0 -0.37227671238E+02  0.11725813519E+02  0.18979702583E+02  0.47787270529E+02  0.19999997648E+02 0.  0.
         12    1    1    2    0    0  0.37227671238E+02 -0.11725813519E+02 -0.18979702583E+02  0.43400729471E+02  0.00000000000E+00 0. -1.
         11    1    3    3    0    0 -0.12683233229E+02  0.62174498027E+01  0.30738399523E+00  0.14128537517E+02  0.51100000000E-03 0. -1.
        -11    1    3    3    0    0 -0.38504374538E+01  0.61509676427E+01  0.40344930990E+01  0.83028553134E+01  0.51100000000E-03 0.  1.
        -12    1    3    3    0    0 -0.20694000555E+02 -0.64260392608E+00  0.14637825489E+02  0.25355877698E+02  0.00000000000E+00 0.  1.
</event>
<event>
 7    1  0.2647566E-010  0.4778727E+02  0.7816164E-02  0.1312668E+00
        -11   -1    0    0    0    0  0.00000000000E+00  0.00000000000E+00  0.45593999997E+02  0.45594000000E+02  0.51100000000E-03 0. -1.
         11   -1    0    0    0    0 -0.00000000000E+00 -0.00000000000E+00 -0.45593999997E+02  0.45594000000E+02  0.51100000000E-03 0.  1.
    9900012    2    1    2    0    0 -0.21215291337E+02 -0.36838833259E+02  0.87427129950E+01  0.47787271286E+02  0.20000001103E+02 0.  0.
         12    1    1    2    0    0  0.21215291337E+02  0.36838833259E+02 -0.87427129950E+01  0.43400728714E+02  0.00000000000E+00 0. -1.
         11    1    3    3    0    0 -0.10804348084E+02 -0.45675822541E+01  0.52272691624E+00  0.11741805179E+02  0.51100000000E-03 0. -1.
        -11    1    3    3    0    0 -0.47889553320E+01 -0.11410434395E+02 -0.12865252715E+01  0.12441352571E+02  0.51100000000E-03 0.  1.
         12    1    3    3    0    0 -0.56219879210E+01 -0.20860816610E+02  0.95065113502E+01  0.23604113537E+02  0.00000000000E+00 0. -1.
</event>
<event>
 7    1  0.2647566E-010  0.4778727E+02  0.7816164E-02  0.1312668E+00
        -11   -1    0    0    0    0  0.00000000000E+00  0.00000000000E+00  0.45593999997E+02  0.45594000000E+02  0.51100000000E-03 0.  1.
         11   -1    0    0    0    0 -0.00000000000E+00 -0.00000000000E+00 -0.45593999997E+02  0.45594000000E+02  0.51100000000E-03 0. -1.
    9900012    2    1    2    0    0 -0.37505360844E+00 -0.29129144152E+02  0.32171035781E+02  0.47787271349E+02  0.20000001390E+02 0.  0.
         12    1    1    2    0    0  0.37505360844E+00  0.29129144152E+02 -0.32171035781E+02  0.43400728651E+02  0.00000000000E+00 0. -1.
         11    1    3    3    0    0 -0.38636626902E+01 -0.11757199339E+02  0.19034309045E+02  0.22703844317E+02  0.51100000000E-03 0. -1.
        -11    1    3    3    0    0  0.34913805235E+01 -0.13044446432E+02  0.15163642370E+02  0.20304762271E+02  0.51100000000E-03 0.  1.
         12    1    3    3    0    0 -0.27714417584E-02 -0.43274983805E+01 -0.20269156346E+01  0.47786647616E+01  0.00000000000E+00 0. -1.
</event>
<event>
 7    1  0.2647566E-010  0.4778727E+02  0.7816164E-02  0.1312668E+00
        -11   -1    0    0    0    0  0.00000000000E+00  0.00000000000E+00  0.45593999997E+02  0.45594000000E+02  0.51100000000E-03 0. -1.
         11   -1    0    0    0    0 -0.00000000000E+00 -0.00000000000E+00 -0.45593999997E+02  0.45594000000E+02  0.51100000000E-03 0.  1.
    9900012    2    1    2    0    0  0.28520032852E+02 -0.32318094648E+02  0.50766037098E+01  0.47787269351E+02  0.19999992281E+02 0.  0.
         12    1    1    2    0    0 -0.28520032852E+02  0.32318094648E+02 -0.50766037098E+01  0.43400730649E+02  0.00000000000E+00 0. -1.
         11    1    3    3    0    0  0.39601594706E+01 -0.10018767805E+01  0.58995099832E+01  0.71757117012E+01  0.51100000000E-03 0. -1.
        -11    1    3    3    0    0  0.99544381074E+01 -0.69079702054E+01 -0.10946922285E+01  0.12165904887E+02  0.51100000000E-03 0.  1.
        -12    1    3    3    0    0  0.14605435274E+02 -0.24408247662E+02  0.27178595519E+00  0.28445652763E+02  0.00000000000E+00 0.  1.
</event>
<event>
 7    1  0.2647566E-010  0.4778727E+02  0.7816164E-02  0.1312668E+00
        -11   -1    0    0    0    0  0.00000000000E+00  0.00000000000E+00  0.45593999997E+02  0.45594000000E+02  0.51100000000E-03 0.  1.
         11   -1    0    0    0    0 -0.00000000000E+00 -0.00000000000E+00 -0.45593999997E+02  0.45594000000E+02  0.51100000000E-03 0. -1.
    9900012    2    1    2    0    0  0.36033540464E+02  0.23295647789E+02  0.65207466810E+01  0.47787269804E+02  0.19999994343E+02 0.  0.
         12    1    1    2    0    0 -0.36033540464E+02 -0.23295647789E+02 -0.65207466810E+01  0.43400730196E+02  0.00000000000E+00 0. -1.
         11    1    3    3    0    0  0.12998462594E+00  0.38855224079E-01 -0.34266577751E+00  0.36854555704E+00  0.51100000000E-03 0. -1.
        -11    1    3    3    0    0  0.33721793318E+02  0.12777443274E+02  0.68949926933E+01  0.36714620054E+02  0.51100000000E-03 0.  1.
        -12    1    3    3    0    0  0.21817625205E+01  0.10479349291E+02 -0.31580234839E-01  0.10704104193E+02  0.00000000000E+00 0.  1.
</event>
<event>
 7    1  0.2647566E-010  0.4778727E+02  0.7816164E-02  0.1312668E+00
        -11   -1    0    0    0    0  0.00000000000E+00  0.00000000000E+00  0.45593999997E+02  0.45594000000E+02  0.51100000000E-03 0. -1.
         11   -1    0    0    0    0 -0.00000000000E+00 -0.00000000000E+00 -0.45593999997E+02  0.45594000000E+02  0.51100000000E-03 0.  1.
    9900012    2    1    2    0    0 -0.30343014604E+02  0.28057884107E+02  0.13254434383E+02  0.47787269285E+02  0.19999991977E+02 0.  0.
         12    1    1    2    0    0  0.30343014604E+02 -0.28057884107E+02 -0.13254434383E+02  0.43400730715E+02  0.00000000000E+00 0. -1.
         11    1    3    3    0    0 -0.15648399655E+02  0.70731475013E+01  0.81803100134E+01  0.19021548294E+02  0.51100000000E-03 0. -1.
        -11    1    3    3    0    0 -0.16411945475E+02  0.16103428953E+02  0.52635966960E+01  0.23587662639E+02  0.51100000000E-03 0.  1.
         12    1    3    3    0    0  0.17173305260E+01  0.48813076524E+01 -0.18947232632E+00  0.51780583518E+01  0.00000000000E+00 0. -1.
</event>
<event>
 7    1  0.2647566E-010  0.4778727E+02  0.7816164E-02  0.1312668E+00
        -11   -1    0    0    0    0  0.00000000000E+00  0.00000000000E+00  0.45593999997E+02  0.45594000000E+02  0.51100000000E-03 0.  1.
         11   -1    0    0    0    0 -0.00000000000E+00 -0.00000000000E+00 -0.45593999997E+02  0.45594000000E+02  0.51100000000E-03 0. -1.
    9900012    2    1    2    0    0  0.21388190910E+02  0.37730444720E+02  0.16068198029E+01  0.47787273749E+02  0.20000012333E+02 0.  0.
         12    1    1    2    0    0 -0.21388190910E+02 -0.37730444720E+02 -0.16068198029E+01  0.43400726251E+02  0.00000000000E+00 0. -1.
         11    1    3    3    0    0  0.17841771723E+02  0.23968378070E+02 -0.34363245793E+01  0.30076906297E+02  0.51100000000E-03 0.  1.
        -11    1    3    3    0    0  0.58546364882E+01  0.43753263463E+01  0.23015186383E+01  0.76627173607E+01  0.51100000000E-03 0. -1.
        -12    1    3    3    0    0 -0.23082173009E+01  0.93867403042E+01  0.27416257439E+01  0.10047650092E+02  0.00000000000E+00 0.  1.
</event>
<event>
 7    1  0.2647566E-010  0.4778727E+02  0.7816164E-02  0.1312668E+00
        -11   -1    0    0    0    0  0.00000000000E+00  0.00000000000E+00  0.45593999997E+02  0.45594000000E+02  0.51100000000E-03 0.  1.
         11   -1    0    0    0    0 -0.00000000000E+00 -0.00000000000E+00 -0.45593999997E+02  0.45594000000E+02  0.51100000000E-03 0. -1.
    9900012    2    1    2    0    0 -0.29455346661E+02 -0.11076224234E+02  0.29888513141E+02  0.47787269499E+02  0.19999992956E+02 0.  0.
         12    1    1    2    0    0  0.29455346661E+02  0.11076224234E+02 -0.29888513141E+02  0.43400730501E+02  0.00000000000E+00 0. -1.
         11    1    3    3    0    0 -0.73451017548E+01 -0.85500323247E+01  0.15191105151E+02  0.18916216548E+02  0.51100000000E-03 0. -1.
        -11    1    3    3    0    0 -0.14865615673E+02 -0.67815283983E+01  0.84076350091E+01  0.18375635594E+02  0.51100000000E-03 0.  1.
         12    1    3    3    0    0 -0.72446292327E+01  0.42553364886E+01  0.62897729811E+01  0.10495417357E+02  0.00000000000E+00 0. -1.
</event>
<event>
 7    1  0.2647566E-010  0.4778727E+02  0.7816164E-02  0.1312668E+00
        -11   -1    0    0    0    0  0.00000000000E+00  0.00000000000E+00  0.45593999997E+02  0.45594000000E+02  0.51100000000E-03 0.  1.
         11   -1    0    0    0    0 -0.00000000000E+00 -0.00000000000E+00 -0.45593999997E+02  0.45594000000E+02  0.51100000000E-03 0. -1.
    9900012    2    1    2    0    0  0.37686274897E+02 -0.20793784532E+02 -0.55665365089E+01  0.47787272824E+02  0.20000008112E+02 0.  0.
         12    1    1    2    0    0 -0.37686274897E+02  0.20793784532E+02  0.55665365089E+01  0.43400727176E+02  0.00000000000E+00 0. -1.
         11    1    3    3    0    0 -0.20495486366E+01 -0.24726252979E+00 -0.11973463966E+01  0.23865093813E+01  0.51100000000E-03 0. -1.
        -11    1    3    3    0    0  0.26920710676E+01 -0.29640851095E+01  0.76301596494E+00  0.40761796811E+01  0.51100000000E-03 0.  1.
        -12    1    3    3    0    0  0.37043752466E+02 -0.17582436893E+02 -0.51322060773E+01  0.41324583761E+02  0.00000000000E+00 0.  1.
</event>
<event>
 7    1  0.2647566E-010  0.4778727E+02  0.7816164E-02  0.1312668E+00
        -11   -1    0    0    0    0  0.00000000000E+00  0.00000000000E+00  0.45593999997E+02  0.45594000000E+02  0.51100000000E-03 0. -1.
         11   -1    0    0    0    0 -0.00000000000E+00 -0.00000000000E+00 -0.45593999997E+02  0.45594000000E+02  0.51100000000E-03 0.  1.
    9900012    2    1    2    0    0  0.23125097345E+02 -0.97537668699E+00 -0.36713783690E+02  0.47787269594E+02  0.19999993388E+02 0.  0.
         12    1    1    2    0    0 -0.23125097345E+02  0.97537668699E+00  0.36713783690E+02  0.43400730406E+02  0.00000000000E+00 0. -1.
         11    1    3    3    0    0  0.76403668004E+01  0.27960196983E+00 -0.22049816856E+01  0.79570928486E+01  0.51100000000E-03 0.  1.
        -11    1    3    3    0    0  0.35221654373E+01 -0.23530773705E+01 -0.11720181460E+01  0.43950255147E+01  0.51100000000E-03 0. -1.
        -12    1    3    3    0    0  0.11962565107E+02  0.10980987137E+01 -0.33336783859E+02  0.35435151231E+02  0.00000000000E+00 0.  1.
</event>
<event>
 7    1  0.2647566E-010  0.4778727E+02  0.7816164E-02  0.1312668E+00
        -11   -1    0    0    0    0  0.00000000000E+00  0.00000000000E+00  0.45593999997E+02  0.45594000000E+02  0.51100000000E-03 0. -1.
         11   -1    0    0    0    0 -0.00000000000E+00 -0.00000000000E+00 -0.45593999997E+02  0.45594000000E+02  0.51100000000E-03 0.  1.
    9900012    2    1    2    0    0  0.39894908829E+02 -0.63405232016E+01  0.15868755308E+02  0.47787269822E+02  0.19999994429E+02 0.  0.
         12    1    1    2    0    0 -0.39894908829E+02  0.63405232016E+01 -0.15868755308E+02  0.43400730178E+02  0.00000000000E+00 0. -1.
         11    1    3    3    0    0  0.22453530512E+02 -0.74856038045E-01  0.15420295036E+02  0.27238798342E+02  0.51100000000E-03 0.  1.
        -11    1    3    3    0    0  0.33059555368E+01  0.16298495011E+00  0.33964069074E+01  0.47425189770E+01  0.51100000000E-03 0. -1.
        -12    1    3    3    0    0  0.14135422780E+02 -0.64286521137E+01 -0.29479466354E+01  0.15805952503E+02  0.00000000000E+00 0.  1.
</event>
<event>
 7    1  0.2647566E-010  0.4778727E+02  0.7816164E-02  0.1312668E+00
        -11   -1    0    0    0    0  0.00000000000E+00  0.00000000000E+00  0.45593999997E+02  0.45594000000E+02  0.51100000000E-03 0.  1.
         11   -1    0    0    0    0 -0.00000000000E+00 -0.00000000000E+00 -0.45593999997E+02  0.45594000000E+02  0.51100000000E-03 0. -1.
    9900012    2    1    2    0    0  0.26104307679E+02 -0.31349398507E+02  0.14812274655E+02  0.47787272511E+02  0.20000006685E+02 0.  0.
         12    1    1    2    0    0 -0.26104307679E+02  0.31349398507E+02 -0.14812274655E+02  0.43400727489E+02  0.00000000000E+00 0. -1.
         11    1    3    3    0    0  0.12723928210E+02 -0.26699551967E+01  0.26679922716E+01  0.13271970195E+02  0.51100000000E-03 0. -1.
        -11    1    3    3    0    0  0.35755555434E+01 -0.68351572638E+01  0.10388188513E+00  0.77145812570E+01  0.51100000000E-03 0.  1.
         12    1    3    3    0    0  0.98048239257E+01 -0.21844286046E+02  0.12040400499E+02  0.26800721059E+02  0.00000000000E+00 0. -1.
</event>
<event>
 7    1  0.3263186E-010  0.4778727E+02  0.7816164E-02  0.1312668E+00
        -11   -1    0    0    0    0  0.00000000000E+00  0.00000000000E+00  0.45593999997E+02  0.45594000000E+02  0.51100000000E-03 0. -1.
         11   -1    0    0    0    0 -0.00000000000E+00 -0.00000000000E+00 -0.45593999997E+02  0.45594000000E+02  0.51100000000E-03 0.  1.
    9900012    2    1    2    0    0 -0.17309585729E+02 -0.37247044208E+01 -0.39624840936E+02  0.47787271891E+02  0.20000003861E+02 0.  0.
         12    1    1    2    0    0  0.17309585729E+02  0.37247044208E+01  0.39624840936E+02  0.43400728109E+02  0.00000000000E+00 0. -1.
         11    1    3    3    0    0 -0.27355140398E+01 -0.62422383846E+01 -0.95419349198E+01  0.11725915716E+02  0.51100000000E-03 0. -1.
        -11    1    3    3    0    0 -0.14603376520E+02 -0.21618770625E+01 -0.25762469037E+02  0.29692374936E+02  0.51100000000E-03 0.  1.
         12    1    3    3    0    0  0.29304829897E-01  0.46794110263E+01 -0.43204369791E+01  0.63689812385E+01  0.00000000000E+00 0. -1.
</event>
<event>
 7    1  0.2647566E-010  0.4778727E+02  0.7816164E-02  0.1312668E+00
        -11   -1    0    0    0    0  0.00000000000E+00  0.00000000000E+00  0.45593999997E+02  0.45594000000E+02  0.51100000000E-03 0.  1.
         11   -1    0    0    0    0 -0.00000000000E+00 -0.00000000000E+00 -0.45593999997E+02  0.45594000000E+02  0.51100000000E-03 0. -1.
    9900012    2    1    2    0    0  0.80948282001E+01 -0.10661586086E+01  0.42625816198E+02  0.47787272537E+02  0.20000006804E+02 0.  0.
         12    1    1    2    0    0 -0.80948282001E+01  0.10661586086E+01 -0.42625816198E+02  0.43400727463E+02  0.00000000000E+00 0. -1.
         11    1    3    3    0    0  0.46514670654E+01 -0.33541981761E+01  0.13550895427E+02  0.14714399695E+02  0.51100000000E-03 0. -1.
        -11    1    3    3    0    0  0.72348402773E+01 -0.20778095871E+00  0.27225855433E+02  0.28171497849E+02  0.51100000000E-03 0.  1.
         12    1    3    3    0    0 -0.37914791426E+01  0.24958205262E+01  0.18490653387E+01  0.49013749923E+01  0.00000000000E+00 0. -1.
</event>
<event>
 7    1  0.2647566E-010  0.4778729E+02  0.7816164E-02  0.1312668E+00
        -11   -1    0    0    0    0  0.00000000000E+00  0.00000000000E+00  0.45593999997E+02  0.45594000000E+02  0.51100000000E-03 0. -1.
         11   -1    0    0    0    0 -0.00000000000E+00 -0.00000000000E+00 -0.45593999997E+02  0.45594000000E+02  0.51100000000E-03 0.  1.
    9900012    2    1    2    0    0 -0.23903755912E+02 -0.88721684872E+01 -0.35121457507E+02  0.47787289202E+02  0.20000082787E+02 0.  0.
         12    1    1    2    0    0  0.23903755912E+02  0.88721684872E+01  0.35121457507E+02  0.43400710798E+02  0.00000000000E+00 0. -1.
         11    1    3    3    0    0 -0.97819511024E+01  0.25707703248E+01 -0.12516699713E+02  0.16092333560E+02  0.51100000000E-03 0. -1.
        -11    1    3    3    0    0 -0.79599309041E+01 -0.14213391807E+01 -0.16649559798E+02  0.18509147651E+02  0.51100000000E-03 0.  1.
        -12    1    3    3    0    0 -0.61618739059E+01 -0.10021599631E+02 -0.59551979964E+01  0.13185807991E+02  0.00000000000E+00 0.  1.
</event>
<event>
 7    1  0.2647566E-010  0.4778727E+02  0.7816164E-02  0.1312668E+00
        -11   -1    0    0    0    0  0.00000000000E+00  0.00000000000E+00  0.45593999997E+02  0.45594000000E+02  0.51100000000E-03 0. -1.
         11   -1    0    0    0    0 -0.00000000000E+00 -0.00000000000E+00 -0.45593999997E+02  0.45594000000E+02  0.51100000000E-03 0.  1.
    9900012    2    1    2    0    0 -0.10335282613E+02  0.24350550560E+02 -0.34407208400E+02  0.47787269947E+02  0.19999994994E+02 0.  0.
         12    1    1    2    0    0  0.10335282613E+02 -0.24350550560E+02  0.34407208400E+02  0.43400730053E+02  0.00000000000E+00 0. -1.
         11    1    3    3    0    0 -0.23557895531E+01 -0.14194232089E+01 -0.91019138942E+01  0.95083827995E+01  0.51100000000E-03 0. -1.
        -11    1    3    3    0    0 -0.12045746448E+01  0.38412374656E+01 -0.97621084665E+01  0.10559586513E+02  0.51100000000E-03 0.  1.
        -12    1    3    3    0    0 -0.67749184147E+01  0.21928736304E+02 -0.15543186039E+02  0.27719300634E+02  0.00000000000E+00 0.  1.
</event>
<event>
 7    1  0.2647566E-010  0.4778727E+02  0.7816164E-02  0.1312668E+00
        -11   -1    0    0    0    0  0.00000000000E+00  0.00000000000E+00  0.45593999997E+02  0.45594000000E+02  0.51100000000E-03 0.  1.
         11   -1    0    0    0    0 -0.00000000000E+00 -0.00000000000E+00 -0.45593999997E+02  0.45594000000E+02  0.51100000000E-03 0. -1.
    9900012    2    1    2    0    0  0.18025060757E+02  0.35651933295E+02  0.16960543699E+02  0.47787271831E+02  0.20000003588E+02 0.  0.
         12    1    1    2    0    0 -0.18025060757E+02 -0.35651933295E+02 -0.16960543699E+02  0.43400728169E+02  0.00000000000E+00 0. -1.
         11    1    3    3    0    0  0.56986958677E+01  0.18863051461E+02 -0.77807149513E+00  0.19720426986E+02  0.51100000000E-03 0. -1.
        -11    1    3    3    0    0  0.48576448719E+01  0.42930199167E+01  0.23817881651E+01  0.69064932369E+01  0.51100000000E-03 0.  1.
         12    1    3    3    0    0  0.74687200173E+01  0.12495861918E+02  0.15356827029E+02  0.21160351608E+02  0.00000000000E+00 0. -1.
</event>
<event>
 7    1  0.2647566E-010  0.4778727E+02  0.7816164E-02  0.1312668E+00
        -11   -1    0    0    0    0  0.00000000000E+00  0.00000000000E+00  0.45593999997E+02  0.45594000000E+02  0.51100000000E-03 0.  1.
         11   -1    0    0    0    0 -0.00000000000E+00 -0.00000000000E+00 -0.45593999997E+02  0.45594000000E+02  0.51100000000E-03 0. -1.
    9900012    2    1    2    0    0 -0.14713816027E+02 -0.25740232635E+02  0.31694908581E+02  0.47787272032E+02  0.20000004505E+02 0.  0.
         12    1    1    2    0    0  0.14713816027E+02  0.25740232635E+02 -0.31694908581E+02  0.43400727968E+02  0.00000000000E+00 0. -1.
         11    1    3    3    0    0 -0.48486114200E+01 -0.96007122931E+01  0.13038510886E+02  0.16902232859E+02  0.51100000000E-03 0. -1.
        -11    1    3    3    0    0 -0.13558322131E+02 -0.13380689762E+02  0.18037293967E+02  0.26233850869E+02  0.51100000000E-03 0.  1.
         12    1    3    3    0    0  0.36931175241E+01 -0.27588305791E+01  0.61910372762E+00  0.46511883037E+01  0.00000000000E+00 0. -1.
</event>
<event>
 7    1  0.2647566E-010  0.4778727E+02  0.7816164E-02  0.1312668E+00
        -11   -1    0    0    0    0  0.00000000000E+00  0.00000000000E+00  0.45593999997E+02  0.45594000000E+02  0.51100000000E-03 0. -1.
         11   -1    0    0    0    0 -0.00000000000E+00 -0.00000000000E+00 -0.45593999997E+02  0.45594000000E+02  0.51100000000E-03 0.  1.
    9900012    2    1    2    0    0  0.21098255131E+02 -0.23561085011E+02 -0.29721408941E+02  0.47787271367E+02  0.20000001470E+02 0.  0.
         12    1    1    2    0    0 -0.21098255131E+02  0.23561085011E+02  0.29721408941E+02  0.43400728633E+02  0.00000000000E+00 0. -1.
         11    1    3    3    0    0  0.78635058760E+01 -0.49479876383E+01 -0.31572586107E+01  0.98125220268E+01  0.51100000000E-03 0. -1.
        -11    1    3    3    0    0  0.80963320362E+01 -0.14231180451E+02 -0.80050516976E+01  0.18225200751E+02  0.51100000000E-03 0.  1.
        -12    1    3    3    0    0  0.51384172185E+01 -0.43819169221E+01 -0.18559098632E+02  0.19749548589E+02  0.00000000000E+00 0.  1.
</event>
<event>
 7    1  0.2647566E-010  0.4778733E+02  0.7816164E-02  0.1312667E+00
        -11   -1    0    0    0    0  0.00000000000E+00  0.00000000000E+00  0.45593999997E+02  0.45594000000E+02  0.51100000000E-03 0.  1.
         11   -1    0    0    0    0 -0.00000000000E+00 -0.00000000000E+00 -0.45593999997E+02  0.45594000000E+02  0.51100000000E-03 0. -1.
    9900012    2    1    2    0    0  0.84365414597E+01  0.30116682736E+02  0.30090336297E+02  0.47787330083E+02  0.20000269178E+02 0.  0.
         12    1    1    2    0    0 -0.84365414597E+01 -0.30116682736E+02 -0.30090336297E+02  0.43400669917E+02  0.00000000000E+00 0. -1.
         11    1    3    3    0    0  0.60165925624E+01  0.33387716237E+01  0.18854842815E+01  0.71345520710E+01  0.51100000000E-03 0. -1.
        -11    1    3    3    0    0  0.75313136568E+00 -0.19634893707E+00 -0.72475388777E+00  0.10634981044E+01  0.51100000000E-03 0.  1.
        -12    1    3    3    0    0  0.16668175316E+01  0.26974260049E+02  0.28929605903E+02  0.39589279907E+02  0.00000000000E+00 0.  1.
</event>
<event>
 7    1  0.2647566E-010  0.4778727E+02  0.7816164E-02  0.1312668E+00
        -11   -1    0    0    0    0  0.00000000000E+00  0.00000000000E+00  0.45593999997E+02  0.45594000000E+02  0.51100000000E-03 0.  1.
         11   -1    0    0    0    0 -0.00000000000E+00 -0.00000000000E+00 -0.45593999997E+02  0.45594000000E+02  0.51100000000E-03 0. -1.
    9900012    2    1    2    0    0  0.39858969722E+02  0.10588573227E+02 -0.13519163974E+02  0.47787272531E+02  0.20000006779E+02 0.  0.
         12    1    1    2    0    0 -0.39858969722E+02 -0.10588573227E+02  0.13519163974E+02  0.43400727469E+02  0.00000000000E+00 0. -1.
         11    1    3    3    0    0 -0.10100313390E+01 -0.46238511618E+00  0.67037194783E+00  0.12974444539E+01  0.51100000000E-03 0. -1.
        -11    1    3    3    0    0  0.92784811651E+01  0.21498036982E+01 -0.92914628043E+01  0.13305756272E+02  0.51100000000E-03 0.  1.
        -12    1    3    3    0    0  0.31590519896E+02  0.89011546449E+01 -0.48980731172E+01  0.33184071805E+02  0.00000000000E+00 0.  1.
</event>
<event>
 7    1  0.2647566E-010  0.4778727E+02  0.7816164E-02  0.1312668E+00
        -11   -1    0    0    0    0  0.00000000000E+00  0.00000000000E+00  0.45593999997E+02  0.45594000000E+02  0.51100000000E-03 0. -1.
         11   -1    0    0    0    0 -0.00000000000E+00 -0.00000000000E+00 -0.45593999997E+02  0.45594000000E+02  0.51100000000E-03 0.  1.
    9900012    2    1    2    0    0 -0.21405241823E+02  0.36118027928E+02 -0.10996684063E+02  0.47787269830E+02  0.19999994464E+02 0.  0.
         12    1    1    2    0    0  0.21405241823E+02 -0.36118027928E+02  0.10996684063E+02  0.43400730170E+02  0.00000000000E+00 0. -1.
         11    1    3    3    0    0 -0.46899323676E+01  0.24709429463E+00 -0.10334449785E+01  0.48087971456E+01  0.51100000000E-03 0. -1.
        -11    1    3    3    0    0 -0.16953605981E+02  0.35006923633E+02 -0.65428381707E+01  0.39442593597E+02  0.51100000000E-03 0.  1.
         12    1    3    3    0    0  0.23829652566E+00  0.86400999964E+00 -0.34204009140E+01  0.35358790881E+01  0.00000000000E+00 0. -1.
</event>
<event>
 7    1  0.2647566E-010  0.4778726E+02  0.7816164E-02  0.1312668E+00
        -11   -1    0    0    0    0  0.00000000000E+00  0.00000000000E+00  0.45593999997E+02  0.45594000000E+02  0.51100000000E-03 0.  1.
         11   -1    0    0    0    0 -0.00000000000E+00 -0.00000000000E+00 -0.45593999997E+02  0.45594000000E+02  0.51100000000E-03 0. -1.
    9900012    2    1    2    0    0  0.16957871504E+02 -0.18919068850E+02  0.35186980724E+02  0.47787260553E+02  0.19999952163E+02 0.  0.
         12    1    1    2    0    0 -0.16957871504E+02  0.18919068850E+02 -0.35186980724E+02  0.43400739447E+02  0.00000000000E+00 0. -1.
         11    1    3    3    0    0  0.32088766826E+01 -0.42353317082E+01  0.13127324997E+01  0.54734076333E+01  0.51100000000E-03 0. -1.
        -11    1    3    3    0    0  0.10222752933E+02 -0.48299633692E+01  0.65794307936E+01  0.13081365889E+02  0.51100000000E-03 0.  1.
         12    1    3    3    0    0  0.35262418884E+01 -0.98537737727E+01  0.27294817431E+02  0.29232487031E+02  0.00000000000E+00 0. -1.
</event>
<event>
 7    1  0.2647566E-010  0.4778726E+02  0.7816164E-02  0.1312668E+00
        -11   -1    0    0    0    0  0.00000000000E+00  0.00000000000E+00  0.45593999997E+02  0.45594000000E+02  0.51100000000E-03 0.  1.
         11   -1    0    0    0    0 -0.00000000000E+00 -0.00000000000E+00 -0.45593999997E+02  0.45594000000E+02  0.51100000000E-03 0. -1.
    9900012    2    1    2    0    0 -0.20203165558E+02  0.28735187576E+02  0.25490094949E+02  0.47787264476E+02  0.19999970050E+02 0.  0.
         12    1    1    2    0    0  0.20203165558E+02 -0.28735187576E+02 -0.25490094949E+02  0.43400735524E+02  0.00000000000E+00 0. -1.
         11    1    3    3    0    0 -0.10724134778E+02  0.18234648671E+02  0.48467877631E+01  0.21702553554E+02  0.51100000000E-03 0. -1.
        -11    1    3    3    0    0 -0.36251263204E+01  0.12688892458E+01  0.16708859063E+01  0.41884938498E+01  0.51100000000E-03 0.  1.
        -12    1    3    3    0    0 -0.58539044595E+01  0.92316496592E+01  0.18972421279E+02  0.21896217072E+02  0.00000000000E+00 0.  1.
</event>
<event>
 7    1  0.2647566E-010  0.4778727E+02  0.7816164E-02  0.1312668E+00
        -11   -1    0    0    0    0  0.00000000000E+00  0.00000000000E+00  0.45593999997E+02  0.45594000000E+02  0.51100000000E-03 0.  1.
         11   -1    0    0    0    0 -0.00000000000E+00 -0.00000000000E+00 -0.45593999997E+02  0.45594000000E+02  0.51100000000E-03 0. -1.
    9900012    2    1    2    0    0  0.39293768248E+02 -0.98127764683E+00  0.18402723616E+02  0.47787269990E+02  0.19999995191E+02 0.  0.
         12    1    1    2    0    0 -0.39293768248E+02  0.98127764683E+00 -0.18402723616E+02  0.43400730010E+02  0.00000000000E+00 0. -1.
         11    1    3    3    0    0  0.16967186271E+02 -0.21846885982E+01  0.26808230590E+01  0.17316035538E+02  0.51100000000E-03 0. -1.
        -11    1    3    3    0    0  0.14074808391E+02 -0.57258829983E+01  0.10692573212E+02  0.18580018556E+02  0.51100000000E-03 0.  1.
         12    1    3    3    0    0  0.82517735858E+01  0.69292939497E+01  0.50293273446E+01  0.11891215896E+02  0.00000000000E+00 0. -1.
</event>
<event>
 7    1  0.2647566E-010  0.4778727E+02  0.7816164E-02  0.1312668E+00
        -11   -1    0    0    0    0  0.00000000000E+00  0.00000000000E+00  0.45593999997E+02  0.45594000000E+02  0.51100000000E-03 0.  1.
         11   -1    0    0    0    0 -0.00000000000E+00 -0.00000000000E+00 -0.45593999997E+02  0.45594000000E+02  0.51100000000E-03 0. -1.
    9900012    2    1    2    0    0 -0.33717792196E+01  0.18601057262E+02  0.39067317172E+02  0.47787268470E+02  0.19999988261E+02 0.  0.
         12    1    1    2    0    0  0.33717792196E+01 -0.18601057262E+02 -0.39067317172E+02  0.43400731530E+02  0.00000000000E+00 0. -1.
         11    1    3    3    0    0 -0.29090480141E+01  0.51183105033E+01  0.20858668725E+02  0.21673572017E+02  0.51100000000E-03 0. -1.
        -11    1    3    3    0    0 -0.17409310342E+01  0.32421282190E+01  0.14791791278E+02  0.15242681054E+02  0.51100000000E-03 0.  1.
         12    1    3    3    0    0  0.12781998287E+01  0.10240618540E+02  0.34168571694E+01  0.10871015399E+02  0.00000000000E+00 0. -1.
</event>
<event>
 7    1  0.2647566E-010  0.4778727E+02  0.7816164E-02  0.1312668E+00
        -11   -1    0    0    0    0  0.00000000000E+00  0.00000000000E+00  0.45593999997E+02  0.45594000000E+02  0.51100000000E-03 0.  1.
         11   -1    0    0    0    0 -0.00000000000E+00 -0.00000000000E+00 -0.45593999997E+02  0.45594000000E+02  0.51100000000E-03 0. -1.
    9900012    2    1    2    0    0  0.66610277446E+01  0.89838547534E+01  0.41935000146E+02  0.47787272194E+02  0.20000005239E+02 0.  0.
         12    1    1    2    0    0 -0.66610277446E+01 -0.89838547534E+01 -0.41935000146E+02  0.43400727806E+02  0.00000000000E+00 0. -1.
         11    1    3    3    0    0 -0.29084776432E+01 -0.29166905520E+01  0.18683136525E+02  0.19131803801E+02  0.51100000000E-03 0. -1.
        -11    1    3    3    0    0  0.12334540004E+01  0.57918667728E+01  0.11975617232E+02  0.13359735695E+02  0.51100000000E-03 0.  1.
         12    1    3    3    0    0  0.83360513873E+01  0.61086785326E+01  0.11276246389E+02  0.15295732698E+02  0.00000000000E+00 0. -1.
</event>
<event>
 7    1  0.2647566E-010  0.4778727E+02  0.7816164E-02  0.1312668E+00
        -11   -1    0    0    0    0  0.00000000000E+00  0.00000000000E+00  0.45593999997E+02  0.45594000000E+02  0.51100000000E-03 0.  1.
         11   -1    0    0    0    0 -0.00000000000E+00 -0.00000000000E+00 -0.45593999997E+02  0.45594000000E+02  0.51100000000E-03 0. -1.
    9900012    2    1    2    0    0  0.40952861665E+02  0.11799059674E+02  0.82017665721E+01  0.47787266565E+02  0.19999979578E+02 0.  0.
         12    1    1    2    0    0 -0.40952861665E+02 -0.11799059674E+02 -0.82017665721E+01  0.43400733435E+02  0.00000000000E+00 0. -1.
         11    1    3    3    0    0 -0.63796082153E+00  0.16117010801E+00  0.16502947616E+01  0.17766380821E+01  0.51100000000E-03 0. -1.
        -11    1    3    3    0    0  0.86964812008E+01  0.32696703418E+00 -0.41161199838E+01  0.96269484625E+01  0.51100000000E-03 0.  1.
        -12    1    3    3    0    0  0.32894341286E+02  0.11310922532E+02  0.10667591794E+02  0.36383680021E+02  0.00000000000E+00 0.  1.
</event>
<event>
 7    1  0.2647566E-010  0.4778727E+02  0.7816164E-02  0.1312668E+00
        -11   -1    0    0    0    0  0.00000000000E+00  0.00000000000E+00  0.45593999997E+02  0.45594000000E+02  0.51100000000E-03 0.  1.
         11   -1    0    0    0    0 -0.00000000000E+00 -0.00000000000E+00 -0.45593999997E+02  0.45594000000E+02  0.51100000000E-03 0. -1.
    9900012    2    1    2    0    0 -0.17288847647E+01 -0.39734166298E+02  0.17373268982E+02  0.47787268565E+02  0.19999988696E+02 0.  0.
         12    1    1    2    0    0  0.17288847647E+01  0.39734166298E+02 -0.17373268982E+02  0.43400731435E+02  0.00000000000E+00 0. -1.
         11    1    3    3    0    0  0.59295577567E+00  0.18673352940E+01  0.43376779955E+00  0.20066620087E+01  0.51100000000E-03 0. -1.
        -11    1    3    3    0    0 -0.15258202295E+01 -0.37209845082E+01 -0.53337597437E+00  0.40568883734E+01  0.51100000000E-03 0.  1.
        -12    1    3    3    0    0 -0.79602031090E+00 -0.37880517084E+02  0.17472877157E+02  0.41723718183E+02  0.00000000000E+00 0.  1.
</event>
<event>
 7    1  0.2647566E-010  0.4778727E+02  0.7816164E-02  0.1312668E+00
        -11   -1    0    0    0    0  0.00000000000E+00  0.00000000000E+00  0.45593999997E+02  0.45594000000E+02  0.51100000000E-03 0. -1.
         11   -1    0    0    0    0 -0.00000000000E+00 -0.00000000000E+00 -0.45593999997E+02  0.45594000000E+02  0.51100000000E-03 0.  1.
    9900012    2    1    2    0    0  0.13572651575E+02  0.36142068179E+02 -0.19828194923E+02  0.47787271009E+02  0.19999999839E+02 0.  0.
         12    1    1    2    0    0 -0.13572651575E+02 -0.36142068179E+02  0.19828194923E+02  0.43400728991E+02  0.00000000000E+00 0. -1.
         11    1    3    3    0    0 -0.49178059142E+01  0.11178474503E+02 -0.44150826905E+01  0.12985994866E+02  0.51100000000E-03 0. -1.
        -11    1    3    3    0    0  0.39332016090E+01  0.71805772600E+01 -0.33491574975E+01  0.88457685300E+01  0.51100000000E-03 0.  1.
         12    1    3    3    0    0  0.14557255880E+02  0.17783016416E+02 -0.12063954735E+02  0.25955507613E+02  0.00000000000E+00 0. -1.
</event>
<event>
 7    1  0.2647566E-010  0.4778727E+02  0.7816164E-02  0.1312668E+00
        -11   -1    0    0    0    0  0.00000000000E+00  0.00000000000E+00  0.45593999997E+02  0.45594000000E+02  0.51100000000E-03 0.  1.
         11   -1    0    0    0    0 -0.00000000000E+00 -0.00000000000E+00 -0.45593999997E+02  0.45594000000E+02  0.51100000000E-03 0. -1.
    9900012    2    1    2    0    0  0.52152930385E+01 -0.22378572689E+02  0.36818791994E+02  0.47787271423E+02  0.20000001728E+02 0.  0.
         12    1    1    2    0    0 -0.52152930385E+01  0.22378572689E+02 -0.36818791994E+02  0.43400728577E+02  0.00000000000E+00 0. -1.
         11    1    3    3    0    0  0.20197077979E+01 -0.56248823515E+00  0.29503321987E-01  0.20967792709E+01  0.51100000000E-03 0. -1.
        -11    1    3    3    0    0  0.77157799757E+01 -0.40908449323E+01  0.10387609442E+02  0.13570950706E+02  0.51100000000E-03 0.  1.
        -12    1    3    3    0    0 -0.45201947351E+01 -0.17725239521E+02  0.26401679231E+02  0.32119541446E+02  0.00000000000E+00 0.  1.
</event>
<event>
 7    1  0.2647566E-010  0.4778727E+02  0.7816164E-02  0.1312668E+00
        -11   -1    0    0    0    0  0.00000000000E+00  0.00000000000E+00  0.45593999997E+02  0.45594000000E+02  0.51100000000E-03 0. -1.
         11   -1    0    0    0    0 -0.00000000000E+00 -0.00000000000E+00 -0.45593999997E+02  0.45594000000E+02  0.51100000000E-03 0.  1.
    9900012    2    1    2    0    0  0.28833101207E+02 -0.17574555249E+02 -0.27265557348E+02  0.47787270341E+02  0.19999996793E+02 0.  0.
         12    1    1    2    0    0 -0.28833101207E+02  0.17574555249E+02  0.27265557348E+02  0.43400729659E+02  0.00000000000E+00 0. -1.
         11    1    3    3    0    0  0.34838101434E+00 -0.29450612366E+01 -0.20875453102E+01  0.36266514448E+01  0.51100000000E-03 0. -1.
        -11    1    3    3    0    0  0.11985575389E+02 -0.14115064025E+02 -0.19011815735E+02  0.26539370521E+02  0.51100000000E-03 0.  1.
         12    1    3    3    0    0  0.16499144804E+02 -0.51442998731E+00 -0.61661963031E+01  0.17621248376E+02  0.00000000000E+00 0. -1.
</event>
<event>
 7    1  0.2647566E-010  0.4778729E+02  0.7816164E-02  0.1312668E+00
        -11   -1    0    0    0    0  0.00000000000E+00  0.00000000000E+00  0.45593999997E+02  0.45594000000E+02  0.51100000000E-03 0. -1.
         11   -1    0    0    0    0 -0.00000000000E+00 -0.00000000000E+00 -0.45593999997E+02  0.45594000000E+02  0.51100000000E-03 0.  1.
    9900012    2    1    2    0    0 -0.15138235928E+02 -0.35961038347E+02 -0.19006822088E+02  0.47787288579E+02  0.20000079946E+02 0.  0.
         12    1    1    2    0    0  0.15138235928E+02  0.35961038347E+02  0.19006822088E+02  0.43400711421E+02  0.00000000000E+00 0. -1.
         11    1    3    3    0    0 -0.52744365250E+01 -0.52083937838E+01  0.13978262561E+01  0.75432728286E+01  0.51100000000E-03 0. -1.
        -11    1    3    3    0    0 -0.11257504305E+02 -0.16991197609E+02 -0.88483921066E+01  0.22219951452E+02  0.51100000000E-03 0.  1.
        -12    1    3    3    0    0  0.13937049023E+01 -0.13761446953E+02 -0.11556256238E+02  0.18024064299E+02  0.00000000000E+00 0.  1.
</event>
<event>
 7    1  0.2647566E-010  0.4778728E+02  0.7816164E-02  0.1312668E+00
        -11   -1    0    0    0    0  0.00000000000E+00  0.00000000000E+00  0.45593999997E+02  0.45594000000E+02  0.51100000000E-03 0.  1.
         11   -1    0    0    0    0 -0.00000000000E+00 -0.00000000000E+00 -0.45593999997E+02  0.45594000000E+02  0.51100000000E-03 0. -1.
    9900012    2    1    2    0    0 -0.31765927418E+02 -0.23873334404E+02  0.17453151690E+02  0.47787277147E+02  0.20000027823E+02 0.  0.
         12    1    1    2    0    0  0.31765927418E+02  0.23873334404E+02 -0.17453151690E+02  0.43400722853E+02  0.00000000000E+00 0. -1.
         11    1    3    3    0    0 -0.11867519018E+02 -0.99282282384E+01  0.69195533620E+01  0.16949570572E+02  0.51100000000E-03 0. -1.
        -11    1    3    3    0    0 -0.16492609961E+02 -0.12904212263E+02  0.14527417215E+02  0.25486677475E+02  0.51100000000E-03 0.  1.
         12    1    3    3    0    0 -0.34057984386E+01 -0.10408939021E+01 -0.39938188877E+01  0.53510290998E+01  0.00000000000E+00 0. -1.
</event>
<event>
 7    1  0.2647566E-010  0.4778727E+02  0.7816164E-02  0.1312668E+00
        -11   -1    0    0    0    0  0.00000000000E+00  0.00000000000E+00  0.45593999997E+02  0.45594000000E+02  0.51100000000E-03 0.  1.
         11   -1    0    0    0    0 -0.00000000000E+00 -0.00000000000E+00 -0.45593999997E+02  0.45594000000E+02  0.51100000000E-03 0. -1.
    9900012    2    1    2    0    0 -0.16803921612E+02  0.19465467329E+02  0.34962081603E+02  0.47787270169E+02  0.19999996008E+02 0.  0.
         12    1    1    2    0    0  0.16803921612E+02 -0.19465467329E+02 -0.34962081603E+02  0.43400729831E+02  0.00000000000E+00 0. -1.
         11    1    3    3    0    0 -0.33314646884E+01  0.36310755020E+00  0.48558865133E+01  0.59000117080E+01  0.51100000000E-03 0. -1.
        -11    1    3    3    0    0 -0.11300797131E+02  0.86356824909E+01  0.27382904208E+02  0.30856222565E+02  0.51100000000E-03 0.  1.
         12    1    3    3    0    0 -0.21716597925E+01  0.10466677288E+02  0.27232908817E+01  0.11031035896E+02  0.00000000000E+00 0. -1.
</event>
<event>
 7    1  0.2647566E-010  0.4778721E+02  0.7816164E-02  0.1312668E+00
        -11   -1    0    0    0    0  0.00000000000E+00  0.00000000000E+00  0.45593999997E+02  0.45594000000E+02  0.51100000000E-03 0. -1.
         11   -1    0    0    0    0 -0.00000000000E+00 -0.00000000000E+00 -0.45593999997E+02  0.45594000000E+02  0.51100000000E-03 0.  1.
    9900012    2    1    2    0    0  0.22414990586E+02  0.37028145157E+02 -0.31801596657E+01  0.47787207930E+02  0.19999712236E+02 0.  0.
         12    1    1    2    0    0 -0.22414990586E+02 -0.37028145157E+02  0.31801596657E+01  0.43400792070E+02  0.00000000000E+00 0. -1.
         11    1    3    3    0    0 -0.11549005830E+01 -0.87148451832E+00 -0.14778468211E+01  0.20681663642E+01  0.51100000000E-03 0. -1.
        -11    1    3    3    0    0  0.10374461424E+01  0.38678462299E+01  0.24478836954E+01  0.46934703370E+01  0.51100000000E-03 0.  1.
        -12    1    3    3    0    0  0.22532445027E+02  0.34031783446E+02 -0.41501965400E+01  0.41025571229E+02  0.00000000000E+00 0.  1.
</event>
<event>
 7    1  0.2647566E-010  0.4778727E+02  0.7816164E-02  0.1312668E+00
        -11   -1    0    0    0    0  0.00000000000E+00  0.00000000000E+00  0.45593999997E+02  0.45594000000E+02  0.51100000000E-03 0.  1.
         11   -1    0    0    0    0 -0.00000000000E+00 -0.00000000000E+00 -0.45593999997E+02  0.45594000000E+02  0.51100000000E-03 0. -1.
    9900012    2    1    2    0    0  0.43376651804E+02 -0.10450656722E+01 -0.99849275848E+00  0.47787273372E+02  0.20000010614E+02 0.  0.
         12    1    1    2    0    0 -0.43376651804E+02  0.10450656722E+01  0.99849275848E+00  0.43400726628E+02  0.00000000000E+00 0. -1.
         11    1    3    3    0    0  0.20328904198E+02 -0.22469055086E+01 -0.13536750322E+01  0.20497447808E+02  0.51100000000E-03 0.  1.
        -11    1    3    3    0    0  0.71511836679E+01 -0.46276438148E+01  0.48095941798E+01  0.97819584728E+01  0.51100000000E-03 0. -1.
         12    1    3    3    0    0  0.15896563938E+02  0.58294836513E+01 -0.44544119061E+01  0.17507867092E+02  0.00000000000E+00 0. -1.
</event>
<event>
 7    1  0.2647566E-010  0.4778727E+02  0.7816164E-02  0.1312668E+00
        -11   -1    0    0    0    0  0.00000000000E+00  0.00000000000E+00  0.45593999997E+02  0.45594000000E+02  0.51100000000E-03 0. -1.
         11   -1    0    0    0    0 -0.00000000000E+00 -0.00000000000E+00 -0.45593999997E+02  0.45594000000E+02  0.51100000000E-03 0.  1.
    9900012    2    1    2    0    0  0.14857922142E+02  0.35599765489E+02  0.19887736424E+02  0.47787271742E+02  0.20000003182E+02 0.  0.
         12    1    1    2    0    0 -0.14857922142E+02 -0.35599765489E+02 -0.19887736424E+02  0.43400728258E+02  0.00000000000E+00 0. -1.
         11    1    3    3    0    0  0.10883916129E+01  0.21800016453E+01 -0.27533526975E+00  0.24521038413E+01  0.51100000000E-03 0. -1.
        -11    1    3    3    0    0  0.16187105033E+02  0.31067780894E+02  0.12907753498E+02  0.37334159689E+02  0.51100000000E-03 0.  1.
         12    1    3    3    0    0 -0.24175745046E+01  0.23519829489E+01  0.72553181965E+01  0.80010082121E+01  0.00000000000E+00 0. -1.
</event>
<event>
 7    1  0.2647566E-010  0.4778728E+02  0.7816164E-02  0.1312668E+00
        -11   -1    0    0    0    0  0.00000000000E+00  0.00000000000E+00  0.45593999997E+02  0.45594000000E+02  0.51100000000E-03 0.  1.
         11   -1    0    0    0    0 -0.00000000000E+00 -0.00000000000E+00 -0.45593999997E+02  0.45594000000E+02  0.51100000000E-03 0. -1.
    9900012    2    1    2    0    0  0.34629042891E+02 -0.20835946454E+02  0.15821366970E+02  0.47787275018E+02  0.20000018117E+02 0.  0.
         12    1    1    2    0    0 -0.34629042891E+02  0.20835946454E+02 -0.15821366970E+02  0.43400724982E+02  0.00000000000E+00 0. -1.
         11    1    3    3    0    0  0.45408144073E+00  0.63361967264E+00 -0.10345047942E+01  0.12953240038E+01  0.51100000000E-03 0. -1.
        -11    1    3    3    0    0  0.24139794109E+01 -0.84877265323E+01  0.52638417123E+01  0.10275058546E+02  0.51100000000E-03 0.  1.
        -12    1    3    3    0    0  0.31760982039E+02 -0.12981839594E+02  0.11592030052E+02  0.36216892469E+02  0.00000000000E+00 0.  1.
</event>
<event>
 7    1  0.2647566E-010  0.4778727E+02  0.7816164E-02  0.1312668E+00
        -11   -1    0    0    0    0  0.00000000000E+00  0.00000000000E+00  0.45593999997E+02  0.45594000000E+02  0.51100000000E-03 0.  1.
         11   -1    0    0    0    0 -0.00000000000E+00 -0.00000000000E+00 -0.45593999997E+02  0.45594000000E+02  0.51100000000E-03 0. -1.
    9900012    2    1    2    0    0 -0.10307546028E+02  0.41880648896E+02  0.48362110398E+01  0.47787271961E+02  0.20000004180E+02 0.  0.
         12    1    1    2    0    0  0.10307546028E+02 -0.41880648896E+02 -0.48362110398E+01  0.43400728039E+02  0.00000000000E+00 0. -1.
         11    1    3    3    0    0 -0.20702601988E+00 -0.87903241396E+00 -0.68661107894E+00  0.11344570475E+01  0.51100000000E-03 0. -1.
        -11    1    3    3    0    0  0.24523666845E+01  0.20204065808E+02  0.43546706674E+01  0.20813013583E+02  0.51100000000E-03 0.  1.
        -12    1    3    3    0    0 -0.12552886692E+02  0.22555615502E+02  0.11681514513E+01  0.25839801331E+02  0.00000000000E+00 0.  1.
</event>
<event>
 7    1  0.2647566E-010  0.4778727E+02  0.7816164E-02  0.1312668E+00
        -11   -1    0    0    0    0  0.00000000000E+00  0.00000000000E+00  0.45593999997E+02  0.45594000000E+02  0.51100000000E-03 0.  1.
         11   -1    0    0    0    0 -0.00000000000E+00 -0.00000000000E+00 -0.45593999997E+02  0.45594000000E+02  0.51100000000E-03 0. -1.
    9900012    2    1    2    0    0 -0.23032052004E+02 -0.34878516017E+02  0.11689188766E+02  0.47787269210E+02  0.19999991638E+02 0.  0.
         12    1    1    2    0    0  0.23032052004E+02  0.34878516017E+02 -0.11689188766E+02  0.43400730790E+02  0.00000000000E+00 0. -1.
         11    1    3    3    0    0 -0.17125125935E+01 -0.18133717981E+02  0.52780647271E+01  0.18963712577E+02  0.51100000000E-03 0. -1.
        -11    1    3    3    0    0 -0.65074897010E+01 -0.82966331202E+01  0.51233610388E+01  0.11723070073E+02  0.51100000000E-03 0.  1.
         12    1    3    3    0    0 -0.14812049710E+02 -0.84481649161E+01  0.12877630001E+01  0.17100486560E+02  0.00000000000E+00 0. -1.
</event>
<event>
 7    1  0.2647566E-010  0.4778727E+02  0.7816164E-02  0.1312668E+00
        -11   -1    0    0    0    0  0.00000000000E+00  0.00000000000E+00  0.45593999997E+02  0.45594000000E+02  0.51100000000E-03 0.  1.
         11   -1    0    0    0    0 -0.00000000000E+00 -0.00000000000E+00 -0.45593999997E+02  0.45594000000E+02  0.51100000000E-03 0. -1.
    9900012    2    1    2    0    0  0.18811338557E+02 -0.24893419345E+02  0.30167440037E+02  0.47787271626E+02  0.20000002653E+02 0.  0.
         12    1    1    2    0    0 -0.18811338557E+02  0.24893419345E+02 -0.30167440037E+02  0.43400728374E+02  0.00000000000E+00 0. -1.
         11    1    3    3    0    0  0.73629713560E+01 -0.13723587949E+01  0.31843079317E+01  0.81385829919E+01  0.51100000000E-03 0. -1.
        -11    1    3    3    0    0  0.13292253135E+02 -0.14953660163E+02  0.16133700441E+02  0.25701988947E+02  0.51100000000E-03 0.  1.
         12    1    3    3    0    0 -0.18438859339E+01 -0.85674003865E+01  0.10849431664E+02  0.13946699687E+02  0.00000000000E+00 0. -1.
</event>
<event>
 7    1  0.2647566E-010  0.4778727E+02  0.7816164E-02  0.1312668E+00
        -11   -1    0    0    0    0  0.00000000000E+00  0.00000000000E+00  0.45593999997E+02  0.45594000000E+02  0.51100000000E-03 0. -1.
         11   -1    0    0    0    0 -0.00000000000E+00 -0.00000000000E+00 -0.45593999997E+02  0.45594000000E+02  0.51100000000E-03 0.  1.
    9900012    2    1    2    0    0 -0.42571043399E+02  0.69969503809E+01 -0.47299226111E+01  0.47787271681E+02  0.20000002903E+02 0.  0.
         12    1    1    2    0    0  0.42571043399E+02 -0.69969503809E+01  0.47299226111E+01  0.43400728319E+02  0.00000000000E+00 0. -1.
         11    1    3    3    0    0 -0.37993500204E+01  0.39671920387E+01 -0.43321034705E+01  0.69957697211E+01  0.51100000000E-03 0. -1.
        -11    1    3    3    0    0 -0.17850064299E+02  0.70415122303E+01 -0.26464162750E+01  0.19370369365E+02  0.51100000000E-03 0.  1.
        -12    1    3    3    0    0 -0.20921629080E+02 -0.40117538881E+01  0.22485971344E+01  0.21421132596E+02  0.00000000000E+00 0.  1.
</event>
<event>
 7    1  0.2647566E-010  0.4778727E+02  0.7816164E-02  0.1312668E+00
        -11   -1    0    0    0    0  0.00000000000E+00  0.00000000000E+00  0.45593999997E+02  0.45594000000E+02  0.51100000000E-03 0. -1.
         11   -1    0    0    0    0 -0.00000000000E+00 -0.00000000000E+00 -0.45593999997E+02  0.45594000000E+02  0.51100000000E-03 0.  1.
    9900012    2    1    2    0    0  0.14826739293E+02 -0.78733770979E+01 -0.40022506656E+02  0.47787270697E+02  0.19999998415E+02 0.  0.
         12    1    1    2    0    0 -0.14826739293E+02  0.78733770979E+01  0.40022506656E+02  0.43400729303E+02  0.00000000000E+00 0. -1.
         11    1    3    3    0    0  0.86599596083E+01 -0.30347393573E+01 -0.19880665885E+02  0.21896242136E+02  0.51100000000E-03 0. -1.
        -11    1    3    3    0    0 -0.32090526631E+00  0.30486907768E+01 -0.13178329042E+02  0.13530183008E+02  0.51100000000E-03 0.  1.
         12    1    3    3    0    0  0.64876849510E+01 -0.78873285174E+01 -0.69635117298E+01  0.12360845553E+02  0.00000000000E+00 0. -1.
</event>
<event>
 7    1  0.2647566E-010  0.4778726E+02  0.7816164E-02  0.1312668E+00
        -11   -1    0    0    0    0  0.00000000000E+00  0.00000000000E+00  0.45593999997E+02  0.45594000000E+02  0.51100000000E-03 0. -1.
         11   -1    0    0    0    0 -0.00000000000E+00 -0.00000000000E+00 -0.45593999997E+02  0.45594000000E+02  0.51100000000E-03 0.  1.
    9900012    2    1    2    0    0 -0.16321254236E+02 -0.33395023183E+02 -0.22405654573E+02  0.47787259568E+02  0.19999947673E+02 0.  0.
         12    1    1    2    0    0  0.16321254236E+02  0.33395023183E+02  0.22405654573E+02  0.43400740432E+02  0.00000000000E+00 0. -1.
         11    1    3    3    0    0 -0.25385363585E+01 -0.14190984207E+02 -0.93839195708E+00  0.14446756707E+02  0.51100000000E-03 0. -1.
        -11    1    3    3    0    0 -0.11975872302E+02 -0.10190655353E+02 -0.99663921495E+01  0.18617194919E+02  0.51100000000E-03 0.  1.
        -12    1    3    3    0    0 -0.18068455750E+01 -0.90133836230E+01 -0.11500870466E+02  0.14723307942E+02  0.00000000000E+00 0.  1.
</event>
<event>
 7    1  0.2647566E-010  0.4778727E+02  0.7816164E-02  0.1312668E+00
        -11   -1    0    0    0    0  0.00000000000E+00  0.00000000000E+00  0.45593999997E+02  0.45594000000E+02  0.51100000000E-03 0.  1.
         11   -1    0    0    0    0 -0.00000000000E+00 -0.00000000000E+00 -0.45593999997E+02  0.45594000000E+02  0.51100000000E-03 0. -1.
    9900012    2    1    2    0    0 -0.26301598715E+02  0.78053412459E+01  0.33629243870E+02  0.47787268553E+02  0.19999988639E+02 0.  0.
         12    1    1    2    0    0  0.26301598715E+02 -0.78053412459E+01 -0.33629243870E+02  0.43400731447E+02  0.00000000000E+00 0. -1.
         11    1    3    3    0    0 -0.14505481666E+02  0.28689983184E+01  0.13212099737E+02  0.19829264470E+02  0.51100000000E-03 0.  1.
        -11    1    3    3    0    0 -0.44159792501E+01 -0.46894022554E+01  0.41343062384E+01  0.76540090531E+01  0.51100000000E-03 0. -1.
         12    1    3    3    0    0 -0.73801377988E+01  0.96257451828E+01  0.16282837894E+02  0.20303995029E+02  0.00000000000E+00 0. -1.
</event>
<event>
 7    1  0.2647566E-010  0.4778727E+02  0.7816164E-02  0.1312668E+00
        -11   -1    0    0    0    0  0.00000000000E+00  0.00000000000E+00  0.45593999997E+02  0.45594000000E+02  0.51100000000E-03 0.  1.
         11   -1    0    0    0    0 -0.00000000000E+00 -0.00000000000E+00 -0.45593999997E+02  0.45594000000E+02  0.51100000000E-03 0. -1.
    9900012    2    1    2    0    0  0.24723836732E+01 -0.21428922728E+02  0.37660482755E+02  0.47787269918E+02  0.19999994866E+02 0.  0.
         12    1    1    2    0    0 -0.24723836732E+01  0.21428922728E+02 -0.37660482755E+02  0.43400730082E+02  0.00000000000E+00 0. -1.
         11    1    3    3    0    0 -0.35874630308E+00 -0.34778120972E+01 -0.98189402076E+00  0.36315275054E+01  0.51100000000E-03 0. -1.
        -11    1    3    3    0    0 -0.40255905135E+01 -0.37897180027E+01  0.12039018959E+02  0.13247842061E+02  0.51100000000E-03 0.  1.
         12    1    3    3    0    0  0.68567204898E+01 -0.14161392628E+02  0.26603357817E+02  0.30907900352E+02  0.00000000000E+00 0. -1.
</event>
<event>
 7    1  0.2647566E-010  0.4778727E+02  0.7816164E-02  0.1312668E+00
        -11   -1    0    0    0    0  0.00000000000E+00  0.00000000000E+00  0.45593999997E+02  0.45594000000E+02  0.51100000000E-03 0. -1.
         11   -1    0    0    0    0 -0.00000000000E+00 -0.00000000000E+00 -0.45593999997E+02  0.45594000000E+02  0.51100000000E-03 0.  1.
    9900012    2    1    2    0    0  0.27987088988E+02  0.31039362153E+02 -0.11700603305E+02  0.47787271083E+02  0.20000000175E+02 0.  0.
         12    1    1    2    0    0 -0.27987088988E+02 -0.31039362153E+02  0.11700603305E+02  0.43400728917E+02  0.00000000000E+00 0. -1.
         11    1    3    3    0    0  0.40786736896E+01  0.22406798987E+01  0.17727046415E+01  0.49798300656E+01  0.51100000000E-03 0. -1.
        -11    1    3    3    0    0  0.15404210551E+00  0.10504428545E+02 -0.50977971654E+01  0.11677083721E+02  0.51100000000E-03 0.  1.
        -12    1    3    3    0    0  0.23754373192E+02  0.18294253709E+02 -0.83755107811E+01  0.31130357296E+02  0.00000000000E+00 0.  1.
</event>
<event>
 7    1  0.2647566E-010  0.4778727E+02  0.7816164E-02  0.1312668E+00
        -11   -1    0    0    0    0  0.00000000000E+00  0.00000000000E+00  0.45593999997E+02  0.45594000000E+02  0.51100000000E-03 0.  1.
         11   -1    0    0    0    0 -0.00000000000E+00 -0.00000000000E+00 -0.45593999997E+02  0.45594000000E+02  0.51100000000E-03 0. -1.
    9900012    2    1    2    0    0 -0.12571909162E+01 -0.32734633348E+02  0.28469040996E+02  0.47787273685E+02  0.20000012040E+02 0.  0.
         12    1    1    2    0    0  0.12571909162E+01  0.32734633348E+02 -0.28469040996E+02  0.43400726315E+02  0.00000000000E+00 0. -1.
         11    1    3    3    0    0 -0.45116587577E+01 -0.19099389535E+02  0.87645504283E+01  0.21493233583E+02  0.51100000000E-03 0. -1.
        -11    1    3    3    0    0  0.58199999697E+00 -0.95644489192E+01  0.50082686538E+01  0.10812037842E+02  0.51100000000E-03 0.  1.
        -12    1    3    3    0    0  0.26724678445E+01 -0.40707948931E+01  0.14696221914E+02  0.15482002261E+02  0.00000000000E+00 0.  1.
</event>
<event>
 7    1  0.2647566E-010  0.4778727E+02  0.7816164E-02  0.1312668E+00
        -11   -1    0    0    0    0  0.00000000000E+00  0.00000000000E+00  0.45593999997E+02  0.45594000000E+02  0.51100000000E-03 0. -1.
         11   -1    0    0    0    0 -0.00000000000E+00 -0.00000000000E+00 -0.45593999997E+02  0.45594000000E+02  0.51100000000E-03 0.  1.
    9900012    2    1    2    0    0  0.22342361037E+02 -0.21930147011E+02 -0.30058459745E+02  0.47787269052E+02  0.19999990914E+02 0.  0.
         12    1    1    2    0    0 -0.22342361037E+02  0.21930147011E+02  0.30058459745E+02  0.43400730948E+02  0.00000000000E+00 0. -1.
         11    1    3    3    0    0  0.39978968725E+01 -0.32632458237E+01 -0.40073198056E+01  0.65338017260E+01  0.51100000000E-03 0. -1.
        -11    1    3    3    0    0 -0.19919589928E+01 -0.57578509415E+01 -0.11762295511E+02  0.13246597451E+02  0.51100000000E-03 0.  1.
         12    1    3    3    0    0  0.20336423157E+02 -0.12909050246E+02 -0.14288844429E+02  0.28006869875E+02  0.00000000000E+00 0. -1.
</event>
<event>
 7    1  0.2647566E-010  0.4778727E+02  0.7816164E-02  0.1312668E+00
        -11   -1    0    0    0    0  0.00000000000E+00  0.00000000000E+00  0.45593999997E+02  0.45594000000E+02  0.51100000000E-03 0. -1.
         11   -1    0    0    0    0 -0.00000000000E+00 -0.00000000000E+00 -0.45593999997E+02  0.45594000000E+02  0.51100000000E-03 0.  1.
    9900012    2    1    2    0    0 -0.31447818825E+02 -0.25601455071E+02  0.15466856362E+02  0.47787268942E+02  0.19999990415E+02 0.  0.
         12    1    1    2    0    0  0.31447818825E+02  0.25601455071E+02 -0.15466856362E+02  0.43400731058E+02  0.00000000000E+00 0. -1.
         11    1    3    3    0    0 -0.12884534985E+01 -0.36466785219E+01 -0.26924115805E+01  0.47124788636E+01  0.51100000000E-03 0. -1.
        -11    1    3    3    0    0 -0.10039314077E+02 -0.48442020602E+01  0.22451219611E+00  0.11149193994E+02  0.51100000000E-03 0.  1.
         12    1    3    3    0    0 -0.20120051250E+02 -0.17110574489E+02  0.17934755747E+02  0.31925596084E+02  0.00000000000E+00 0. -1.
</event>
<event>
 7    1  0.2647566E-010  0.4778727E+02  0.7816164E-02  0.1312668E+00
        -11   -1    0    0    0    0  0.00000000000E+00  0.00000000000E+00  0.45593999997E+02  0.45594000000E+02  0.51100000000E-03 0.  1.
         11   -1    0    0    0    0 -0.00000000000E+00 -0.00000000000E+00 -0.45593999997E+02  0.45594000000E+02  0.51100000000E-03 0. -1.
    9900012    2    1    2    0    0  0.22877126621E+02  0.97992126281E+01  0.35556093775E+02  0.47787270800E+02  0.19999998886E+02 0.  0.
         12    1    1    2    0    0 -0.22877126621E+02 -0.97992126281E+01 -0.35556093775E+02  0.43400729200E+02  0.00000000000E+00 0. -1.
         11    1    3    3    0    0  0.76511314973E+00  0.34155720415E+01  0.94371551860E+01  0.10065357856E+02  0.51100000000E-03 0. -1.
        -11    1    3    3    0    0  0.77675284782E+01  0.47532260240E+01  0.20126482951E+02  0.22090789314E+02  0.51100000000E-03 0.  1.
        -12    1    3    3    0    0  0.14344484993E+02  0.16304145626E+01  0.59924556377E+01  0.15631123630E+02  0.00000000000E+00 0.  1.
</event>
<event>
 7    1  0.2647566E-010  0.4778727E+02  0.7816164E-02  0.1312668E+00
        -11   -1    0    0    0    0  0.00000000000E+00  0.00000000000E+00  0.45593999997E+02  0.45594000000E+02  0.51100000000E-03 0.  1.
         11   -1    0    0    0    0 -0.00000000000E+00 -0.00000000000E+00 -0.45593999997E+02  0.45594000000E+02  0.51100000000E-03 0. -1.
    9900012    2    1    2    0    0 -0.34897576610E+02  0.63440169095E+01  0.25010715505E+02  0.47787270814E+02  0.19999998949E+02 0.  0.
         12    1    1    2    0    0  0.34897576610E+02 -0.63440169095E+01 -0.25010715505E+02  0.43400729186E+02  0.00000000000E+00 0. -1.
         11    1    3    3    0    0 -0.11432842039E+02 -0.34260259899E+01  0.84854720179E+01  0.14644137626E+02  0.51100000000E-03 0.  1.
        -11    1    3    3    0    0 -0.19771541890E+02  0.11412399045E+02  0.88798557077E+01  0.24495072123E+02  0.51100000000E-03 0. -1.
         12    1    3    3    0    0 -0.36931926809E+01 -0.16423561452E+01  0.76453877797E+01  0.86480610653E+01  0.00000000000E+00 0. -1.
</event>
<event>
 7    1  0.2647566E-010  0.4778727E+02  0.7816164E-02  0.1312668E+00
        -11   -1    0    0    0    0  0.00000000000E+00  0.00000000000E+00  0.45593999997E+02  0.45594000000E+02  0.51100000000E-03 0. -1.
         11   -1    0    0    0    0 -0.00000000000E+00 -0.00000000000E+00 -0.45593999997E+02  0.45594000000E+02  0.51100000000E-03 0.  1.
    9900012    2    1    2    0    0 -0.25593367394E+02  0.17610796982E+01 -0.35007163439E+02  0.47787270187E+02  0.19999996091E+02 0.  0.
         12    1    1    2    0    0  0.25593367394E+02 -0.17610796982E+01  0.35007163439E+02  0.43400729813E+02  0.00000000000E+00 0. -1.
         11    1    3    3    0    0 -0.16276268980E+01 -0.44415644964E+01 -0.66502049144E+01  0.81609981105E+01  0.51100000000E-03 0. -1.
        -11    1    3    3    0    0 -0.10153860089E+02 -0.17493699767E+01 -0.17613687285E+02  0.20405958690E+02  0.51100000000E-03 0.  1.
         12    1    3    3    0    0 -0.13811880407E+02  0.79520141713E+01 -0.10743271239E+02  0.19220313387E+02  0.00000000000E+00 0. -1.
</event>
<event>
 7    1  0.2647566E-010  0.4778727E+02  0.7816164E-02  0.1312668E+00
        -11   -1    0    0    0    0  0.00000000000E+00  0.00000000000E+00  0.45593999997E+02  0.45594000000E+02  0.51100000000E-03 0.  1.
         11   -1    0    0    0    0 -0.00000000000E+00 -0.00000000000E+00 -0.45593999997E+02  0.45594000000E+02  0.51100000000E-03 0. -1.
    9900012    2    1    2    0    0 -0.13979975004E+01  0.28294852555E+02  0.32879631441E+02  0.47787271414E+02  0.20000001685E+02 0.  0.
         12    1    1    2    0    0  0.13979975004E+01 -0.28294852555E+02 -0.32879631441E+02  0.43400728586E+02  0.00000000000E+00 0. -1.
         11    1    3    3    0    0  0.18284754945E+01  0.67194318420E+01  0.15088506539E+02  0.16617975712E+02  0.51100000000E-03 0. -1.
        -11    1    3    3    0    0 -0.74490025120E+01  0.13546599272E+02  0.15325902382E+02  0.21768814262E+02  0.51100000000E-03 0.  1.
        -12    1    3    3    0    0  0.42225295170E+01  0.80288214404E+01  0.24652225192E+01  0.94004814405E+01  0.00000000000E+00 0.  1.
</event>
<event>
 7    1  0.2647566E-010  0.4778727E+02  0.7816164E-02  0.1312668E+00
        -11   -1    0    0    0    0  0.00000000000E+00  0.00000000000E+00  0.45593999997E+02  0.45594000000E+02  0.51100000000E-03 0.  1.
         11   -1    0    0    0    0 -0.00000000000E+00 -0.00000000000E+00 -0.45593999997E+02  0.45594000000E+02  0.51100000000E-03 0. -1.
    9900012    2    1    2    0    0 -0.11668580974E+02 -0.16566524210E+02  0.38379915123E+02  0.47787269693E+02  0.19999993837E+02 0.  0.
         12    1    1    2    0    0  0.11668580974E+02  0.16566524210E+02 -0.38379915123E+02  0.43400730307E+02  0.00000000000E+00 0. -1.
         11    1    3    3    0    0 -0.39034751220E+01 -0.11788732217E+02  0.18889181257E+02  0.22605585463E+02  0.51100000000E-03 0. -1.
        -11    1    3    3    0    0  0.10717128024E+01 -0.34857020987E+01  0.14498932223E+02  0.14950509133E+02  0.51100000000E-03 0.  1.
         12    1    3    3    0    0 -0.88368186541E+01 -0.12920898941E+01  0.49918016428E+01  0.10231175097E+02  0.00000000000E+00 0. -1.
</event>
<event>
 7    1  0.2647566E-010  0.4778727E+02  0.7816164E-02  0.1312668E+00
        -11   -1    0    0    0    0  0.00000000000E+00  0.00000000000E+00  0.45593999997E+02  0.45594000000E+02  0.51100000000E-03 0.  1.
         11   -1    0    0    0    0 -0.00000000000E+00 -0.00000000000E+00 -0.45593999997E+02  0.45594000000E+02  0.51100000000E-03 0. -1.
    9900012    2    1    2    0    0  0.96945670528E+01 -0.33677496699E+02  0.25602053933E+02  0.47787267520E+02  0.19999983930E+02 0.  0.
         12    1    1    2    0    0 -0.96945670528E+01  0.33677496699E+02 -0.25602053933E+02  0.43400732480E+02  0.00000000000E+00 0. -1.
         11    1    3    3    0    0  0.26916518833E+01 -0.10277192702E+02  0.14751417101E+02  0.18178833473E+02  0.51100000000E-03 0.  1.
        -11    1    3    3    0    0  0.40114371318E+01 -0.84552719775E+00  0.42794146882E+01  0.59262074246E+01  0.51100000000E-03 0. -1.
         12    1    3    3    0    0  0.29914780376E+01 -0.22554776799E+02  0.65712221434E+01  0.23682226622E+02  0.00000000000E+00 0. -1.
</event>
<event>
 7    1  0.2647566E-010  0.4778727E+02  0.7816164E-02  0.1312668E+00
        -11   -1    0    0    0    0  0.00000000000E+00  0.00000000000E+00  0.45593999997E+02  0.45594000000E+02  0.51100000000E-03 0.  1.
         11   -1    0    0    0    0 -0.00000000000E+00 -0.00000000000E+00 -0.45593999997E+02  0.45594000000E+02  0.51100000000E-03 0. -1.
    9900012    2    1    2    0    0 -0.24088948689E+02 -0.41658482399E+01  0.35860724399E+02  0.47787270803E+02  0.19999998897E+02 0.  0.
         12    1    1    2    0    0  0.24088948689E+02  0.41658482399E+01 -0.35860724399E+02  0.43400729197E+02  0.00000000000E+00 0. -1.
         11    1    3    3    0    0 -0.21996840784E+01 -0.22618588643E+01  0.22286488221E+00  0.31629550397E+01  0.51100000000E-03 0. -1.
        -11    1    3    3    0    0 -0.10029841706E+02 -0.43238158629E+01  0.56737162964E+01  0.12307890361E+02  0.51100000000E-03 0.  1.
        -12    1    3    3    0    0 -0.11859422904E+02  0.24198264873E+01  0.29964143220E+02  0.32316425402E+02  0.00000000000E+00 0.  1.
</event>
<event>
 7    1  0.2647566E-010  0.4778727E+02  0.7816164E-02  0.1312668E+00
        -11   -1    0    0    0    0  0.00000000000E+00  0.00000000000E+00  0.45593999997E+02  0.45594000000E+02  0.51100000000E-03 0. -1.
         11   -1    0    0    0    0 -0.00000000000E+00 -0.00000000000E+00 -0.45593999997E+02  0.45594000000E+02  0.51100000000E-03 0.  1.
    9900012    2    1    2    0    0  0.42621929912E+02 -0.17333586130E+01 -0.79993846584E+01  0.47787267329E+02  0.19999983058E+02 0.  0.
         12    1    1    2    0    0 -0.42621929912E+02  0.17333586130E+01  0.79993846584E+01  0.43400732671E+02  0.00000000000E+00 0. -1.
         11    1    3    3    0    0  0.55838480150E+01 -0.28644573765E+01 -0.15596264012E+01  0.64665995306E+01  0.51100000000E-03 0. -1.
        -11    1    3    3    0    0  0.21843209563E+02  0.86817083665E+01 -0.63696274092E+01  0.24353028924E+02  0.51100000000E-03 0.  1.
        -12    1    3    3    0    0  0.15194872334E+02 -0.75506096030E+01 -0.70130848030E-01  0.16967638874E+02  0.00000000000E+00 0.  1.
</event>
<event>
 7    1  0.2647566E-010  0.4778727E+02  0.7816164E-02  0.1312668E+00
        -11   -1    0    0    0    0  0.00000000000E+00  0.00000000000E+00  0.45593999997E+02  0.45594000000E+02  0.51100000000E-03 0. -1.
         11   -1    0    0    0    0 -0.00000000000E+00 -0.00000000000E+00 -0.45593999997E+02  0.45594000000E+02  0.51100000000E-03 0.  1.
    9900012    2    1    2    0    0 -0.34052899181E+02 -0.14192340309E+02 -0.22860467433E+02  0.47787269161E+02  0.19999991412E+02 0.  0.
         12    1    1    2    0    0  0.34052899181E+02  0.14192340309E+02  0.22860467433E+02  0.43400730839E+02  0.00000000000E+00 0. -1.
         11    1    3    3    0    0 -0.46403972160E+01 -0.80801633251E+01 -0.76713140255E+01  0.12069440120E+02  0.51100000000E-03 0. -1.
        -11    1    3    3    0    0 -0.18398193879E+02 -0.95511770884E+01 -0.87165694284E+01  0.22487710080E+02  0.51100000000E-03 0.  1.
        -12    1    3    3    0    0 -0.11014308087E+02  0.34390001044E+01 -0.64725839794E+01  0.13230118961E+02  0.00000000000E+00 0.  1.
</event>
<event>
 7    1  0.2647566E-010  0.4778726E+02  0.7816164E-02  0.1312668E+00
        -11   -1    0    0    0    0  0.00000000000E+00  0.00000000000E+00  0.45593999997E+02  0.45594000000E+02  0.51100000000E-03 0. -1.
         11   -1    0    0    0    0 -0.00000000000E+00 -0.00000000000E+00 -0.45593999997E+02  0.45594000000E+02  0.51100000000E-03 0.  1.
    9900012    2    1    2    0    0 -0.18868108838E+02 -0.24171209377E+02 -0.30714345564E+02  0.47787263632E+02  0.19999966204E+02 0.  0.
         12    1    1    2    0    0  0.18868108838E+02  0.24171209377E+02  0.30714345564E+02  0.43400736368E+02  0.00000000000E+00 0. -1.
         11    1    3    3    0    0 -0.26842317376E+01  0.52421995596E-01  0.54675509024E+00  0.27398520902E+01  0.51100000000E-03 0. -1.
        -11    1    3    3    0    0 -0.12000811419E+02 -0.67399077725E+01 -0.90496051147E+01  0.16472437115E+02  0.51100000000E-03 0.  1.
         12    1    3    3    0    0 -0.41830656814E+01 -0.17483723600E+02 -0.22211495540E+02  0.28574974427E+02  0.00000000000E+00 0. -1.
</event>
<event>
 7    1  0.2647566E-010  0.4778727E+02  0.7816164E-02  0.1312668E+00
        -11   -1    0    0    0    0  0.00000000000E+00  0.00000000000E+00  0.45593999997E+02  0.45594000000E+02  0.51100000000E-03 0.  1.
         11   -1    0    0    0    0 -0.00000000000E+00 -0.00000000000E+00 -0.45593999997E+02  0.45594000000E+02  0.51100000000E-03 0. -1.
    9900012    2    1    2    0    0  0.15888124205E+01  0.37036236969E+02  0.22570245149E+02  0.47787272589E+02  0.20000007041E+02 0.  0.
         12    1    1    2    0    0 -0.15888124205E+01 -0.37036236969E+02 -0.22570245149E+02  0.43400727411E+02  0.00000000000E+00 0. -1.
         11    1    3    3    0    0  0.32259770513E+01  0.12425581073E+02  0.15845988193E+02  0.20393561116E+02  0.51100000000E-03 0. -1.
        -11    1    3    3    0    0  0.14036391512E+00  0.16233064984E+02  0.89605237626E+01  0.18542467127E+02  0.51100000000E-03 0.  1.
         12    1    3    3    0    0 -0.17775285459E+01  0.83775909130E+01 -0.22362668066E+01  0.88512443457E+01  0.00000000000E+00 0. -1.
</event>
<event>
 7    1  0.2647566E-010  0.4778728E+02  0.7816164E-02  0.1312668E+00
        -11   -1    0    0    0    0  0.00000000000E+00  0.00000000000E+00  0.45593999997E+02  0.45594000000E+02  0.51100000000E-03 0.  1.
         11   -1    0    0    0    0 -0.00000000000E+00 -0.00000000000E+00 -0.45593999997E+02  0.45594000000E+02  0.51100000000E-03 0. -1.
    9900012    2    1    2    0    0 -0.33309083426E+02 -0.14350701581E+02  0.23836632588E+02  0.47787277337E+02  0.20000028691E+02 0.  0.
         12    1    1    2    0    0  0.33309083426E+02  0.14350701581E+02 -0.23836632588E+02  0.43400722663E+02  0.00000000000E+00 0. -1.
         11    1    3    3    0    0 -0.15685447670E+02 -0.93255604109E+01  0.95810202934E+01  0.20610562722E+02  0.51100000000E-03 0. -1.
        -11    1    3    3    0    0 -0.43527318928E+01 -0.57108181017E+01  0.11573642995E+02  0.13620166326E+02  0.51100000000E-03 0.  1.
         12    1    3    3    0    0 -0.13270903863E+02  0.68567693216E+00  0.26819693001E+01  0.13556548289E+02  0.00000000000E+00 0. -1.
</event>
<event>
 7    1  0.2647566E-010  0.4778727E+02  0.7816164E-02  0.1312668E+00
        -11   -1    0    0    0    0  0.00000000000E+00  0.00000000000E+00  0.45593999997E+02  0.45594000000E+02  0.51100000000E-03 0.  1.
         11   -1    0    0    0    0 -0.00000000000E+00 -0.00000000000E+00 -0.45593999997E+02  0.45594000000E+02  0.51100000000E-03 0. -1.
    9900012    2    1    2    0    0  0.27519504686E+02  0.25697907696E+02  0.21585127982E+02  0.47787270189E+02  0.19999996101E+02 0.  0.
         12    1    1    2    0    0 -0.27519504686E+02 -0.25697907696E+02 -0.21585127982E+02  0.43400729811E+02  0.00000000000E+00 0. -1.
         11    1    3    3    0    0  0.19590556339E+02  0.21841238223E+02  0.10623750900E+02  0.31204064931E+02  0.51100000000E-03 0. -1.
        -11    1    3    3    0    0  0.13171678813E+01  0.26943725699E+01 -0.74346874116E+00  0.30898739138E+01  0.51100000000E-03 0.  1.
        -12    1    3    3    0    0  0.66117804659E+01  0.11622969029E+01  0.11704845824E+02  0.13493331345E+02  0.00000000000E+00 0.  1.
</event>
<event>
 7    1  0.2647566E-010  0.4778727E+02  0.7816164E-02  0.1312668E+00
        -11   -1    0    0    0    0  0.00000000000E+00  0.00000000000E+00  0.45593999997E+02  0.45594000000E+02  0.51100000000E-03 0.  1.
         11   -1    0    0    0    0 -0.00000000000E+00 -0.00000000000E+00 -0.45593999997E+02  0.45594000000E+02  0.51100000000E-03 0. -1.
    9900012    2    1    2    0    0  0.34337875270E+02 -0.10811350092E+02  0.24241457348E+02  0.47787271628E+02  0.20000002662E+02 0.  0.
         12    1    1    2    0    0 -0.34337875270E+02  0.10811350092E+02 -0.24241457348E+02  0.43400728372E+02  0.00000000000E+00 0. -1.
         11    1    3    3    0    0  0.94656151643E+01  0.11387977965E+01  0.51747040751E+01  0.10847686084E+02  0.51100000000E-03 0. -1.
        -11    1    3    3    0    0  0.25041037669E+02 -0.77691052581E+01  0.19581203739E+02  0.32723632197E+02  0.51100000000E-03 0.  1.
         12    1    3    3    0    0 -0.16877756357E+00 -0.41810426300E+01 -0.51445046607E+00  0.42159533468E+01  0.00000000000E+00 0. -1.
</event>
<event>
 7    1  0.2647566E-010  0.4778727E+02  0.7816164E-02  0.1312668E+00
        -11   -1    0    0    0    0  0.00000000000E+00  0.00000000000E+00  0.45593999997E+02  0.45594000000E+02  0.51100000000E-03 0.  1.
         11   -1    0    0    0    0 -0.00000000000E+00 -0.00000000000E+00 -0.45593999997E+02  0.45594000000E+02  0.51100000000E-03 0. -1.
    9900012    2    1    2    0    0 -0.33412408768E+02  0.27688561288E+02 -0.76018430639E+00  0.47787269983E+02  0.19999995159E+02 0.  0.
         12    1    1    2    0    0  0.33412408768E+02 -0.27688561288E+02  0.76018430639E+00  0.43400730017E+02  0.00000000000E+00 0. -1.
         11    1    3    3    0    0 -0.20608785544E+02  0.17473481939E+02 -0.41559668728E+01  0.27337093364E+02  0.51100000000E-03 0. -1.
        -11    1    3    3    0    0 -0.58072874202E+01  0.10572155900E+02 -0.11221751162E+01  0.12114220767E+02  0.51100000000E-03 0.  1.
        -12    1    3    3    0    0 -0.69963358031E+01 -0.35707655081E+00  0.45179576826E+01  0.83359558513E+01  0.00000000000E+00 0.  1.
</event>
<event>
 7    1  0.2647566E-010  0.4778727E+02  0.7816164E-02  0.1312668E+00
        -11   -1    0    0    0    0  0.00000000000E+00  0.00000000000E+00  0.45593999997E+02  0.45594000000E+02  0.51100000000E-03 0.  1.
         11   -1    0    0    0    0 -0.00000000000E+00 -0.00000000000E+00 -0.45593999997E+02  0.45594000000E+02  0.51100000000E-03 0. -1.
    9900012    2    1    2    0    0 -0.31464582039E+02  0.20929886566E+02  0.21343464925E+02  0.47787267638E+02  0.19999984468E+02 0.  0.
         12    1    1    2    0    0  0.31464582039E+02 -0.20929886566E+02 -0.21343464925E+02  0.43400732362E+02  0.00000000000E+00 0. -1.
         11    1    3    3    0    0 -0.66157415421E-01  0.65056087881E+01  0.48389767870E+01  0.81082068988E+01  0.51100000000E-03 0. -1.
        -11    1    3    3    0    0 -0.19595296952E+02  0.10729329044E+02  0.15659791086E+02  0.27282287688E+02  0.51100000000E-03 0.  1.
        -12    1    3    3    0    0 -0.11803127671E+02  0.36949487342E+01  0.84469705255E+00  0.12396773051E+02  0.00000000000E+00 0.  1.
</event>
<event>
 7    1  0.2647566E-010  0.4778727E+02  0.7816164E-02  0.1312668E+00
        -11   -1    0    0    0    0  0.00000000000E+00  0.00000000000E+00  0.45593999997E+02  0.45594000000E+02  0.51100000000E-03 0.  1.
         11   -1    0    0    0    0 -0.00000000000E+00 -0.00000000000E+00 -0.45593999997E+02  0.45594000000E+02  0.51100000000E-03 0. -1.
    9900012    2    1    2    0    0 -0.12560206608E+02 -0.19663344360E+02  0.36595319198E+02  0.47787270875E+02  0.19999999226E+02 0.  0.
         12    1    1    2    0    0  0.12560206608E+02  0.19663344360E+02 -0.36595319198E+02  0.43400729125E+02  0.00000000000E+00 0. -1.
         11    1    3    3    0    0 -0.42621596214E+01 -0.33206796186E+01  0.33335932528E+00  0.54133212050E+01  0.51100000000E-03 0. -1.
        -11    1    3    3    0    0 -0.73568460336E+01 -0.89009866485E+01  0.10731492572E+02  0.15764380101E+02  0.51100000000E-03 0.  1.
        -12    1    3    3    0    0 -0.94120095279E+00 -0.74416780924E+01  0.25530467301E+02  0.26609569569E+02  0.00000000000E+00 0.  1.
</event>
<event>
 7    1  0.2647566E-010  0.4778727E+02  0.7816164E-02  0.1312668E+00
        -11   -1    0    0    0    0  0.00000000000E+00  0.00000000000E+00  0.45593999997E+02  0.45594000000E+02  0.51100000000E-03 0.  1.
         11   -1    0    0    0    0 -0.00000000000E+00 -0.00000000000E+00 -0.45593999997E+02  0.45594000000E+02  0.51100000000E-03 0. -1.
    9900012    2    1    2    0    0  0.40612349513E+02 -0.14693372659E+02  0.42854596112E+01  0.47787270776E+02  0.19999998776E+02 0.  0.
         12    1    1    2    0    0 -0.40612349513E+02  0.14693372659E+02 -0.42854596112E+01  0.43400729224E+02  0.00000000000E+00 0. -1.
         11    1    3    3    0    0  0.13845525313E+01 -0.15367432009E+01  0.52500277602E+00  0.21340556585E+01  0.51100000000E-03 0. -1.
        -11    1    3    3    0    0  0.24340413014E+01 -0.70442335903E+01 -0.24424709812E+01  0.78429234783E+01  0.51100000000E-03 0.  1.
        -12    1    3    3    0    0  0.36793755681E+02 -0.61123958682E+01  0.62029278164E+01  0.37810291639E+02  0.00000000000E+00 0.  1.
</event>
<event>
 7    1  0.2647566E-010  0.4778727E+02  0.7816164E-02  0.1312668E+00
        -11   -1    0    0    0    0  0.00000000000E+00  0.00000000000E+00  0.45593999997E+02  0.45594000000E+02  0.51100000000E-03 0.  1.
         11   -1    0    0    0    0 -0.00000000000E+00 -0.00000000000E+00 -0.45593999997E+02  0.45594000000E+02  0.51100000000E-03 0. -1.
    9900012    2    1    2    0    0  0.18833628192E+02 -0.31953126421E+02  0.22536977737E+02  0.47787271844E+02  0.20000003646E+02 0.  0.
         12    1    1    2    0    0 -0.18833628192E+02  0.31953126421E+02 -0.22536977737E+02  0.43400728156E+02  0.00000000000E+00 0. -1.
         11    1    3    3    0    0  0.87562166024E+01 -0.17268025094E+02  0.43869760343E+01  0.19851991810E+02  0.51100000000E-03 0. -1.
        -11    1    3    3    0    0  0.82636629099E+01 -0.31566282733E+01  0.43361068023E+01  0.98516115030E+01  0.51100000000E-03 0.  1.
        -12    1    3    3    0    0  0.18137486794E+01 -0.11528473053E+02  0.13813894900E+02  0.18083668531E+02  0.00000000000E+00 0.  1.
</event>
<event>
 7    1  0.2647566E-010  0.4778727E+02  0.7816164E-02  0.1312668E+00
        -11   -1    0    0    0    0  0.00000000000E+00  0.00000000000E+00  0.45593999997E+02  0.45594000000E+02  0.51100000000E-03 0. -1.
         11   -1    0    0    0    0 -0.00000000000E+00 -0.00000000000E+00 -0.45593999997E+02  0.45594000000E+02  0.51100000000E-03 0.  1.
    9900012    2    1    2    0    0 -0.12645128416E+02  0.20075484925E+02 -0.36341418713E+02  0.47787273258E+02  0.20000010094E+02 0.  0.
         12    1    1    2    0    0  0.12645128416E+02 -0.20075484925E+02  0.36341418713E+02  0.43400726742E+02  0.00000000000E+00 0. -1.
         11    1    3    3    0    0  0.33500029578E+00  0.43473969322E+01 -0.64620200381E+01  0.77954979647E+01  0.51100000000E-03 0.  1.
        -11    1    3    3    0    0 -0.14517312819E+01  0.98909923310E+00  0.22233819320E+01  0.28335963870E+01  0.51100000000E-03 0. -1.
         12    1    3    3    0    0 -0.11528397430E+02  0.14738988760E+02 -0.32102780607E+02  0.37158178907E+02  0.00000000000E+00 0. -1.
</event>
<event>
 7    1  0.2647566E-010  0.4778727E+02  0.7816164E-02  0.1312668E+00
        -11   -1    0    0    0    0  0.00000000000E+00  0.00000000000E+00  0.45593999997E+02  0.45594000000E+02  0.51100000000E-03 0.  1.
         11   -1    0    0    0    0 -0.00000000000E+00 -0.00000000000E+00 -0.45593999997E+02  0.45594000000E+02  0.51100000000E-03 0. -1.
    9900012    2    1    2    0    0  0.21698861611E+01  0.11428291203E+02  0.41812785335E+02  0.47787271167E+02  0.20000000557E+02 0.  0.
         12    1    1    2    0    0 -0.21698861611E+01 -0.11428291203E+02 -0.41812785335E+02  0.43400728833E+02  0.00000000000E+00 0. -1.
         11    1    3    3    0    0 -0.43035997801E+01  0.11797432963E+01  0.17031499874E+02  0.17606383885E+02  0.51100000000E-03 0. -1.
        -11    1    3    3    0    0  0.44602431746E+01  0.62639699576E+01  0.24532755534E+02  0.25709671004E+02  0.51100000000E-03 0.  1.
         12    1    3    3    0    0  0.20132427665E+01  0.39845779492E+01  0.24852992787E+00  0.44712162770E+01  0.00000000000E+00 0. -1.
</event>
<event>
 7    1  0.2647566E-010  0.4778723E+02  0.7816164E-02  0.1312668E+00
        -11   -1    0    0    0    0  0.00000000000E+00  0.00000000000E+00  0.45593999997E+02  0.45594000000E+02  0.51100000000E-03 0.  1.
         11   -1    0    0    0    0 -0.00000000000E+00 -0.00000000000E+00 -0.45593999997E+02  0.45594000000E+02  0.51100000000E-03 0. -1.
    9900012    2    1    2    0    0  0.29283896809E+02  0.93771447324E+01  0.30629219579E+02  0.47787233329E+02  0.19999828038E+02 0.  0.
         12    1    1    2    0    0 -0.29283896809E+02 -0.93771447324E+01 -0.30629219579E+02  0.43400766671E+02  0.00000000000E+00 0. -1.
         11    1    3    3    0    0  0.14520296150E+02  0.10235628516E+02  0.13350165991E+02  0.22222376642E+02  0.51100000000E-03 0. -1.
        -11    1    3    3    0    0  0.59055855307E+01  0.49535381761E+01  0.10352967292E+02  0.12907262023E+02  0.51100000000E-03 0.  1.
        -12    1    3    3    0    0  0.88580151284E+01 -0.58120219597E+01  0.69260862966E+01  0.12657594663E+02  0.00000000000E+00 0.  1.
</event>
<event>
 7    1  0.2647566E-010  0.4778727E+02  0.7816164E-02  0.1312668E+00
        -11   -1    0    0    0    0  0.00000000000E+00  0.00000000000E+00  0.45593999997E+02  0.45594000000E+02  0.51100000000E-03 0.  1.
         11   -1    0    0    0    0 -0.00000000000E+00 -0.00000000000E+00 -0.45593999997E+02  0.45594000000E+02  0.51100000000E-03 0. -1.
    9900012    2    1    2    0    0  0.61417567716E+01 -0.42095129112E+02 -0.85966371875E+01  0.47787271410E+02  0.20000001666E+02 0.  0.
         12    1    1    2    0    0 -0.61417567716E+01  0.42095129112E+02  0.85966371875E+01  0.43400728590E+02  0.00000000000E+00 0. -1.
         11    1    3    3    0    0 -0.98692820735E+00 -0.23911949833E+01 -0.29206330079E+01  0.39015302334E+01  0.51100000000E-03 0. -1.
        -11    1    3    3    0    0  0.43944476569E+01 -0.34052810464E+02 -0.10570384021E+02  0.35925451832E+02  0.51100000000E-03 0.  1.
        -12    1    3    3    0    0  0.27342373221E+01 -0.56511236647E+01  0.48943798418E+01  0.79602893442E+01  0.00000000000E+00 0.  1.
</event>
<event>
 7    1  0.2647566E-010  0.4778726E+02  0.7816164E-02  0.1312668E+00
        -11   -1    0    0    0    0  0.00000000000E+00  0.00000000000E+00  0.45593999997E+02  0.45594000000E+02  0.51100000000E-03 0. -1.
         11   -1    0    0    0    0 -0.00000000000E+00 -0.00000000000E+00 -0.45593999997E+02  0.45594000000E+02  0.51100000000E-03 0.  1.
    9900012    2    1    2    0    0 -0.25044149266E+02 -0.31314063906E+02 -0.16608547287E+02  0.47787264364E+02  0.19999969542E+02 0.  0.
         12    1    1    2    0    0  0.25044149266E+02  0.31314063906E+02  0.16608547287E+02  0.43400735636E+02  0.00000000000E+00 0. -1.
         11    1    3    3    0    0 -0.97873818273E+01 -0.16975890294E+02 -0.37452448140E+01  0.19949951210E+02  0.51100000000E-03 0. -1.
        -11    1    3    3    0    0 -0.10014616687E+01 -0.52080675547E+01 -0.90425176920E+01  0.10483034847E+02  0.51100000000E-03 0.  1.
         12    1    3    3    0    0 -0.14255305770E+02 -0.91301060565E+01 -0.38207847808E+01  0.17354278307E+02  0.00000000000E+00 0. -1.
</event>
<event>
 7    1  0.2647566E-010  0.4778725E+02  0.7816164E-02  0.1312668E+00
        -11   -1    0    0    0    0  0.00000000000E+00  0.00000000000E+00  0.45593999997E+02  0.45594000000E+02  0.51100000000E-03 0.  1.
         11   -1    0    0    0    0 -0.00000000000E+00 -0.00000000000E+00 -0.45593999997E+02  0.45594000000E+02  0.51100000000E-03 0. -1.
    9900012    2    1    2    0    0 -0.16634788899E+02 -0.36061984770E+02  0.17505482592E+02  0.47787252679E+02  0.19999916264E+02 0.  0.
         12    1    1    2    0    0  0.16634788899E+02  0.36061984770E+02 -0.17505482592E+02  0.43400747321E+02  0.00000000000E+00 0. -1.
         11    1    3    3    0    0 -0.60364474476E+01 -0.11400192112E+02 -0.10198231894E+01  0.12939981359E+02  0.51100000000E-03 0. -1.
        -11    1    3    3    0    0 -0.16818296244E+01 -0.12074771057E+02  0.22018282848E+01  0.12388571146E+02  0.51100000000E-03 0.  1.
         12    1    3    3    0    0 -0.89165118266E+01 -0.12587021600E+02  0.16323477496E+02  0.22458700174E+02  0.00000000000E+00 0. -1.
</event>
<event>
 7    1  0.2647566E-010  0.4778727E+02  0.7816164E-02  0.1312668E+00
        -11   -1    0    0    0    0  0.00000000000E+00  0.00000000000E+00  0.45593999997E+02  0.45594000000E+02  0.51100000000E-03 0.  1.
         11   -1    0    0    0    0 -0.00000000000E+00 -0.00000000000E+00 -0.45593999997E+02  0.45594000000E+02  0.51100000000E-03 0. -1.
    9900012    2    1    2    0    0 -0.41911659055E+02 -0.62899140259E+01 -0.93527278168E+01  0.47787266126E+02  0.19999977576E+02 0.  0.
         12    1    1    2    0    0  0.41911659055E+02  0.62899140259E+01  0.93527278168E+01  0.43400733874E+02  0.00000000000E+00 0. -1.
         11    1    3    3    0    0 -0.28515649665E+02 -0.46247503165E+01 -0.11510705956E+02  0.31097056825E+02  0.51100000000E-03 0.  1.
        -11    1    3    3    0    0 -0.25551854576E+01  0.95789156933E+00 -0.32922518561E+01  0.42761491468E+01  0.51100000000E-03 0. -1.
        -12    1    3    3    0    0 -0.10840823932E+02 -0.26230552787E+01  0.54502299953E+01  0.12414060155E+02  0.00000000000E+00 0.  1.
</event>
<event>
 7    1  0.2647566E-010  0.4778727E+02  0.7816164E-02  0.1312668E+00
        -11   -1    0    0    0    0  0.00000000000E+00  0.00000000000E+00  0.45593999997E+02  0.45594000000E+02  0.51100000000E-03 0.  1.
         11   -1    0    0    0    0 -0.00000000000E+00 -0.00000000000E+00 -0.45593999997E+02  0.45594000000E+02  0.51100000000E-03 0. -1.
    9900012    2    1    2    0    0  0.18693023976E+02 -0.57121945936E+01  0.38750031709E+02  0.47787271091E+02  0.20000000210E+02 0.  0.
         12    1    1    2    0    0 -0.18693023976E+02  0.57121945936E+01 -0.38750031709E+02  0.43400728909E+02  0.00000000000E+00 0. -1.
         11    1    3    3    0    0  0.82324564159E+01 -0.55795260381E+01  0.16712024468E+02  0.19447267456E+02  0.51100000000E-03 0. -1.
        -11    1    3    3    0    0  0.12677830119E+02 -0.18716438276E+01  0.22071243883E+02  0.25521955919E+02  0.51100000000E-03 0.  1.
        -12    1    3    3    0    0 -0.22172625590E+01  0.17389752721E+01 -0.33236641191E-01  0.28180477155E+01  0.00000000000E+00 0.  1.
</event>
<event>
 7    1  0.2647566E-010  0.4778727E+02  0.7816164E-02  0.1312668E+00
        -11   -1    0    0    0    0  0.00000000000E+00  0.00000000000E+00  0.45593999997E+02  0.45594000000E+02  0.51100000000E-03 0. -1.
         11   -1    0    0    0    0 -0.00000000000E+00 -0.00000000000E+00 -0.45593999997E+02  0.45594000000E+02  0.51100000000E-03 0.  1.
    9900012    2    1    2    0    0 -0.31481898521E+02  0.23316832799E+02 -0.18677219736E+02  0.47787272318E+02  0.20000005807E+02 0.  0.
         12    1    1    2    0    0  0.31481898521E+02 -0.23316832799E+02  0.18677219736E+02  0.43400727682E+02  0.00000000000E+00 0. -1.
         11    1    3    3    0    0 -0.14643254227E+02  0.36997472541E+01 -0.50025520096E+01  0.15910328436E+02  0.51100000000E-03 0.  1.
        -11    1    3    3    0    0 -0.51660844215E+01  0.18478156871E+01  0.15806818529E+01  0.57097641321E+01  0.51100000000E-03 0. -1.
         12    1    3    3    0    0 -0.11672559873E+02  0.17769269858E+02 -0.15255349579E+02  0.26167179750E+02  0.00000000000E+00 0. -1.
</event>
<event>
 7    1  0.2647566E-010  0.4778724E+02  0.7816164E-02  0.1312668E+00
        -11   -1    0    0    0    0  0.00000000000E+00  0.00000000000E+00  0.45593999997E+02  0.45594000000E+02  0.51100000000E-03 0.  1.
         11   -1    0    0    0    0 -0.00000000000E+00 -0.00000000000E+00 -0.45593999997E+02  0.45594000000E+02  0.51100000000E-03 0. -1.
    9900012    2    1    2    0    0 -0.13811639469E+02 -0.38845204126E+02  0.13561513118E+02  0.47787240716E+02  0.19999861718E+02 0.  0.
         12    1    1    2    0    0  0.13811639469E+02  0.38845204126E+02 -0.13561513118E+02  0.43400759284E+02  0.00000000000E+00 0. -1.
         11    1    3    3    0    0  0.43419340043E+00 -0.11095346636E+02  0.52855183100E+01  0.12297639812E+02  0.51100000000E-03 0. -1.
        -11    1    3    3    0    0 -0.12447117070E+02 -0.14970299327E+02  0.10910827944E+02  0.22317857245E+02  0.51100000000E-03 0.  1.
        -12    1    3    3    0    0 -0.17987157990E+01 -0.12779558163E+02 -0.26348331358E+01  0.13171743659E+02  0.00000000000E+00 0.  1.
</event>
<event>
 7    1  0.2647566E-010  0.4778727E+02  0.7816164E-02  0.1312668E+00
        -11   -1    0    0    0    0  0.00000000000E+00  0.00000000000E+00  0.45593999997E+02  0.45594000000E+02  0.51100000000E-03 0.  1.
         11   -1    0    0    0    0 -0.00000000000E+00 -0.00000000000E+00 -0.45593999997E+02  0.45594000000E+02  0.51100000000E-03 0. -1.
    9900012    2    1    2    0    0  0.32100056211E+02  0.16456365468E+02  0.24132916188E+02  0.47787271700E+02  0.20000002990E+02 0.  0.
         12    1    1    2    0    0 -0.32100056211E+02 -0.16456365468E+02 -0.24132916188E+02  0.43400728300E+02  0.00000000000E+00 0. -1.
         11    1    3    3    0    0  0.79717060799E+01 -0.40152597897E+00  0.70737921453E+01  0.10665264015E+02  0.51100000000E-03 0.  1.
        -11    1    3    3    0    0  0.10099298279E+02  0.14606317226E+02  0.49012415981E+01  0.18421794106E+02  0.51100000000E-03 0. -1.
         12    1    3    3    0    0  0.14029051852E+02  0.22515742215E+01  0.12157882445E+02  0.18700213579E+02  0.00000000000E+00 0. -1.
</event>
<event>
 7    1  0.2647566E-010  0.4778732E+02  0.7816164E-02  0.1312668E+00
        -11   -1    0    0    0    0  0.00000000000E+00  0.00000000000E+00  0.45593999997E+02  0.45594000000E+02  0.51100000000E-03 0. -1.
         11   -1    0    0    0    0 -0.00000000000E+00 -0.00000000000E+00 -0.45593999997E+02  0.45594000000E+02  0.51100000000E-03 0.  1.
    9900012    2    1    2    0    0 -0.58708362725E+01  0.98219771433E+01 -0.41865030034E+02  0.47787323815E+02  0.20000240602E+02 0.  0.
         12    1    1    2    0    0  0.58708362725E+01 -0.98219771433E+01  0.41865030034E+02  0.43400676185E+02  0.00000000000E+00 0. -1.
         11    1    3    3    0    0  0.30459070822E+01 -0.20927083097E+01 -0.69417070222E+01  0.78641130883E+01  0.51100000000E-03 0. -1.
        -11    1    3    3    0    0 -0.23902595423E+01 -0.21890648613E+01 -0.29924449174E+01  0.44113572165E+01  0.51100000000E-03 0.  1.
        -12    1    3    3    0    0 -0.65264838124E+01  0.14103750314E+02 -0.31930878094E+02  0.35511853511E+02  0.00000000000E+00 0.  1.
</event>
<event>
 7    1  0.2647566E-010  0.4778727E+02  0.7816164E-02  0.1312668E+00
        -11   -1    0    0    0    0  0.00000000000E+00  0.00000000000E+00  0.45593999997E+02  0.45594000000E+02  0.51100000000E-03 0. -1.
         11   -1    0    0    0    0 -0.00000000000E+00 -0.00000000000E+00 -0.45593999997E+02  0.45594000000E+02  0.51100000000E-03 0.  1.
    9900012    2    1    2    0    0  0.42008221854E+02  0.10154190534E+02  0.39780801544E+01  0.47787269471E+02  0.19999992826E+02 0.  0.
         12    1    1    2    0    0 -0.42008221854E+02 -0.10154190534E+02 -0.39780801544E+01  0.43400730529E+02  0.00000000000E+00 0. -1.
         11    1    3    3    0    0  0.46257881353E+01  0.35508011751E+00  0.26496933017E+01  0.53427401787E+01  0.51100000000E-03 0. -1.
        -11    1    3    3    0    0  0.38460932406E+02  0.66534052508E+01  0.18618557845E+01  0.39076561135E+02  0.51100000000E-03 0.  1.
         12    1    3    3    0    0 -0.10784986868E+01  0.31457051652E+01 -0.53346893182E+00  0.33679681568E+01  0.00000000000E+00 0. -1.
</event>
<event>
 7    1  0.2647566E-010  0.4778727E+02  0.7816164E-02  0.1312668E+00
        -11   -1    0    0    0    0  0.00000000000E+00  0.00000000000E+00  0.45593999997E+02  0.45594000000E+02  0.51100000000E-03 0. -1.
         11   -1    0    0    0    0 -0.00000000000E+00 -0.00000000000E+00 -0.45593999997E+02  0.45594000000E+02  0.51100000000E-03 0.  1.
    9900012    2    1    2    0    0 -0.13534112885E+02  0.11781930338E+02 -0.39517554295E+02  0.47787271993E+02  0.20000004323E+02 0.  0.
         12    1    1    2    0    0  0.13534112885E+02 -0.11781930338E+02  0.39517554295E+02  0.43400728007E+02  0.00000000000E+00 0. -1.
         11    1    3    3    0    0 -0.95290861165E+00 -0.17379853669E+01 -0.15809966267E+01  0.25353852868E+01  0.51100000000E-03 0. -1.
        -11    1    3    3    0    0 -0.13366062912E+02  0.11869532025E+02 -0.18484187699E+02  0.25713860531E+02  0.51100000000E-03 0.  1.
        -12    1    3    3    0    0  0.78485863812E+00  0.16503836803E+01 -0.19452369970E+02  0.19538026175E+02  0.00000000000E+00 0.  1.
</event>
<event>
 7    1  0.2647566E-010  0.4778727E+02  0.7816164E-02  0.1312668E+00
        -11   -1    0    0    0    0  0.00000000000E+00  0.00000000000E+00  0.45593999997E+02  0.45594000000E+02  0.51100000000E-03 0.  1.
         11   -1    0    0    0    0 -0.00000000000E+00 -0.00000000000E+00 -0.45593999997E+02  0.45594000000E+02  0.51100000000E-03 0. -1.
    9900012    2    1    2    0    0  0.42099590033E+02  0.76530178512E+01  0.72580374422E+01  0.47787271081E+02  0.20000000167E+02 0.  0.
         12    1    1    2    0    0 -0.42099590033E+02 -0.76530178512E+01 -0.72580374422E+01  0.43400728919E+02  0.00000000000E+00 0. -1.
         11    1    3    3    0    0  0.11032298991E+02 -0.11514675478E+01 -0.48133956729E+01  0.12091578751E+02  0.51100000000E-03 0. -1.
        -11    1    3    3    0    0  0.14297333611E+01 -0.10905944070E+00  0.31902703300E+01  0.34976930233E+01  0.51100000000E-03 0.  1.
        -12    1    3    3    0    0  0.29637557681E+02  0.89135448398E+01  0.88811627850E+01  0.32197999306E+02  0.00000000000E+00 0.  1.
</event>
<event>
 7    1  0.2647566E-010  0.4778726E+02  0.7816164E-02  0.1312668E+00
        -11   -1    0    0    0    0  0.00000000000E+00  0.00000000000E+00  0.45593999997E+02  0.45594000000E+02  0.51100000000E-03 0. -1.
         11   -1    0    0    0    0 -0.00000000000E+00 -0.00000000000E+00 -0.45593999997E+02  0.45594000000E+02  0.51100000000E-03 0.  1.
    9900012    2    1    2    0    0  0.80115303570E+01 -0.41992002089E+02 -0.74907336207E+01  0.47787263275E+02  0.19999964576E+02 0.  0.
         12    1    1    2    0    0 -0.80115303570E+01  0.41992002089E+02  0.74907336207E+01  0.43400736725E+02  0.00000000000E+00 0. -1.
         11    1    3    3    0    0 -0.98341718990E+00 -0.11425945081E+01  0.21487995352E+01  0.26248754795E+01  0.51100000000E-03 0. -1.
        -11    1    3    3    0    0 -0.16139421639E-01 -0.64280282056E+01 -0.69691782567E+01  0.94809943006E+01  0.51100000000E-03 0.  1.
        -12    1    3    3    0    0  0.90110869685E+01 -0.34421379375E+02 -0.26703548992E+01  0.35681393495E+02  0.00000000000E+00 0.  1.
</event>
<event>
 7    1  0.2647566E-010  0.4778726E+02  0.7816164E-02  0.1312668E+00
        -11   -1    0    0    0    0  0.00000000000E+00  0.00000000000E+00  0.45593999997E+02  0.45594000000E+02  0.51100000000E-03 0. -1.
         11   -1    0    0    0    0 -0.00000000000E+00 -0.00000000000E+00 -0.45593999997E+02  0.45594000000E+02  0.51100000000E-03 0.  1.
    9900012    2    1    2    0    0  0.32025485710E+02  0.12054547801E+01 -0.29266687273E+02  0.47787264520E+02  0.19999970255E+02 0.  0.
         12    1    1    2    0    0 -0.32025485710E+02 -0.12054547801E+01  0.29266687273E+02  0.43400735480E+02  0.00000000000E+00 0. -1.
         11    1    3    3    0    0  0.11178633569E+02  0.62115877585E+01 -0.14799875084E+02  0.19559702802E+02  0.51100000000E-03 0. -1.
        -11    1    3    3    0    0  0.18260418353E+02  0.36705808741E+00 -0.11271241447E+02  0.21462024464E+02  0.51100000000E-03 0.  1.
         12    1    3    3    0    0  0.25864337883E+01 -0.53731910659E+01 -0.31955707423E+01  0.67655372544E+01  0.00000000000E+00 0. -1.
</event>
<event>
 7    1  0.2647566E-010  0.4778727E+02  0.7816164E-02  0.1312668E+00
        -11   -1    0    0    0    0  0.00000000000E+00  0.00000000000E+00  0.45593999997E+02  0.45594000000E+02  0.51100000000E-03 0. -1.
         11   -1    0    0    0    0 -0.00000000000E+00 -0.00000000000E+00 -0.45593999997E+02  0.45594000000E+02  0.51100000000E-03 0.  1.
    9900012    2    1    2    0    0  0.29279816281E+02 -0.23572370224E+02 -0.21694675230E+02  0.47787271749E+02  0.20000003212E+02 0.  0.
         12    1    1    2    0    0 -0.29279816281E+02  0.23572370224E+02  0.21694675230E+02  0.43400728251E+02  0.00000000000E+00 0. -1.
         11    1    3    3    0    0  0.35327038993E+01  0.29023537241E+01 -0.57194654944E+00  0.46076867402E+01  0.51100000000E-03 0. -1.
        -11    1    3    3    0    0  0.88512069584E+01 -0.44842027145E+01 -0.52201948375E+01  0.11211706962E+02  0.51100000000E-03 0.  1.
         12    1    3    3    0    0  0.16895905423E+02 -0.21990521233E+02 -0.15902533843E+02  0.31967878047E+02  0.00000000000E+00 0. -1.
</event>
<event>
 7    1  0.2647566E-010  0.4778725E+02  0.7816164E-02  0.1312668E+00
        -11   -1    0    0    0    0  0.00000000000E+00  0.00000000000E+00  0.45593999997E+02  0.45594000000E+02  0.51100000000E-03 0. -1.
         11   -1    0    0    0    0 -0.00000000000E+00 -0.00000000000E+00 -0.45593999997E+02  0.45594000000E+02  0.51100000000E-03 0.  1.
    9900012    2    1    2    0    0 -0.50661558940E+01 -0.31742894256E+02 -0.29160717631E+02  0.47787254338E+02  0.19999923828E+02 0.  0.
         12    1    1    2    0    0  0.50661558940E+01  0.31742894256E+02  0.29160717631E+02  0.43400745662E+02  0.00000000000E+00 0. -1.
         11    1    3    3    0    0  0.16868721236E+01 -0.55315964497E+01 -0.11637408556E+02  0.12995128896E+02  0.51100000000E-03 0. -1.
        -11    1    3    3    0    0  0.27016806592E+01 -0.38323251796E+01 -0.67440585114E+01  0.82138979865E+01  0.51100000000E-03 0.  1.
         12    1    3    3    0    0 -0.94547086768E+01 -0.22378972627E+02 -0.10779250563E+02  0.26578227456E+02  0.00000000000E+00 0. -1.
</event>
<event>
 7    1  0.2647566E-010  0.4778727E+02  0.7816164E-02  0.1312668E+00
        -11   -1    0    0    0    0  0.00000000000E+00  0.00000000000E+00  0.45593999997E+02  0.45594000000E+02  0.51100000000E-03 0.  1.
         11   -1    0    0    0    0 -0.00000000000E+00 -0.00000000000E+00 -0.45593999997E+02  0.45594000000E+02  0.51100000000E-03 0. -1.
    9900012    2    1    2    0    0 -0.30479591325E+02 -0.22815592229E+02  0.20834255546E+02  0.47787274888E+02  0.20000017524E+02 0.  0.
         12    1    1    2    0    0  0.30479591325E+02  0.22815592229E+02 -0.20834255546E+02  0.43400725112E+02  0.00000000000E+00 0. -1.
         11    1    3    3    0    0 -0.27345693445E+02 -0.11976188173E+02  0.17590068721E+02  0.34650058456E+02  0.51100000000E-03 0. -1.
        -11    1    3    3    0    0 -0.13547861417E+01 -0.33678624694E+01 -0.16943007411E+01  0.40060701897E+01  0.51100000000E-03 0.  1.
        -12    1    3    3    0    0 -0.17791117386E+01 -0.74715415869E+01  0.49384875661E+01  0.91311462425E+01  0.00000000000E+00 0.  1.
</event>
<event>
 7    1  0.2647566E-010  0.4778727E+02  0.7816164E-02  0.1312668E+00
        -11   -1    0    0    0    0  0.00000000000E+00  0.00000000000E+00  0.45593999997E+02  0.45594000000E+02  0.51100000000E-03 0.  1.
         11   -1    0    0    0    0 -0.00000000000E+00 -0.00000000000E+00 -0.45593999997E+02  0.45594000000E+02  0.51100000000E-03 0. -1.
    9900012    2    1    2    0    0  0.14843567790E+02 -0.36584638825E+01  0.40619050192E+02  0.47787273033E+02  0.20000009068E+02 0.  0.
         12    1    1    2    0    0 -0.14843567790E+02  0.36584638825E+01 -0.40619050192E+02  0.43400726967E+02  0.00000000000E+00 0. -1.
         11    1    3    3    0    0  0.87448082271E+01 -0.51552562766E+01  0.11737928106E+02  0.15518611236E+02  0.51100000000E-03 0. -1.
        -11    1    3    3    0    0 -0.23267926149E+01 -0.25520753595E+01  0.24531232608E+01  0.42361381596E+01  0.51100000000E-03 0.  1.
        -12    1    3    3    0    0  0.84255521782E+01  0.40488677536E+01  0.26427998826E+02  0.28032523638E+02  0.00000000000E+00 0.  1.
</event>
<event>
 7    1  0.2647566E-010  0.4778727E+02  0.7816164E-02  0.1312668E+00
        -11   -1    0    0    0    0  0.00000000000E+00  0.00000000000E+00  0.45593999997E+02  0.45594000000E+02  0.51100000000E-03 0.  1.
         11   -1    0    0    0    0 -0.00000000000E+00 -0.00000000000E+00 -0.45593999997E+02  0.45594000000E+02  0.51100000000E-03 0. -1.
    9900012    2    1    2    0    0 -0.39602429128E+02  0.17599360735E+02  0.23523880534E+01  0.47787267049E+02  0.19999981782E+02 0.  0.
         12    1    1    2    0    0  0.39602429128E+02 -0.17599360735E+02 -0.23523880534E+01  0.43400732951E+02  0.00000000000E+00 0. -1.
         11    1    3    3    0    0 -0.29641052338E+02  0.18803811998E+02  0.29169937903E+01  0.35223347121E+02  0.51100000000E-03 0. -1.
        -11    1    3    3    0    0 -0.40087025805E+01  0.14505973309E+01  0.29255313800E+01  0.51703639245E+01  0.51100000000E-03 0.  1.
        -12    1    3    3    0    0 -0.59526742099E+01 -0.26550485935E+01 -0.34901371169E+01  0.73935560036E+01  0.00000000000E+00 0.  1.
</event>
<event>
 7    1  0.2647566E-010  0.4778727E+02  0.7816164E-02  0.1312668E+00
        -11   -1    0    0    0    0  0.00000000000E+00  0.00000000000E+00  0.45593999997E+02  0.45594000000E+02  0.51100000000E-03 0.  1.
         11   -1    0    0    0    0 -0.00000000000E+00 -0.00000000000E+00 -0.45593999997E+02  0.45594000000E+02  0.51100000000E-03 0. -1.
    9900012    2    1    2    0    0 -0.24356615549E+02  0.34249694573E+02 -0.10832215558E+02  0.47787271973E+02  0.20000004235E+02 0.  0.
         12    1    1    2    0    0  0.24356615549E+02 -0.34249694573E+02  0.10832215558E+02  0.43400728027E+02  0.00000000000E+00 0. -1.
         11    1    3    3    0    0 -0.82376123904E+01  0.14351890775E+02 -0.10697614862E+02  0.19704669262E+02  0.51100000000E-03 0. -1.
        -11    1    3    3    0    0 -0.10165624553E+02  0.16804863448E+02 -0.44071663144E+01  0.20128747434E+02  0.51100000000E-03 0.  1.
         12    1    3    3    0    0 -0.59533786059E+01  0.30929403491E+01  0.42725656175E+01  0.79538552780E+01  0.00000000000E+00 0. -1.
</event>
<event>
 7    1  0.2647566E-010  0.4778727E+02  0.7816164E-02  0.1312668E+00
        -11   -1    0    0    0    0  0.00000000000E+00  0.00000000000E+00  0.45593999997E+02  0.45594000000E+02  0.51100000000E-03 0. -1.
         11   -1    0    0    0    0 -0.00000000000E+00 -0.00000000000E+00 -0.45593999997E+02  0.45594000000E+02  0.51100000000E-03 0.  1.
    9900012    2    1    2    0    0  0.28974808153E+02  0.14424958660E+02 -0.28913744209E+02  0.47787267932E+02  0.19999985811E+02 0.  0.
         12    1    1    2    0    0 -0.28974808153E+02 -0.14424958660E+02  0.28913744209E+02  0.43400732068E+02  0.00000000000E+00 0. -1.
         11    1    3    3    0    0  0.95755802797E+00  0.45873567925E+00 -0.66582288627E+01  0.67423562387E+01  0.51100000000E-03 0. -1.
        -11    1    3    3    0    0  0.53312510686E+01  0.89020578365E+01 -0.28384801782E+01  0.10757594604E+02  0.51100000000E-03 0.  1.
        -12    1    3    3    0    0  0.22685999056E+02  0.50641651443E+01 -0.19417035168E+02  0.30287317090E+02  0.00000000000E+00 0.  1.
</event>
<event>
 7    1  0.2647566E-010  0.4778727E+02  0.7816164E-02  0.1312668E+00
        -11   -1    0    0    0    0  0.00000000000E+00  0.00000000000E+00  0.45593999997E+02  0.45594000000E+02  0.51100000000E-03 0.  1.
         11   -1    0    0    0    0 -0.00000000000E+00 -0.00000000000E+00 -0.45593999997E+02  0.45594000000E+02  0.51100000000E-03 0. -1.
    9900012    2    1    2    0    0 -0.92651545076E+01 -0.22439963139E+02  0.35975381375E+02  0.47787273061E+02  0.20000009194E+02 0.  0.
         12    1    1    2    0    0  0.92651545076E+01  0.22439963139E+02 -0.35975381375E+02  0.43400726939E+02  0.00000000000E+00 0. -1.
         11    1    3    3    0    0 -0.91077672302E+00 -0.95621678603E+01  0.43147419485E+01  0.10530031661E+02  0.51100000000E-03 0. -1.
        -11    1    3    3    0    0 -0.71080946046E+01 -0.25488498299E+01  0.62604195150E+01  0.98088988744E+01  0.51100000000E-03 0.  1.
         12    1    3    3    0    0 -0.12462831800E+01 -0.10328945449E+02  0.25400219912E+02  0.27448342526E+02  0.00000000000E+00 0. -1.
</event>
<event>
 7    1  0.2647566E-010  0.4778727E+02  0.7816164E-02  0.1312668E+00
        -11   -1    0    0    0    0  0.00000000000E+00  0.00000000000E+00  0.45593999997E+02  0.45594000000E+02  0.51100000000E-03 0. -1.
         11   -1    0    0    0    0 -0.00000000000E+00 -0.00000000000E+00 -0.45593999997E+02  0.45594000000E+02  0.51100000000E-03 0.  1.
    9900012    2    1    2    0    0  0.37770963891E+02 -0.15974426196E+02 -0.14205467432E+02  0.47787270622E+02  0.19999998075E+02 0.  0.
         12    1    1    2    0    0 -0.37770963891E+02  0.15974426196E+02  0.14205467432E+02  0.43400729378E+02  0.00000000000E+00 0. -1.
         11    1    3    3    0    0  0.10868689761E+02  0.23129524972E+01 -0.43650775792E+01  0.11938679529E+02  0.51100000000E-03 0. -1.
        -11    1    3    3    0    0  0.10696542827E+02 -0.36001572268E+01 -0.81326219918E+01  0.13911028043E+02  0.51100000000E-03 0.  1.
        -12    1    3    3    0    0  0.16205731304E+02 -0.14687221466E+02 -0.17077678606E+01  0.21937563050E+02  0.00000000000E+00 0.  1.
</event>
<event>
 7    1  0.2647566E-010  0.4778727E+02  0.7816164E-02  0.1312668E+00
        -11   -1    0    0    0    0  0.00000000000E+00  0.00000000000E+00  0.45593999997E+02  0.45594000000E+02  0.51100000000E-03 0. -1.
         11   -1    0    0    0    0 -0.00000000000E+00 -0.00000000000E+00 -0.45593999997E+02  0.45594000000E+02  0.51100000000E-03 0.  1.
    9900012    2    1    2    0    0  0.10435102029E+02  0.13819968249E+02 -0.39796238474E+02  0.47787268745E+02  0.19999989516E+02 0.  0.
         12    1    1    2    0    0 -0.10435102029E+02 -0.13819968249E+02  0.39796238474E+02  0.43400731255E+02  0.00000000000E+00 0. -1.
         11    1    3    3    0    0  0.13265427771E+00  0.11650868460E+00  0.18547823704E+01  0.18631664804E+01  0.51100000000E-03 0. -1.
        -11    1    3    3    0    0  0.80445144948E+01  0.55578454652E+01 -0.14507541417E+02  0.17494931206E+02  0.51100000000E-03 0.  1.
        -12    1    3    3    0    0  0.22579332567E+01  0.81456140997E+01 -0.27143479427E+02  0.28429171059E+02  0.00000000000E+00 0.  1.
</event>
<event>
 7    1  0.2647566E-010  0.4778727E+02  0.7816164E-02  0.1312668E+00
        -11   -1    0    0    0    0  0.00000000000E+00  0.00000000000E+00  0.45593999997E+02  0.45594000000E+02  0.51100000000E-03 0.  1.
         11   -1    0    0    0    0 -0.00000000000E+00 -0.00000000000E+00 -0.45593999997E+02  0.45594000000E+02  0.51100000000E-03 0. -1.
    9900012    2    1    2    0    0  0.30847453789E+02  0.91098635895E+01  0.29138782093E+02  0.47787266806E+02  0.19999980676E+02 0.  0.
         12    1    1    2    0    0 -0.30847453789E+02 -0.91098635895E+01 -0.29138782093E+02  0.43400733194E+02  0.00000000000E+00 0. -1.
         11    1    3    3    0    0  0.17759734710E+02  0.42379246151E+01  0.12975043356E+02  0.22399105615E+02  0.51100000000E-03 0. -1.
        -11    1    3    3    0    0  0.83497555933E+01  0.50755515987E+01  0.13872869655E+01  0.98693570147E+01  0.51100000000E-03 0.  1.
        -12    1    3    3    0    0  0.47379634857E+01 -0.20361262432E+00  0.14776451772E+02  0.15518804176E+02  0.00000000000E+00 0.  1.
</event>
<event>
 7    1  0.2647566E-010  0.4778727E+02  0.7816164E-02  0.1312668E+00
        -11   -1    0    0    0    0  0.00000000000E+00  0.00000000000E+00  0.45593999997E+02  0.45594000000E+02  0.51100000000E-03 0. -1.
         11   -1    0    0    0    0 -0.00000000000E+00 -0.00000000000E+00 -0.45593999997E+02  0.45594000000E+02  0.51100000000E-03 0.  1.
    9900012    2    1    2    0    0  0.26705693854E+02  0.28639257742E+02 -0.18714222061E+02  0.47787271025E+02  0.19999999911E+02 0.  0.
         12    1    1    2    0    0 -0.26705693854E+02 -0.28639257742E+02  0.18714222061E+02  0.43400728975E+02  0.00000000000E+00 0. -1.
         11    1    3    3    0    0  0.26138712108E+01  0.27943975172E+01  0.31908339153E+01  0.49822084989E+01  0.51100000000E-03 0. -1.
        -11    1    3    3    0    0  0.96149794192E+01  0.12138855536E+02 -0.15388484237E+02  0.21831286960E+02  0.51100000000E-03 0.  1.
         12    1    3    3    0    0  0.14476843224E+02  0.13706004689E+02 -0.65165717388E+01  0.20973775566E+02  0.00000000000E+00 0. -1.
</event>
<event>
 7    1  0.2647566E-010  0.4778727E+02  0.7816164E-02  0.1312668E+00
        -11   -1    0    0    0    0  0.00000000000E+00  0.00000000000E+00  0.45593999997E+02  0.45594000000E+02  0.51100000000E-03 0.  1.
         11   -1    0    0    0    0 -0.00000000000E+00 -0.00000000000E+00 -0.45593999997E+02  0.45594000000E+02  0.51100000000E-03 0. -1.
    9900012    2    1    2    0    0  0.20526181483E+02 -0.24454390814E+02  0.29398669234E+02  0.47787272943E+02  0.20000008657E+02 0.  0.
         12    1    1    2    0    0 -0.20526181483E+02  0.24454390814E+02 -0.29398669234E+02  0.43400727057E+02  0.00000000000E+00 0. -1.
         11    1    3    3    0    0  0.94158972646E+00 -0.51400400568E+01  0.96854771182E+00  0.53145731653E+01  0.51100000000E-03 0. -1.
        -11    1    3    3    0    0  0.15062968233E+02 -0.21190537467E+02  0.26735301359E+02  0.37292200648E+02  0.51100000000E-03 0.  1.
        -12    1    3    3    0    0  0.45216235230E+01  0.18761867096E+01  0.16948201628E+01  0.51804991302E+01  0.00000000000E+00 0.  1.
</event>
<event>
 7    1  0.2647566E-010  0.4778727E+02  0.7816164E-02  0.1312668E+00
        -11   -1    0    0    0    0  0.00000000000E+00  0.00000000000E+00  0.45593999997E+02  0.45594000000E+02  0.51100000000E-03 0. -1.
         11   -1    0    0    0    0 -0.00000000000E+00 -0.00000000000E+00 -0.45593999997E+02  0.45594000000E+02  0.51100000000E-03 0.  1.
    9900012    2    1    2    0    0 -0.10963359399E+01 -0.38044333875E+02 -0.20857848942E+02  0.47787272414E+02  0.20000006245E+02 0.  0.
         12    1    1    2    0    0  0.10963359399E+01  0.38044333875E+02  0.20857848942E+02  0.43400727586E+02  0.00000000000E+00 0. -1.
         11    1    3    3    0    0  0.29301373320E+01 -0.27673216990E+01 -0.23435670084E+01  0.46621969880E+01  0.51100000000E-03 0. -1.
        -11    1    3    3    0    0  0.37475269172E+01 -0.20698645121E+02 -0.15965840330E+02  0.26408065539E+02  0.51100000000E-03 0.  1.
         12    1    3    3    0    0 -0.77740001891E+01 -0.14578367055E+02 -0.25484416036E+01  0.16717009887E+02  0.00000000000E+00 0. -1.
</event>
<event>
 7    1  0.2647566E-010  0.4778727E+02  0.7816164E-02  0.1312668E+00
        -11   -1    0    0    0    0  0.00000000000E+00  0.00000000000E+00  0.45593999997E+02  0.45594000000E+02  0.51100000000E-03 0.  1.
         11   -1    0    0    0    0 -0.00000000000E+00 -0.00000000000E+00 -0.45593999997E+02  0.45594000000E+02  0.51100000000E-03 0. -1.
    9900012    2    1    2    0    0  0.49882281405E+01  0.92786358044E+01  0.42102822338E+02  0.47787272458E+02  0.20000006444E+02 0.  0.
         12    1    1    2    0    0 -0.49882281405E+01 -0.92786358044E+01 -0.42102822338E+02  0.43400727542E+02  0.00000000000E+00 0. -1.
         11    1    3    3    0    0  0.70474245803E+01  0.74338300549E+01  0.36670792860E+02  0.38074598774E+02  0.51100000000E-03 0.  1.
        -11    1    3    3    0    0  0.20046638181E+01  0.22939825318E+01  0.46358529315E+01  0.55472664929E+01  0.51100000000E-03 0. -1.
        -12    1    3    3    0    0 -0.40638602578E+01 -0.44917678232E+00  0.79617654622E+00  0.41654071913E+01  0.00000000000E+00 0.  1.
</event>
<event>
 7    1  0.2647566E-010  0.4778728E+02  0.7816164E-02  0.1312668E+00
        -11   -1    0    0    0    0  0.00000000000E+00  0.00000000000E+00  0.45593999997E+02  0.45594000000E+02  0.51100000000E-03 0.  1.
         11   -1    0    0    0    0 -0.00000000000E+00 -0.00000000000E+00 -0.45593999997E+02  0.45594000000E+02  0.51100000000E-03 0. -1.
    9900012    2    1    2    0    0 -0.27872558731E+02  0.27870499369E+02 -0.18165313248E+02  0.47787275689E+02  0.20000021178E+02 0.  0.
         12    1    1    2    0    0  0.27872558731E+02 -0.27870499369E+02  0.18165313248E+02  0.43400724311E+02  0.00000000000E+00 0. -1.
         11    1    3    3    0    0 -0.10744657164E+02  0.17767366210E+02 -0.93890590777E+01  0.22787746493E+02  0.51100000000E-03 0. -1.
        -11    1    3    3    0    0 -0.11738888188E+02  0.83719363776E+01 -0.11755314496E+02  0.18603178055E+02  0.51100000000E-03 0.  1.
        -12    1    3    3    0    0 -0.53890133788E+01  0.17311967821E+01  0.29790603256E+01  0.63963511410E+01  0.00000000000E+00 0.  1.
</event>
<event>
 7    1  0.2647566E-010  0.4778727E+02  0.7816164E-02  0.1312668E+00
        -11   -1    0    0    0    0  0.00000000000E+00  0.00000000000E+00  0.45593999997E+02  0.45594000000E+02  0.51100000000E-03 0.  1.
         11   -1    0    0    0    0 -0.00000000000E+00 -0.00000000000E+00 -0.45593999997E+02  0.45594000000E+02  0.51100000000E-03 0. -1.
    9900012    2    1    2    0    0  0.29115346138E+02 -0.18485392547E+02  0.26347871640E+02  0.47787268919E+02  0.19999990311E+02 0.  0.
         12    1    1    2    0    0 -0.29115346138E+02  0.18485392547E+02 -0.26347871640E+02  0.43400731081E+02  0.00000000000E+00 0. -1.
         11    1    3    3    0    0 -0.12480611317E+01 -0.40793526819E+01  0.44524757443E+01  0.61663048422E+01  0.51100000000E-03 0. -1.
        -11    1    3    3    0    0  0.40093721024E+00  0.11576173474E+01  0.22394769704E+01  0.25526625182E+01  0.51100000000E-03 0.  1.
        -12    1    3    3    0    0  0.29962470060E+02 -0.15563657212E+02  0.19655918925E+02  0.39068301559E+02  0.00000000000E+00 0.  1.
</event>
<event>
 7    1  0.2647566E-010  0.4778728E+02  0.7816164E-02  0.1312668E+00
        -11   -1    0    0    0    0  0.00000000000E+00  0.00000000000E+00  0.45593999997E+02  0.45594000000E+02  0.51100000000E-03 0. -1.
         11   -1    0    0    0    0 -0.00000000000E+00 -0.00000000000E+00 -0.45593999997E+02  0.45594000000E+02  0.51100000000E-03 0.  1.
    9900012    2    1    2    0    0  0.18184591638E+02 -0.38021705683E+02  0.10358252653E+02  0.47787275650E+02  0.20000020998E+02 0.  0.
         12    1    1    2    0    0 -0.18184591638E+02  0.38021705683E+02 -0.10358252653E+02  0.43400724350E+02  0.00000000000E+00 0. -1.
         11    1    3    3    0    0  0.58802619242E+01 -0.44349590551E+01 -0.74138906905E+00  0.74024320416E+01  0.51100000000E-03 0. -1.
        -11    1    3    3    0    0  0.10953824397E+01  0.33594590240E+00  0.37353897684E+01  0.39071548884E+01  0.51100000000E-03 0.  1.
        -12    1    3    3    0    0  0.11208947274E+02 -0.33922692530E+02  0.73642519535E+01  0.36477688720E+02  0.00000000000E+00 0.  1.
</event>
<event>
 7    1  0.2647566E-010  0.4778727E+02  0.7816164E-02  0.1312668E+00
        -11   -1    0    0    0    0  0.00000000000E+00  0.00000000000E+00  0.45593999997E+02  0.45594000000E+02  0.51100000000E-03 0. -1.
         11   -1    0    0    0    0 -0.00000000000E+00 -0.00000000000E+00 -0.45593999997E+02  0.45594000000E+02  0.51100000000E-03 0.  1.
    9900012    2    1    2    0    0  0.17898279249E+02  0.27455751003E+01 -0.39442825169E+02  0.47787273739E+02  0.20000012285E+02 0.  0.
         12    1    1    2    0    0 -0.17898279249E+02 -0.27455751003E+01  0.39442825169E+02  0.43400726261E+02  0.00000000000E+00 0. -1.
         11    1    3    3    0    0  0.93572175707E+00 -0.26772182734E+01 -0.12775798146E+02  0.13086790723E+02  0.51100000000E-03 0. -1.
        -11    1    3    3    0    0  0.13553438665E+02  0.75312808636E+00 -0.25372795568E+02  0.28775712967E+02  0.51100000000E-03 0.  1.
         12    1    3    3    0    0  0.34091188272E+01  0.46696652873E+01 -0.12942314541E+01  0.59247700487E+01  0.00000000000E+00 0. -1.
</event>
<event>
 7    1  0.2647566E-010  0.4778724E+02  0.7816164E-02  0.1312668E+00
        -11   -1    0    0    0    0  0.00000000000E+00  0.00000000000E+00  0.45593999997E+02  0.45594000000E+02  0.51100000000E-03 0.  1.
         11   -1    0    0    0    0 -0.00000000000E+00 -0.00000000000E+00 -0.45593999997E+02  0.45594000000E+02  0.51100000000E-03 0. -1.
    9900012    2    1    2    0    0  0.34171100141E+02  0.21514117683E+02  0.15909253238E+02  0.47787243289E+02  0.19999873451E+02 0.  0.
         12    1    1    2    0    0 -0.34171100141E+02 -0.21514117683E+02 -0.15909253238E+02  0.43400756711E+02  0.00000000000E+00 0. -1.
         11    1    3    3    0    0  0.47913830788E+01  0.39842467726E+01 -0.41892624185E+01  0.75087611512E+01  0.51100000000E-03 0.  1.
        -11    1    3    3    0    0  0.10461504166E+02  0.66042345560E+01  0.35471721950E+01  0.12870175381E+02  0.51100000000E-03 0. -1.
        -12    1    3    3    0    0  0.18918212896E+02  0.10925636355E+02  0.16551343461E+02  0.27408306757E+02  0.00000000000E+00 0.  1.
</event>
<event>
 7    1  0.2647566E-010  0.4778727E+02  0.7816164E-02  0.1312668E+00
        -11   -1    0    0    0    0  0.00000000000E+00  0.00000000000E+00  0.45593999997E+02  0.45594000000E+02  0.51100000000E-03 0. -1.
         11   -1    0    0    0    0 -0.00000000000E+00 -0.00000000000E+00 -0.45593999997E+02  0.45594000000E+02  0.51100000000E-03 0.  1.
    9900012    2    1    2    0    0  0.38029324369E+00  0.42295829695E+02  0.97232253845E+01  0.47787274840E+02  0.20000017306E+02 0.  0.
         12    1    1    2    0    0 -0.38029324369E+00 -0.42295829695E+02 -0.97232253845E+01  0.43400725160E+02  0.00000000000E+00 0. -1.
         11    1    3    3    0    0 -0.26492080690E+01  0.48400129343E+01  0.38246565572E+01  0.67135703347E+01  0.51100000000E-03 0. -1.
        -11    1    3    3    0    0  0.62473560097E+01  0.23635452279E+02  0.98295100755E+01  0.26349256728E+02  0.51100000000E-03 0.  1.
         12    1    3    3    0    0 -0.32178546970E+01  0.13820364482E+02 -0.39309412481E+01  0.14724447777E+02  0.00000000000E+00 0. -1.
</event>
<event>
 7    1  0.2647566E-010  0.4778727E+02  0.7816164E-02  0.1312668E+00
        -11   -1    0    0    0    0  0.00000000000E+00  0.00000000000E+00  0.45593999997E+02  0.45594000000E+02  0.51100000000E-03 0. -1.
         11   -1    0    0    0    0 -0.00000000000E+00 -0.00000000000E+00 -0.45593999997E+02  0.45594000000E+02  0.51100000000E-03 0.  1.
    9900012    2    1    2    0    0  0.20923862168E+02 -0.32156943006E+02 -0.20291536558E+02  0.47787269045E+02  0.19999990885E+02 0.  0.
         12    1    1    2    0    0 -0.20923862168E+02  0.32156943006E+02  0.20291536558E+02  0.43400730955E+02  0.00000000000E+00 0. -1.
         11    1    3    3    0    0  0.26699053306E+01  0.34626136528E-01 -0.49680856416E+01  0.56401656578E+01  0.51100000000E-03 0. -1.
        -11    1    3    3    0    0  0.98183911355E+01 -0.10052877796E+02 -0.11481520678E+02  0.18146252335E+02  0.51100000000E-03 0.  1.
         12    1    3    3    0    0  0.84355657018E+01 -0.22138691347E+02 -0.38419302375E+01  0.24000851052E+02  0.00000000000E+00 0. -1.
</event>
<event>
 7    1  0.2647566E-010  0.4778727E+02  0.7816164E-02  0.1312668E+00
        -11   -1    0    0    0    0  0.00000000000E+00  0.00000000000E+00  0.45593999997E+02  0.45594000000E+02  0.51100000000E-03 0.  1.
         11   -1    0    0    0    0 -0.00000000000E+00 -0.00000000000E+00 -0.45593999997E+02  0.45594000000E+02  0.51100000000E-03 0. -1.
    9900012    2    1    2    0    0  0.37685804814E+02 -0.84732355709E+01  0.19789081217E+02  0.47787270272E+02  0.19999996478E+02 0.  0.
         12    1    1    2    0    0 -0.37685804814E+02  0.84732355709E+01 -0.19789081217E+02  0.43400729728E+02  0.00000000000E+00 0. -1.
         11    1    3    3    0    0  0.15068215267E+00  0.55542872936E+00  0.21281899702E+01  0.22046312605E+01  0.51100000000E-03 0. -1.
        -11    1    3    3    0    0  0.18172230504E+02 -0.51368740428E+01  0.17626672059E+02  0.25832479644E+02  0.51100000000E-03 0.  1.
         12    1    3    3    0    0  0.19362892157E+02 -0.38917902575E+01  0.34219188217E-01  0.19750159367E+02  0.00000000000E+00 0. -1.
</event>
<event>
 7    1  0.2647566E-010  0.4778728E+02  0.7816164E-02  0.1312668E+00
        -11   -1    0    0    0    0  0.00000000000E+00  0.00000000000E+00  0.45593999997E+02  0.45594000000E+02  0.51100000000E-03 0.  1.
         11   -1    0    0    0    0 -0.00000000000E+00 -0.00000000000E+00 -0.45593999997E+02  0.45594000000E+02  0.51100000000E-03 0. -1.
    9900012    2    1    2    0    0 -0.37323768721E+02 -0.20760623839E+02  0.77172012017E+01  0.47787281018E+02  0.20000045473E+02 0.  0.
         12    1    1    2    0    0  0.37323768721E+02  0.20760623839E+02 -0.77172012017E+01  0.43400718982E+02  0.00000000000E+00 0. -1.
         11    1    3    3    0    0 -0.14679022271E+02 -0.74651671454E+01  0.36037380200E+01  0.16857916340E+02  0.51100000000E-03 0.  1.
        -11    1    3    3    0    0 -0.34312561193E+01 -0.40643794050E+01  0.76546048617E+01  0.93212485405E+01  0.51100000000E-03 0. -1.
         12    1    3    3    0    0 -0.19213490331E+02 -0.92310772889E+01 -0.35411416800E+01  0.21608116138E+02  0.00000000000E+00 0. -1.
</event>
<event>
 7    1  0.2647566E-010  0.4778728E+02  0.7816164E-02  0.1312668E+00
        -11   -1    0    0    0    0  0.00000000000E+00  0.00000000000E+00  0.45593999997E+02  0.45594000000E+02  0.51100000000E-03 0. -1.
         11   -1    0    0    0    0 -0.00000000000E+00 -0.00000000000E+00 -0.45593999997E+02  0.45594000000E+02  0.51100000000E-03 0.  1.
    9900012    2    1    2    0    0 -0.40381938297E+02 -0.71969778791E+01 -0.14181862412E+02  0.47787278200E+02  0.20000032627E+02 0.  0.
         12    1    1    2    0    0  0.40381938297E+02  0.71969778791E+01  0.14181862412E+02  0.43400721800E+02  0.00000000000E+00 0. -1.
         11    1    3    3    0    0 -0.25588165406E+02 -0.12152903550E+02 -0.32161433055E+01  0.28509487045E+02  0.51100000000E-03 0. -1.
        -11    1    3    3    0    0 -0.24094522340E+01  0.17466153102E+00 -0.75844601247E+00  0.25320362030E+01  0.51100000000E-03 0.  1.
        -12    1    3    3    0    0 -0.12384320657E+02  0.47812641397E+01 -0.10207273094E+02  0.16745754952E+02  0.00000000000E+00 0.  1.
</event>
<event>
 7    1  0.2763924E-010  0.4778727E+02  0.7816164E-02  0.1312668E+00
        -11   -1    0    0    0    0  0.00000000000E+00  0.00000000000E+00  0.45593999997E+02  0.45594000000E+02  0.51100000000E-03 0.  1.
         11   -1    0    0    0    0 -0.00000000000E+00 -0.00000000000E+00 -0.45593999997E+02  0.45594000000E+02  0.51100000000E-03 0. -1.
    9900012    2    1    2    0    0  0.22468110577E+02  0.32800329574E+02  0.17405334349E+02  0.47787271010E+02  0.19999999844E+02 0.  0.
         12    1    1    2    0    0 -0.22468110577E+02 -0.32800329574E+02 -0.17405334349E+02  0.43400728990E+02  0.00000000000E+00 0. -1.
         11    1    3    3    0    0  0.10317468090E+02  0.14053554932E+02  0.14784874293E+01  0.17496813406E+02  0.51100000000E-03 0. -1.
        -11    1    3    3    0    0  0.13815081127E+02  0.14973621954E+02  0.90965232675E+01  0.22311713444E+02  0.51100000000E-03 0.  1.
         12    1    3    3    0    0 -0.16644386404E+01  0.37731526879E+01  0.68303236521E+01  0.79787441610E+01  0.00000000000E+00 0. -1.
</event>
<event>
 7    1  0.2647566E-010  0.4778727E+02  0.7816164E-02  0.1312668E+00
        -11   -1    0    0    0    0  0.00000000000E+00  0.00000000000E+00  0.45593999997E+02  0.45594000000E+02  0.51100000000E-03 0.  1.
         11   -1    0    0    0    0 -0.00000000000E+00 -0.00000000000E+00 -0.45593999997E+02  0.45594000000E+02  0.51100000000E-03 0. -1.
    9900012    2    1    2    0    0  0.24893129955E+02  0.13585155734E+02  0.32854207532E+02  0.47787270423E+02  0.19999997167E+02 0.  0.
         12    1    1    2    0    0 -0.24893129955E+02 -0.13585155734E+02 -0.32854207532E+02  0.43400729577E+02  0.00000000000E+00 0. -1.
         11    1    3    3    0    0  0.23223120658E+00 -0.59914963042E+00 -0.15496225764E+01  0.16775702678E+01  0.51100000000E-03 0. -1.
        -11    1    3    3    0    0  0.91364949536E+01 -0.16038878464E+00  0.14089655945E+02  0.16793441265E+02  0.51100000000E-03 0.  1.
        -12    1    3    3    0    0  0.15524403795E+02  0.14344694149E+02  0.20314174163E+02  0.29316258890E+02  0.00000000000E+00 0.  1.
</event>
<event>
 7    1  0.2647566E-010  0.4778727E+02  0.7816164E-02  0.1312668E+00
        -11   -1    0    0    0    0  0.00000000000E+00  0.00000000000E+00  0.45593999997E+02  0.45594000000E+02  0.51100000000E-03 0. -1.
         11   -1    0    0    0    0 -0.00000000000E+00 -0.00000000000E+00 -0.45593999997E+02  0.45594000000E+02  0.51100000000E-03 0.  1.
    9900012    2    1    2    0    0  0.32604562748E+02 -0.10971442151E+01 -0.28624498938E+02  0.47787272162E+02  0.20000005096E+02 0.  0.
         12    1    1    2    0    0 -0.32604562748E+02  0.10971442151E+01  0.28624498938E+02  0.43400727838E+02  0.00000000000E+00 0. -1.
         11    1    3    3    0    0  0.39518142988E+01 -0.33041772755E+01 -0.73379594464E+01  0.89654934509E+01  0.51100000000E-03 0. -1.
        -11    1    3    3    0    0  0.64843195802E+01 -0.31997807082E+01 -0.12359776223E+02  0.14319534404E+02  0.51100000000E-03 0.  1.
        -12    1    3    3    0    0  0.22168428869E+02  0.54068137685E+01 -0.89267632685E+01  0.24502244307E+02  0.00000000000E+00 0.  1.
</event>
<event>
 7    1  0.2647566E-010  0.4778727E+02  0.7816164E-02  0.1312668E+00
        -11   -1    0    0    0    0  0.00000000000E+00  0.00000000000E+00  0.45593999997E+02  0.45594000000E+02  0.51100000000E-03 0.  1.
         11   -1    0    0    0    0 -0.00000000000E+00 -0.00000000000E+00 -0.45593999997E+02  0.45594000000E+02  0.51100000000E-03 0. -1.
    9900012    2    1    2    0    0  0.37497675405E+02  0.20233612488E+02  0.82552163079E+01  0.47787270382E+02  0.19999996980E+02 0.  0.
         12    1    1    2    0    0 -0.37497675405E+02 -0.20233612488E+02 -0.82552163079E+01  0.43400729618E+02  0.00000000000E+00 0. -1.
         11    1    3    3    0    0  0.12442029418E+02  0.11105199205E+02  0.13276804061E+01  0.16729981498E+02  0.51100000000E-03 0. -1.
        -11    1    3    3    0    0  0.12084301444E+02  0.11387120678E+02  0.10466349329E+01  0.16637076175E+02  0.51100000000E-03 0.  1.
         12    1    3    3    0    0  0.12971344543E+02 -0.22587073946E+01  0.58809009689E+01  0.14420212708E+02  0.00000000000E+00 0. -1.
</event>
<event>
 7    1  0.2647566E-010  0.4778727E+02  0.7816164E-02  0.1312668E+00
        -11   -1    0    0    0    0  0.00000000000E+00  0.00000000000E+00  0.45593999997E+02  0.45594000000E+02  0.51100000000E-03 0. -1.
         11   -1    0    0    0    0 -0.00000000000E+00 -0.00000000000E+00 -0.45593999997E+02  0.45594000000E+02  0.51100000000E-03 0.  1.
    9900012    2    1    2    0    0  0.26994469084E+02 -0.25925573993E+02  0.21972404257E+02  0.47787270780E+02  0.19999998796E+02 0.  0.
         12    1    1    2    0    0 -0.26994469084E+02  0.25925573993E+02 -0.21972404257E+02  0.43400729220E+02  0.00000000000E+00 0. -1.
         11    1    3    3    0    0  0.13442130585E+02 -0.11718714064E+02  0.56860586432E+01  0.18717649349E+02  0.51100000000E-03 0. -1.
        -11    1    3    3    0    0  0.69214122884E+00 -0.85913343317E+00 -0.24669189320E+01  0.27023802499E+01  0.51100000000E-03 0.  1.
         12    1    3    3    0    0  0.12860197270E+02 -0.13347726495E+02  0.18753264546E+02  0.26367241182E+02  0.00000000000E+00 0. -1.
</event>
<event>
 7    1  0.2647566E-010  0.4778727E+02  0.7816164E-02  0.1312668E+00
        -11   -1    0    0    0    0  0.00000000000E+00  0.00000000000E+00  0.45593999997E+02  0.45594000000E+02  0.51100000000E-03 0. -1.
         11   -1    0    0    0    0 -0.00000000000E+00 -0.00000000000E+00 -0.45593999997E+02  0.45594000000E+02  0.51100000000E-03 0.  1.
    9900012    2    1    2    0    0 -0.67390591955E+01  0.93220866079E+01 -0.41848620120E+02  0.47787271624E+02  0.20000002643E+02 0.  0.
         12    1    1    2    0    0  0.67390591955E+01 -0.93220866079E+01  0.41848620120E+02  0.43400728376E+02  0.00000000000E+00 0. -1.
         11    1    3    3    0    0 -0.19173299585E+01  0.68536963740E+01 -0.35415419958E+01  0.79493287846E+01  0.51100000000E-03 0. -1.
        -11    1    3    3    0    0  0.17185284148E+01  0.38013751207E+01 -0.12310528135E+02  0.12998188180E+02  0.51100000000E-03 0.  1.
        -12    1    3    3    0    0 -0.65402576518E+01 -0.13329848868E+01 -0.25996549989E+02  0.26839754660E+02  0.00000000000E+00 0.  1.
</event>
<event>
 7    1  0.2647566E-010  0.4778727E+02  0.7816164E-02  0.1312668E+00
        -11   -1    0    0    0    0  0.00000000000E+00  0.00000000000E+00  0.45593999997E+02  0.45594000000E+02  0.51100000000E-03 0. -1.
         11   -1    0    0    0    0 -0.00000000000E+00 -0.00000000000E+00 -0.45593999997E+02  0.45594000000E+02  0.51100000000E-03 0.  1.
    9900012    2    1    2    0    0 -0.41677802964E+02  0.93858471644E+01 -0.76478710775E+01  0.47787270525E+02  0.19999997633E+02 0.  0.
         12    1    1    2    0    0  0.41677802964E+02 -0.93858471644E+01  0.76478710775E+01  0.43400729475E+02  0.00000000000E+00 0. -1.
         11    1    3    3    0    0 -0.17014890109E+02  0.61243060724E+00 -0.11397087243E+02  0.20488415130E+02  0.51100000000E-03 0. -1.
        -11    1    3    3    0    0 -0.12193853846E+02  0.49818485913E+01 -0.14820028947E+01  0.13255384560E+02  0.51100000000E-03 0.  1.
         12    1    3    3    0    0 -0.12469059010E+02  0.37915679659E+01  0.52312190603E+01  0.14043470835E+02  0.00000000000E+00 0. -1.
</event>
<event>
 7    1  0.2647566E-010  0.4778732E+02  0.7816164E-02  0.1312668E+00
        -11   -1    0    0    0    0  0.00000000000E+00  0.00000000000E+00  0.45593999997E+02  0.45594000000E+02  0.51100000000E-03 0.  1.
         11   -1    0    0    0    0 -0.00000000000E+00 -0.00000000000E+00 -0.45593999997E+02  0.45594000000E+02  0.51100000000E-03 0. -1.
    9900012    2    1    2    0    0  0.31079168344E+02 -0.23024451411E+02  0.19687032792E+02  0.47787316504E+02  0.20000207269E+02 0.  0.
         12    1    1    2    0    0 -0.31079168344E+02  0.23024451411E+02 -0.19687032792E+02  0.43400683496E+02  0.00000000000E+00 0. -1.
         11    1    3    3    0    0  0.33787393642E+01 -0.11129490290E+02  0.11177466107E+02  0.16131248638E+02  0.51100000000E-03 0. -1.
        -11    1    3    3    0    0  0.10095653139E+02 -0.62692316759E+01  0.47370786337E+01  0.12793177571E+02  0.51100000000E-03 0.  1.
         12    1    3    3    0    0  0.17604775841E+02 -0.56257294454E+01  0.37724880517E+01  0.18862890295E+02  0.00000000000E+00 0. -1.
</event>
<event>
 7    1  0.2647566E-010  0.4778727E+02  0.7816164E-02  0.1312668E+00
        -11   -1    0    0    0    0  0.00000000000E+00  0.00000000000E+00  0.45593999997E+02  0.45594000000E+02  0.51100000000E-03 0.  1.
         11   -1    0    0    0    0 -0.00000000000E+00 -0.00000000000E+00 -0.45593999997E+02  0.45594000000E+02  0.51100000000E-03 0. -1.
    9900012    2    1    2    0    0  0.18150689677E+01  0.31399239877E+02  0.29906798543E+02  0.47787270290E+02  0.19999996562E+02 0.  0.
         12    1    1    2    0    0 -0.18150689677E+01 -0.31399239877E+02 -0.29906798543E+02  0.43400729710E+02  0.00000000000E+00 0. -1.
         11    1    3    3    0    0  0.10662017811E+01  0.16396218888E+02  0.83851985171E+01  0.18446797405E+02  0.51100000000E-03 0. -1.
        -11    1    3    3    0    0 -0.38214785375E+01  0.53876501365E+01  0.16080653612E+02  0.17384415235E+02  0.51100000000E-03 0.  1.
         12    1    3    3    0    0  0.45703457240E+01  0.96153708527E+01  0.54409464143E+01  0.11956057651E+02  0.00000000000E+00 0. -1.
</event>
<event>
 7    1  0.2647566E-010  0.4778728E+02  0.7816164E-02  0.1312668E+00
        -11   -1    0    0    0    0  0.00000000000E+00  0.00000000000E+00  0.45593999997E+02  0.45594000000E+02  0.51100000000E-03 0. -1.
         11   -1    0    0    0    0 -0.00000000000E+00 -0.00000000000E+00 -0.45593999997E+02  0.45594000000E+02  0.51100000000E-03 0.  1.
    9900012    2    1    2    0    0 -0.25147476231E+02  0.12485457359E+02 -0.33095931861E+02  0.47787275213E+02  0.20000019008E+02 0.  0.
         12    1    1    2    0    0  0.25147476231E+02 -0.12485457359E+02  0.33095931861E+02  0.43400724787E+02  0.00000000000E+00 0. -1.
         11    1    3    3    0    0 -0.40356024391E+01  0.39257132896E+01 -0.62464603317E+01  0.84092555447E+01  0.51100000000E-03 0. -1.
        -11    1    3    3    0    0 -0.47928052523E+01  0.10858057540E+01 -0.19282797140E+02  0.19899151291E+02  0.51100000000E-03 0.  1.
         12    1    3    3    0    0 -0.16319068540E+02  0.74739383151E+01 -0.75666743896E+01  0.19478868377E+02  0.00000000000E+00 0. -1.
</event>
<event>
 7    1  0.2647566E-010  0.4778727E+02  0.7816164E-02  0.1312668E+00
        -11   -1    0    0    0    0  0.00000000000E+00  0.00000000000E+00  0.45593999997E+02  0.45594000000E+02  0.51100000000E-03 0.  1.
         11   -1    0    0    0    0 -0.00000000000E+00 -0.00000000000E+00 -0.45593999997E+02  0.45594000000E+02  0.51100000000E-03 0. -1.
    9900012    2    1    2    0    0  0.40990669209E+02  0.81333553053E+01  0.11714804247E+02  0.47787273402E+02  0.20000010749E+02 0.  0.
         12    1    1    2    0    0 -0.40990669209E+02 -0.81333553053E+01 -0.11714804247E+02  0.43400726598E+02  0.00000000000E+00 0. -1.
         11    1    3    3    0    0  0.10863572759E+02  0.99489079914E+01  0.74224088204E+01  0.16495154933E+02  0.51100000000E-03 0. -1.
        -11    1    3    3    0    0  0.15347100837E+02  0.26100358790E+01  0.22455271247E+01  0.15728578567E+02  0.51100000000E-03 0.  1.
         12    1    3    3    0    0  0.14779995612E+02 -0.44255885650E+01  0.20468683015E+01  0.15563539902E+02  0.00000000000E+00 0. -1.
</event>
<event>
 7    1  0.2647566E-010  0.4778727E+02  0.7816164E-02  0.1312668E+00
        -11   -1    0    0    0    0  0.00000000000E+00  0.00000000000E+00  0.45593999997E+02  0.45594000000E+02  0.51100000000E-03 0.  1.
         11   -1    0    0    0    0 -0.00000000000E+00 -0.00000000000E+00 -0.45593999997E+02  0.45594000000E+02  0.51100000000E-03 0. -1.
    9900012    2    1    2    0    0 -0.12404289101E+02 -0.40387165681E+02  0.99314485741E+01  0.47787271773E+02  0.20000003322E+02 0.  0.
         12    1    1    2    0    0  0.12404289101E+02  0.40387165681E+02 -0.99314485741E+01  0.43400728227E+02  0.00000000000E+00 0. -1.
         11    1    3    3    0    0 -0.58664841830E+01 -0.21009641518E+01  0.22854995757E+01  0.66372581393E+01  0.51100000000E-03 0. -1.
        -11    1    3    3    0    0 -0.82230237076E+01 -0.15209441801E+02  0.35964868229E+01  0.17660123344E+02  0.51100000000E-03 0.  1.
         12    1    3    3    0    0  0.16852187897E+01 -0.23076759728E+02  0.40494621755E+01  0.23489890290E+02  0.00000000000E+00 0. -1.
</event>
<event>
 7    1  0.2647566E-010  0.4778727E+02  0.7816164E-02  0.1312668E+00
        -11   -1    0    0    0    0  0.00000000000E+00  0.00000000000E+00  0.45593999997E+02  0.45594000000E+02  0.51100000000E-03 0. -1.
         11   -1    0    0    0    0 -0.00000000000E+00 -0.00000000000E+00 -0.45593999997E+02  0.45594000000E+02  0.51100000000E-03 0.  1.
    9900012    2    1    2    0    0  0.10652126644E+02 -0.35613986244E+02  0.22400877162E+02  0.47787272865E+02  0.20000008299E+02 0.  0.
         12    1    1    2    0    0 -0.10652126644E+02  0.35613986244E+02 -0.22400877162E+02  0.43400727135E+02  0.00000000000E+00 0. -1.
         11    1    3    3    0    0  0.11389916637E+02 -0.17213537288E+02  0.11902062463E+02  0.23826354276E+02  0.51100000000E-03 0. -1.
        -11    1    3    3    0    0  0.25843615391E-01 -0.97176168060E+01  0.11647787885E+02  0.15169169626E+02  0.51100000000E-03 0.  1.
        -12    1    3    3    0    0 -0.76363360825E+00 -0.86828321504E+01 -0.11489731854E+01  0.87917489626E+01  0.00000000000E+00 0.  1.
</event>
<event>
 7    1  0.2647566E-010  0.4778727E+02  0.7816164E-02  0.1312668E+00
        -11   -1    0    0    0    0  0.00000000000E+00  0.00000000000E+00  0.45593999997E+02  0.45594000000E+02  0.51100000000E-03 0. -1.
         11   -1    0    0    0    0 -0.00000000000E+00 -0.00000000000E+00 -0.45593999997E+02  0.45594000000E+02  0.51100000000E-03 0.  1.
    9900012    2    1    2    0    0 -0.21238137362E+02 -0.21939814118E+02 -0.30841678757E+02  0.47787273385E+02  0.20000010671E+02 0.  0.
         12    1    1    2    0    0  0.21238137362E+02  0.21939814118E+02  0.30841678757E+02  0.43400726615E+02  0.00000000000E+00 0. -1.
         11    1    3    3    0    0 -0.48888222846E+00 -0.34046326931E+01 -0.10535154324E+02  0.11082418802E+02  0.51100000000E-03 0. -1.
        -11    1    3    3    0    0 -0.12476858586E+02 -0.75870701043E+01 -0.17333184248E+02  0.22664397397E+02  0.51100000000E-03 0.  1.
        -12    1    3    3    0    0 -0.82723965473E+01 -0.10948111321E+02 -0.29733401856E+01  0.14040457186E+02  0.00000000000E+00 0.  1.
</event>
<event>
 7    1  0.2647566E-010  0.4778727E+02  0.7816164E-02  0.1312668E+00
        -11   -1    0    0    0    0  0.00000000000E+00  0.00000000000E+00  0.45593999997E+02  0.45594000000E+02  0.51100000000E-03 0.  1.
         11   -1    0    0    0    0 -0.00000000000E+00 -0.00000000000E+00 -0.45593999997E+02  0.45594000000E+02  0.51100000000E-03 0. -1.
    9900012    2    1    2    0    0 -0.29205724332E+02  0.31203002056E+02  0.75512693241E+01  0.47787270289E+02  0.19999996554E+02 0.  0.
         12    1    1    2    0    0  0.29205724332E+02 -0.31203002056E+02 -0.75512693241E+01  0.43400729711E+02  0.00000000000E+00 0. -1.
         11    1    3    3    0    0 -0.50333140081E+01  0.80645926235E+01  0.84455791751E+01  0.12716120161E+02  0.51100000000E-03 0. -1.
        -11    1    3    3    0    0 -0.80825857678E+01  0.13929353682E+02  0.22715631512E+01  0.16263919764E+02  0.51100000000E-03 0.  1.
         12    1    3    3    0    0 -0.16089824556E+02  0.92090557508E+01 -0.31658730022E+01  0.18807230363E+02  0.00000000000E+00 0. -1.
</event>
<event>
 7    1  0.2647566E-010  0.4778727E+02  0.7816164E-02  0.1312668E+00
        -11   -1    0    0    0    0  0.00000000000E+00  0.00000000000E+00  0.45593999997E+02  0.45594000000E+02  0.51100000000E-03 0.  1.
         11   -1    0    0    0    0 -0.00000000000E+00 -0.00000000000E+00 -0.45593999997E+02  0.45594000000E+02  0.51100000000E-03 0. -1.
    9900012    2    1    2    0    0 -0.45280824957E+00 -0.38839344654E+02  0.19362943373E+02  0.47787270691E+02  0.19999998391E+02 0.  0.
         12    1    1    2    0    0  0.45280824957E+00  0.38839344654E+02 -0.19362943373E+02  0.43400729309E+02  0.00000000000E+00 0. -1.
         11    1    3    3    0    0 -0.24260168386E+01 -0.32419661000E+01 -0.14554039912E+01  0.43028017539E+01  0.51100000000E-03 0. -1.
        -11    1    3    3    0    0 -0.38326364018E+01 -0.24715958847E+02  0.95313020805E+01  0.26765900753E+02  0.51100000000E-03 0.  1.
        -12    1    3    3    0    0  0.58058449908E+01 -0.10881419706E+02  0.11287045284E+02  0.16718568184E+02  0.00000000000E+00 0.  1.
</event>
<event>
 7    1  0.2647566E-010  0.4778727E+02  0.7816164E-02  0.1312668E+00
        -11   -1    0    0    0    0  0.00000000000E+00  0.00000000000E+00  0.45593999997E+02  0.45594000000E+02  0.51100000000E-03 0.  1.
         11   -1    0    0    0    0 -0.00000000000E+00 -0.00000000000E+00 -0.45593999997E+02  0.45594000000E+02  0.51100000000E-03 0. -1.
    9900012    2    1    2    0    0  0.33866756753E+02  0.38454676903E+01  0.26867793435E+02  0.47787272370E+02  0.20000006045E+02 0.  0.
         12    1    1    2    0    0 -0.33866756753E+02 -0.38454676903E+01 -0.26867793435E+02  0.43400727630E+02  0.00000000000E+00 0. -1.
         11    1    3    3    0    0  0.13473329146E+01  0.21329414188E+01 -0.16063445589E+01  0.29908340278E+01  0.51100000000E-03 0. -1.
        -11    1    3    3    0    0 -0.78899418570E+00 -0.74995926238E+00  0.38157971146E+00  0.11534964489E+01  0.51100000000E-03 0.  1.
        -12    1    3    3    0    0  0.33308418024E+02  0.24624855338E+01  0.28092558283E+02  0.43642941894E+02  0.00000000000E+00 0.  1.
</event>
<event>
 7    1  0.2647566E-010  0.4778727E+02  0.7816164E-02  0.1312668E+00
        -11   -1    0    0    0    0  0.00000000000E+00  0.00000000000E+00  0.45593999997E+02  0.45594000000E+02  0.51100000000E-03 0. -1.
         11   -1    0    0    0    0 -0.00000000000E+00 -0.00000000000E+00 -0.45593999997E+02  0.45594000000E+02  0.51100000000E-03 0.  1.
    9900012    2    1    2    0    0 -0.41832048281E+02  0.89145265831E+00  0.11528583304E+02  0.47787272077E+02  0.20000004706E+02 0.  0.
         12    1    1    2    0    0  0.41832048281E+02 -0.89145265831E+00 -0.11528583304E+02  0.43400727923E+02  0.00000000000E+00 0. -1.
         11    1    3    3    0    0 -0.17592492050E+02  0.31470647121E+01  0.63957238592E+01  0.18981703738E+02  0.51100000000E-03 0. -1.
        -11    1    3    3    0    0 -0.23826311456E+02 -0.42020984113E+01  0.78518346365E+01  0.25436235100E+02  0.51100000000E-03 0.  1.
         12    1    3    3    0    0 -0.41324477550E+00  0.19464863575E+01 -0.27189751913E+01  0.33693332390E+01  0.00000000000E+00 0. -1.
</event>
<event>
 7    1  0.2647566E-010  0.4778727E+02  0.7816164E-02  0.1312668E+00
        -11   -1    0    0    0    0  0.00000000000E+00  0.00000000000E+00  0.45593999997E+02  0.45594000000E+02  0.51100000000E-03 0.  1.
         11   -1    0    0    0    0 -0.00000000000E+00 -0.00000000000E+00 -0.45593999997E+02  0.45594000000E+02  0.51100000000E-03 0. -1.
    9900012    2    1    2    0    0 -0.37695227488E+02 -0.20504506123E+02 -0.65006423962E+01  0.47787270763E+02  0.19999998718E+02 0.  0.
         12    1    1    2    0    0  0.37695227488E+02  0.20504506123E+02  0.65006423962E+01  0.43400729237E+02  0.00000000000E+00 0. -1.
         11    1    3    3    0    0 -0.51755608780E+01 -0.68280754054E+01  0.51742779818E+01  0.10009105706E+02  0.51100000000E-03 0. -1.
        -11    1    3    3    0    0 -0.64361123302E+00 -0.29001358982E+00  0.75982899575E+00  0.10371517080E+01  0.51100000000E-03 0.  1.
        -12    1    3    3    0    0 -0.31876055377E+02 -0.13386417128E+02 -0.12434749374E+02  0.36741013349E+02  0.00000000000E+00 0.  1.
</event>
<event>
 7    1  0.2647566E-010  0.4778727E+02  0.7816164E-02  0.1312668E+00
        -11   -1    0    0    0    0  0.00000000000E+00  0.00000000000E+00  0.45593999997E+02  0.45594000000E+02  0.51100000000E-03 0.  1.
         11   -1    0    0    0    0 -0.00000000000E+00 -0.00000000000E+00 -0.45593999997E+02  0.45594000000E+02  0.51100000000E-03 0. -1.
    9900012    2    1    2    0    0  0.39118741808E+02  0.54463663464E+01 -0.17991226875E+02  0.47787272915E+02  0.20000008531E+02 0.  0.
         12    1    1    2    0    0 -0.39118741808E+02 -0.54463663464E+01  0.17991226875E+02  0.43400727085E+02  0.00000000000E+00 0. -1.
         11    1    3    3    0    0 -0.97640308988E+00 -0.74133501339E+00 -0.16611814249E+01  0.20645737050E+01  0.51100000000E-03 0. -1.
        -11    1    3    3    0    0  0.12639158101E+02  0.31360643162E+01 -0.12098984010E+02  0.17775506497E+02  0.51100000000E-03 0.  1.
        -12    1    3    3    0    0  0.27455986797E+02  0.30516370435E+01 -0.42310614395E+01  0.27947192713E+02  0.00000000000E+00 0.  1.
</event>
<event>
 7    1  0.2647566E-010  0.4778726E+02  0.7816164E-02  0.1312668E+00
        -11   -1    0    0    0    0  0.00000000000E+00  0.00000000000E+00  0.45593999997E+02  0.45594000000E+02  0.51100000000E-03 0.  1.
         11   -1    0    0    0    0 -0.00000000000E+00 -0.00000000000E+00 -0.45593999997E+02  0.45594000000E+02  0.51100000000E-03 0. -1.
    9900012    2    1    2    0    0 -0.42807531924E+02 -0.53810292588E+01  0.47099464148E+01  0.47787264286E+02  0.19999969185E+02 0.  0.
         12    1    1    2    0    0  0.42807531924E+02  0.53810292588E+01 -0.47099464148E+01  0.43400735714E+02  0.00000000000E+00 0. -1.
         11    1    3    3    0    0 -0.33607698314E+01  0.38512675617E+01  0.25581386306E+00  0.51178586035E+01  0.51100000000E-03 0. -1.
        -11    1    3    3    0    0 -0.13095560315E+02 -0.56747754401E+01  0.71130402472E+01  0.15946539376E+02  0.51100000000E-03 0.  1.
         12    1    3    3    0    0 -0.26351201777E+02 -0.35575213805E+01 -0.26589076954E+01  0.26722866306E+02  0.00000000000E+00 0. -1.
</event>
<event>
 7    1  0.2647566E-010  0.4778727E+02  0.7816164E-02  0.1312668E+00
        -11   -1    0    0    0    0  0.00000000000E+00  0.00000000000E+00  0.45593999997E+02  0.45594000000E+02  0.51100000000E-03 0.  1.
         11   -1    0    0    0    0 -0.00000000000E+00 -0.00000000000E+00 -0.45593999997E+02  0.45594000000E+02  0.51100000000E-03 0. -1.
    9900012    2    1    2    0    0 -0.14105668813E+02 -0.41020357787E+02  0.14083672955E+01  0.47787272540E+02  0.20000006817E+02 0.  0.
         12    1    1    2    0    0  0.14105668813E+02  0.41020357787E+02 -0.14083672955E+01  0.43400727460E+02  0.00000000000E+00 0. -1.
         11    1    3    3    0    0 -0.21124600989E+01 -0.11637826485E+00 -0.35045761167E+01  0.40936640787E+01  0.51100000000E-03 0. -1.
        -11    1    3    3    0    0 -0.24198341769E+01 -0.72758437018E+01 -0.22751128577E+01  0.79981021370E+01  0.51100000000E-03 0.  1.
        -12    1    3    3    0    0 -0.95733745370E+01 -0.33628135820E+02  0.71880562700E+01  0.35695506324E+02  0.00000000000E+00 0.  1.
</event>
<event>
 7    1  0.2647566E-010  0.4778726E+02  0.7816164E-02  0.1312668E+00
        -11   -1    0    0    0    0  0.00000000000E+00  0.00000000000E+00  0.45593999997E+02  0.45594000000E+02  0.51100000000E-03 0.  1.
         11   -1    0    0    0    0 -0.00000000000E+00 -0.00000000000E+00 -0.45593999997E+02  0.45594000000E+02  0.51100000000E-03 0. -1.
    9900012    2    1    2    0    0 -0.26093207072E+02  0.55721811468E+01  0.34230384787E+02  0.47787263823E+02  0.19999967077E+02 0.  0.
         12    1    1    2    0    0  0.26093207072E+02 -0.55721811468E+01 -0.34230384787E+02  0.43400736177E+02  0.00000000000E+00 0. -1.
         11    1    3    3    0    0 -0.12335684051E+02  0.34341944704E+01  0.11886836308E+02  0.17471681955E+02  0.51100000000E-03 0. -1.
        -11    1    3    3    0    0 -0.15271312502E+02  0.52078746379E+01  0.14244795933E+02  0.21523223625E+02  0.51100000000E-03 0.  1.
         12    1    3    3    0    0  0.15137894809E+01 -0.30698879616E+01  0.80987525451E+01  0.87923582432E+01  0.00000000000E+00 0. -1.
</event>
<event>
 7    1  0.2647566E-010  0.4778727E+02  0.7816164E-02  0.1312668E+00
        -11   -1    0    0    0    0  0.00000000000E+00  0.00000000000E+00  0.45593999997E+02  0.45594000000E+02  0.51100000000E-03 0.  1.
         11   -1    0    0    0    0 -0.00000000000E+00 -0.00000000000E+00 -0.45593999997E+02  0.45594000000E+02  0.51100000000E-03 0. -1.
    9900012    2    1    2    0    0 -0.31755277930E+02  0.13755469309E+02  0.26191849840E+02  0.47787267168E+02  0.19999982325E+02 0.  0.
         12    1    1    2    0    0  0.31755277930E+02 -0.13755469309E+02 -0.26191849840E+02  0.43400732832E+02  0.00000000000E+00 0. -1.
         11    1    3    3    0    0 -0.71566616931E+01  0.13051233111E+02  0.77353796964E+01  0.16774641326E+02  0.51100000000E-03 0. -1.
        -11    1    3    3    0    0 -0.13298263180E+02 -0.64346783376E+00  0.12025988964E+02  0.17941077595E+02  0.51100000000E-03 0.  1.
         12    1    3    3    0    0 -0.11300353057E+02  0.13477040323E+01  0.64304811797E+01  0.13071548247E+02  0.00000000000E+00 0. -1.
</event>
<event>
 7    1  0.2647566E-010  0.4778727E+02  0.7816164E-02  0.1312668E+00
        -11   -1    0    0    0    0  0.00000000000E+00  0.00000000000E+00  0.45593999997E+02  0.45594000000E+02  0.51100000000E-03 0.  1.
         11   -1    0    0    0    0 -0.00000000000E+00 -0.00000000000E+00 -0.45593999997E+02  0.45594000000E+02  0.51100000000E-03 0. -1.
    9900012    2    1    2    0    0  0.16538651080E+02 -0.20108377148E+02  0.34723906805E+02  0.47787268269E+02  0.19999987344E+02 0.  0.
         12    1    1    2    0    0 -0.16538651080E+02  0.20108377148E+02 -0.34723906805E+02  0.43400731731E+02  0.00000000000E+00 0. -1.
         11    1    3    3    0    0  0.10311406689E+02 -0.15176031679E+02  0.17214326890E+02  0.25158896955E+02  0.51100000000E-03 0. -1.
        -11    1    3    3    0    0  0.67816376205E+01 -0.65204789991E+01  0.18443527627E+02  0.20704370717E+02  0.51100000000E-03 0.  1.
         12    1    3    3    0    0 -0.55439323017E+00  0.15881335304E+01 -0.93394771318E+00  0.19240005964E+01  0.00000000000E+00 0. -1.
</event>
<event>
 7    1  0.2647566E-010  0.4778727E+02  0.7816164E-02  0.1312668E+00
        -11   -1    0    0    0    0  0.00000000000E+00  0.00000000000E+00  0.45593999997E+02  0.45594000000E+02  0.51100000000E-03 0. -1.
         11   -1    0    0    0    0 -0.00000000000E+00 -0.00000000000E+00 -0.45593999997E+02  0.45594000000E+02  0.51100000000E-03 0.  1.
    9900012    2    1    2    0    0 -0.27951822927E+02  0.26836429720E+02 -0.19548014670E+02  0.47787271405E+02  0.20000001644E+02 0.  0.
         12    1    1    2    0    0  0.27951822927E+02 -0.26836429720E+02  0.19548014670E+02  0.43400728595E+02  0.00000000000E+00 0. -1.
         11    1    3    3    0    0  0.12307772431E+00 -0.13456349652E+01 -0.95444762019E+00  0.16543434065E+01  0.51100000000E-03 0. -1.
        -11    1    3    3    0    0 -0.13637175034E+02  0.23197482843E+02 -0.12784455783E+02  0.29791577049E+02  0.51100000000E-03 0.  1.
         12    1    3    3    0    0 -0.14437725617E+02  0.49845818423E+01 -0.58091112664E+01  0.16341350949E+02  0.00000000000E+00 0. -1.
</event>
<event>
 7    1  0.2647566E-010  0.4778726E+02  0.7816164E-02  0.1312668E+00
        -11   -1    0    0    0    0  0.00000000000E+00  0.00000000000E+00  0.45593999997E+02  0.45594000000E+02  0.51100000000E-03 0. -1.
         11   -1    0    0    0    0 -0.00000000000E+00 -0.00000000000E+00 -0.45593999997E+02  0.45594000000E+02  0.51100000000E-03 0.  1.
    9900012    2    1    2    0    0 -0.24839477078E+02  0.29703485769E+02 -0.19604276915E+02  0.47787258512E+02  0.19999942860E+02 0.  0.
         12    1    1    2    0    0  0.24839477078E+02 -0.29703485769E+02  0.19604276915E+02  0.43400741488E+02  0.00000000000E+00 0. -1.
         11    1    3    3    0    0 -0.51130889995E+01  0.84082648864E+01 -0.93367312679E+00  0.98850565647E+01  0.51100000000E-03 0. -1.
        -11    1    3    3    0    0 -0.91142276519E+01  0.98297941607E+01  0.19652157087E+00  0.13406439495E+02  0.51100000000E-03 0.  1.
         12    1    3    3    0    0 -0.10612160426E+02  0.11465426722E+02 -0.18867125359E+02  0.24495762453E+02  0.00000000000E+00 0. -1.
</event>
<event>
 7    1  0.2647566E-010  0.4778727E+02  0.7816164E-02  0.1312668E+00
        -11   -1    0    0    0    0  0.00000000000E+00  0.00000000000E+00  0.45593999997E+02  0.45594000000E+02  0.51100000000E-03 0. -1.
         11   -1    0    0    0    0 -0.00000000000E+00 -0.00000000000E+00 -0.45593999997E+02  0.45594000000E+02  0.51100000000E-03 0.  1.
    9900012    2    1    2    0    0  0.39921777841E+02  0.15772495193E+02 -0.64111666753E+01  0.47787274099E+02  0.20000013928E+02 0.  0.
         12    1    1    2    0    0 -0.39921777841E+02 -0.15772495193E+02  0.64111666753E+01  0.43400725901E+02  0.00000000000E+00 0. -1.
         11    1    3    3    0    0  0.90545285263E+01  0.45691195535E+01 -0.59941728956E+01  0.11780978282E+02  0.51100000000E-03 0. -1.
        -11    1    3    3    0    0  0.15980380447E+02  0.77671964393E+01 -0.73504158081E+01  0.19228377794E+02  0.51100000000E-03 0.  1.
        -12    1    3    3    0    0  0.14886868867E+02  0.34361791998E+01  0.69334220284E+01  0.16777918023E+02  0.00000000000E+00 0.  1.
</event>
<event>
 7    1  0.2647566E-010  0.4778725E+02  0.7816164E-02  0.1312668E+00
        -11   -1    0    0    0    0  0.00000000000E+00  0.00000000000E+00  0.45593999997E+02  0.45594000000E+02  0.51100000000E-03 0.  1.
         11   -1    0    0    0    0 -0.00000000000E+00 -0.00000000000E+00 -0.45593999997E+02  0.45594000000E+02  0.51100000000E-03 0. -1.
    9900012    2    1    2    0    0  0.27532950634E+02  0.22049686897E+02  0.25285819157E+02  0.47787254462E+02  0.19999924392E+02 0.  0.
         12    1    1    2    0    0 -0.27532950634E+02 -0.22049686897E+02 -0.25285819157E+02  0.43400745538E+02  0.00000000000E+00 0. -1.
         11    1    3    3    0    0  0.12168262473E+02  0.38411535959E+01 -0.64245954434E-01  0.12760297816E+02  0.51100000000E-03 0. -1.
        -11    1    3    3    0    0  0.40335049284E+00  0.28935084308E+00  0.18015162255E+01  0.18686563361E+01  0.51100000000E-03 0.  1.
        -12    1    3    3    0    0  0.14961337668E+02  0.17919182458E+02  0.23548548886E+02  0.33158300309E+02  0.00000000000E+00 0.  1.
</event>
<event>
 7    1  0.2647566E-010  0.4778727E+02  0.7816164E-02  0.1312668E+00
        -11   -1    0    0    0    0  0.00000000000E+00  0.00000000000E+00  0.45593999997E+02  0.45594000000E+02  0.51100000000E-03 0.  1.
         11   -1    0    0    0    0 -0.00000000000E+00 -0.00000000000E+00 -0.45593999997E+02  0.45594000000E+02  0.51100000000E-03 0. -1.
    9900012    2    1    2    0    0  0.33725599302E+02 -0.14975468676E+02  0.22846061697E+02  0.47787271373E+02  0.20000001496E+02 0.  0.
         12    1    1    2    0    0 -0.33725599302E+02  0.14975468676E+02 -0.22846061697E+02  0.43400728627E+02  0.00000000000E+00 0. -1.
         11    1    3    3    0    0  0.11455450839E+02  0.24594084645E+01  0.12695054836E+02  0.17275429415E+02  0.51100000000E-03 0. -1.
        -11    1    3    3    0    0  0.10776144005E+02 -0.53149181168E+01  0.51782534005E+01  0.13083881027E+02  0.51100000000E-03 0.  1.
         12    1    3    3    0    0  0.11494004458E+02 -0.12119959023E+02  0.49727534613E+01  0.17427960930E+02  0.00000000000E+00 0. -1.
</event>
<event>
 7    1  0.2647566E-010  0.4778727E+02  0.7816164E-02  0.1312668E+00
        -11   -1    0    0    0    0  0.00000000000E+00  0.00000000000E+00  0.45593999997E+02  0.45594000000E+02  0.51100000000E-03 0. -1.
         11   -1    0    0    0    0 -0.00000000000E+00 -0.00000000000E+00 -0.45593999997E+02  0.45594000000E+02  0.51100000000E-03 0.  1.
    9900012    2    1    2    0    0  0.15616741273E+02 -0.16352096224E+02 -0.37045237323E+02  0.47787271121E+02  0.20000000350E+02 0.  0.
         12    1    1    2    0    0 -0.15616741273E+02  0.16352096224E+02  0.37045237323E+02  0.43400728879E+02  0.00000000000E+00 0. -1.
         11    1    3    3    0    0  0.23160973862E+01 -0.46265586008E+01  0.20001347013E+00  0.51777753175E+01  0.51100000000E-03 0.  1.
        -11    1    3    3    0    0  0.67045594105E+01  0.21447701001E+00 -0.16155410394E+02  0.17492695691E+02  0.51100000000E-03 0. -1.
        -12    1    3    3    0    0  0.65960844767E+01 -0.11940014633E+02 -0.21089840399E+02  0.25116800113E+02  0.00000000000E+00 0.  1.
</event>
<event>
 7    1  0.2647566E-010  0.4778728E+02  0.7816164E-02  0.1312668E+00
        -11   -1    0    0    0    0  0.00000000000E+00  0.00000000000E+00  0.45593999997E+02  0.45594000000E+02  0.51100000000E-03 0. -1.
         11   -1    0    0    0    0 -0.00000000000E+00 -0.00000000000E+00 -0.45593999997E+02  0.45594000000E+02  0.51100000000E-03 0.  1.
    9900012    2    1    2    0    0  0.41937720201E+02 -0.95984889471E+01  0.57200726162E+01  0.47787278848E+02  0.20000035580E+02 0.  0.
         12    1    1    2    0    0 -0.41937720201E+02  0.95984889471E+01 -0.57200726162E+01  0.43400721152E+02  0.00000000000E+00 0. -1.
         11    1    3    3    0    0  0.54825055669E+01  0.53110753219E+00 -0.77864458214E+00  0.55629335919E+01  0.51100000000E-03 0. -1.
        -11    1    3    3    0    0  0.33895501068E+02 -0.12672131806E+02  0.96309445279E+01  0.37446535353E+02  0.51100000000E-03 0.  1.
         12    1    3    3    0    0  0.25597135664E+01  0.25425353267E+01 -0.31322273295E+01  0.47778099034E+01  0.00000000000E+00 0. -1.
</event>
<event>
 7    1  0.2647566E-010  0.4778727E+02  0.7816164E-02  0.1312668E+00
        -11   -1    0    0    0    0  0.00000000000E+00  0.00000000000E+00  0.45593999997E+02  0.45594000000E+02  0.51100000000E-03 0.  1.
         11   -1    0    0    0    0 -0.00000000000E+00 -0.00000000000E+00 -0.45593999997E+02  0.45594000000E+02  0.51100000000E-03 0. -1.
    9900012    2    1    2    0    0  0.40409889075E+02  0.11983929225E+02  0.10346461566E+02  0.47787274642E+02  0.20000016401E+02 0.  0.
         12    1    1    2    0    0 -0.40409889075E+02 -0.11983929225E+02 -0.10346461566E+02  0.43400725358E+02  0.00000000000E+00 0. -1.
         11    1    3    3    0    0  0.27218430296E+02  0.60062064756E+01  0.79196995928E+01  0.28976526809E+02  0.51100000000E-03 0. -1.
        -11    1    3    3    0    0  0.13583372786E+02  0.38357491914E+01  0.54112624082E+01  0.15116307394E+02  0.51100000000E-03 0.  1.
         12    1    3    3    0    0 -0.39191400753E+00  0.21419735577E+01 -0.29845004348E+01  0.36944404389E+01  0.00000000000E+00 0. -1.
</event>
<event>
 7    1  0.2647566E-010  0.4778728E+02  0.7816164E-02  0.1312668E+00
        -11   -1    0    0    0    0  0.00000000000E+00  0.00000000000E+00  0.45593999997E+02  0.45594000000E+02  0.51100000000E-03 0. -1.
         11   -1    0    0    0    0 -0.00000000000E+00 -0.00000000000E+00 -0.45593999997E+02  0.45594000000E+02  0.51100000000E-03 0.  1.
    9900012    2    1    2    0    0  0.36805319086E+02  0.17888202041E+02 -0.14456952466E+02  0.47787276966E+02  0.20000026999E+02 0.  0.
         12    1    1    2    0    0 -0.36805319086E+02 -0.17888202041E+02  0.14456952466E+02  0.43400723034E+02  0.00000000000E+00 0. -1.
         11    1    3    3    0    0  0.18557658595E+02  0.38082636296E+01 -0.14953447556E+02  0.24134936472E+02  0.51100000000E-03 0. -1.
        -11    1    3    3    0    0  0.70248273852E+01  0.24468199417E+01  0.82831204047E+00  0.74847330424E+01  0.51100000000E-03 0.  1.
         12    1    3    3    0    0  0.11222833105E+02  0.11633118469E+02 -0.33181695067E+00  0.16167607452E+02  0.00000000000E+00 0. -1.
</event>
<event>
 7    1  0.2647566E-010  0.4778728E+02  0.7816164E-02  0.1312668E+00
        -11   -1    0    0    0    0  0.00000000000E+00  0.00000000000E+00  0.45593999997E+02  0.45594000000E+02  0.51100000000E-03 0. -1.
         11   -1    0    0    0    0 -0.00000000000E+00 -0.00000000000E+00 -0.45593999997E+02  0.45594000000E+02  0.51100000000E-03 0.  1.
    9900012    2    1    2    0    0  0.26193828407E+02  0.31506456870E+02 -0.14312559895E+02  0.47787276022E+02  0.20000022693E+02 0.  0.
         12    1    1    2    0    0 -0.26193828407E+02 -0.31506456870E+02  0.14312559895E+02  0.43400723978E+02  0.00000000000E+00 0. -1.
         11    1    3    3    0    0 -0.18143629602E+01  0.19849703289E+01  0.11106516313E+01  0.29095648240E+01  0.51100000000E-03 0. -1.
        -11    1    3    3    0    0  0.63489812192E+01  0.13673347597E+02 -0.78220042000E+01  0.16983926137E+02  0.51100000000E-03 0.  1.
        -12    1    3    3    0    0  0.21659210148E+02  0.15848138943E+02 -0.76012073259E+01  0.27893785061E+02  0.00000000000E+00 0.  1.
</event>
<event>
 7    1  0.2647566E-010  0.4778727E+02  0.7816164E-02  0.1312668E+00
        -11   -1    0    0    0    0  0.00000000000E+00  0.00000000000E+00  0.45593999997E+02  0.45594000000E+02  0.51100000000E-03 0.  1.
         11   -1    0    0    0    0 -0.00000000000E+00 -0.00000000000E+00 -0.45593999997E+02  0.45594000000E+02  0.51100000000E-03 0. -1.
    9900012    2    1    2    0    0 -0.23620564899E+02  0.99804669015E+01  0.35015461624E+02  0.47787270070E+02  0.19999995557E+02 0.  0.
         12    1    1    2    0    0  0.23620564899E+02 -0.99804669015E+01 -0.35015461624E+02  0.43400729930E+02  0.00000000000E+00 0. -1.
         11    1    3    3    0    0 -0.12929267609E+02 -0.10985974366E+01  0.15605373124E+02  0.20295333154E+02  0.51100000000E-03 0. -1.
        -11    1    3    3    0    0 -0.57344756013E+01  0.73860458685E+01  0.19143140809E+02  0.21304875599E+02  0.51100000000E-03 0.  1.
        -12    1    3    3    0    0 -0.49568216890E+01  0.36930184696E+01  0.26694769103E+00  0.61870613172E+01  0.00000000000E+00 0.  1.
</event>
<event>
 7    1  0.2647566E-010  0.4778727E+02  0.7816164E-02  0.1312668E+00
        -11   -1    0    0    0    0  0.00000000000E+00  0.00000000000E+00  0.45593999997E+02  0.45594000000E+02  0.51100000000E-03 0. -1.
         11   -1    0    0    0    0 -0.00000000000E+00 -0.00000000000E+00 -0.45593999997E+02  0.45594000000E+02  0.51100000000E-03 0.  1.
    9900012    2    1    2    0    0 -0.10038462112E+02 -0.32621726648E+02 -0.26808124774E+02  0.47787270456E+02  0.19999997317E+02 0.  0.
         12    1    1    2    0    0  0.10038462112E+02  0.32621726648E+02  0.26808124774E+02  0.43400729544E+02  0.00000000000E+00 0. -1.
         11    1    3    3    0    0 -0.18628454448E+01 -0.18627552519E+02 -0.77091055576E+01  0.20245646810E+02  0.51100000000E-03 0. -1.
        -11    1    3    3    0    0 -0.86980552004E+01 -0.15462709141E+02 -0.15271020500E+02  0.23408451586E+02  0.51100000000E-03 0.  1.
         12    1    3    3    0    0  0.52243853305E+00  0.14685350129E+01 -0.38279987165E+01  0.41331720601E+01  0.00000000000E+00 0. -1.
</event>
<event>
 7    1  0.2647566E-010  0.4778727E+02  0.7816164E-02  0.1312668E+00
        -11   -1    0    0    0    0  0.00000000000E+00  0.00000000000E+00  0.45593999997E+02  0.45594000000E+02  0.51100000000E-03 0.  1.
         11   -1    0    0    0    0 -0.00000000000E+00 -0.00000000000E+00 -0.45593999997E+02  0.45594000000E+02  0.51100000000E-03 0. -1.
    9900012    2    1    2    0    0  0.32831067105E+02 -0.74765146829E+01  0.27383317473E+02  0.47787270572E+02  0.19999997847E+02 0.  0.
         12    1    1    2    0    0 -0.32831067105E+02  0.74765146829E+01 -0.27383317473E+02  0.43400729428E+02  0.00000000000E+00 0. -1.
         11    1    3    3    0    0  0.45112251057E+01 -0.50164146417E+01  0.65377560394E+01  0.93945634334E+01  0.51100000000E-03 0. -1.
        -11    1    3    3    0    0  0.86025894528E+01 -0.60949961095E+01  0.17167267206E+01  0.10681791693E+02  0.51100000000E-03 0.  1.
        -12    1    3    3    0    0  0.19717252547E+02  0.36348960683E+01  0.19128834713E+02  0.27710915446E+02  0.00000000000E+00 0.  1.
</event>
<event>
 7    1  0.2647566E-010  0.4778728E+02  0.7816164E-02  0.1312668E+00
        -11   -1    0    0    0    0  0.00000000000E+00  0.00000000000E+00  0.45593999997E+02  0.45594000000E+02  0.51100000000E-03 0.  1.
         11   -1    0    0    0    0 -0.00000000000E+00 -0.00000000000E+00 -0.45593999997E+02  0.45594000000E+02  0.51100000000E-03 0. -1.
    9900012    2    1    2    0    0 -0.72010951155E+01  0.12853036983E+02  0.40823601386E+02  0.47787276957E+02  0.20000026956E+02 0.  0.
         12    1    1    2    0    0  0.72010951155E+01 -0.12853036983E+02 -0.40823601386E+02  0.43400723043E+02  0.00000000000E+00 0. -1.
         11    1    3    3    0    0 -0.23079894391E+01 -0.11465737746E+01 -0.73447509863E+00  0.26797202472E+01  0.51100000000E-03 0. -1.
        -11    1    3    3    0    0 -0.21982888628E+01  0.77212910501E+01  0.10027733568E+02  0.12845475864E+02  0.51100000000E-03 0.  1.
         12    1    3    3    0    0 -0.26948168136E+01  0.62783197071E+01  0.31530342917E+02  0.32262080845E+02  0.00000000000E+00 0. -1.
</event>
<event>
 7    1  0.2647566E-010  0.4778728E+02  0.7816164E-02  0.1312668E+00
        -11   -1    0    0    0    0  0.00000000000E+00  0.00000000000E+00  0.45593999997E+02  0.45594000000E+02  0.51100000000E-03 0.  1.
         11   -1    0    0    0    0 -0.00000000000E+00 -0.00000000000E+00 -0.45593999997E+02  0.45594000000E+02  0.51100000000E-03 0. -1.
    9900012    2    1    2    0    0 -0.15099437947E+02  0.11175983689E+02  0.39124509791E+02  0.47787275304E+02  0.20000019421E+02 0.  0.
         12    1    1    2    0    0  0.15099437947E+02 -0.11175983689E+02 -0.39124509791E+02  0.43400724696E+02  0.00000000000E+00 0. -1.
         11    1    3    3    0    0 -0.94299555544E+01  0.26370549223E+01  0.80999229518E+01  0.12707748522E+02  0.51100000000E-03 0.  1.
        -11    1    3    3    0    0 -0.52514653807E+01  0.81500875358E+01  0.95891244279E+01  0.13636462996E+02  0.51100000000E-03 0. -1.
         12    1    3    3    0    0 -0.41801701169E+00  0.38884123125E+00  0.21435462411E+02  0.21443063786E+02  0.00000000000E+00 0. -1.
</event>
<event>
 7    1  0.2647566E-010  0.4778727E+02  0.7816164E-02  0.1312668E+00
        -11   -1    0    0    0    0  0.00000000000E+00  0.00000000000E+00  0.45593999997E+02  0.45594000000E+02  0.51100000000E-03 0.  1.
         11   -1    0    0    0    0 -0.00000000000E+00 -0.00000000000E+00 -0.45593999997E+02  0.45594000000E+02  0.51100000000E-03 0. -1.
    9900012    2    1    2    0    0  0.12039133960E+02 -0.16517116100E+02  0.38286648668E+02  0.47787270317E+02  0.19999996683E+02 0.  0.
         12    1    1    2    0    0 -0.12039133960E+02  0.16517116100E+02 -0.38286648668E+02  0.43400729683E+02  0.00000000000E+00 0. -1.
         11    1    3    3    0    0  0.84946785441E+01 -0.14311608581E+01  0.64557358290E+01  0.10764957516E+02  0.51100000000E-03 0. -1.
        -11    1    3    3    0    0  0.93199069316E+00 -0.13249291249E+01  0.15168492131E+02  0.15254743447E+02  0.51100000000E-03 0.  1.
        -12    1    3    3    0    0  0.26124647225E+01 -0.13761026117E+02  0.16662420708E+02  0.21767569354E+02  0.00000000000E+00 0.  1.
</event>
<event>
 7    1  0.2647566E-010  0.4778727E+02  0.7816164E-02  0.1312668E+00
        -11   -1    0    0    0    0  0.00000000000E+00  0.00000000000E+00  0.45593999997E+02  0.45594000000E+02  0.51100000000E-03 0.  1.
         11   -1    0    0    0    0 -0.00000000000E+00 -0.00000000000E+00 -0.45593999997E+02  0.45594000000E+02  0.51100000000E-03 0. -1.
    9900012    2    1    2    0    0 -0.36663889638E+02  0.10517703381E+02 -0.20706529539E+02  0.47787271281E+02  0.20000001078E+02 0.  0.
         12    1    1    2    0    0  0.36663889638E+02 -0.10517703381E+02  0.20706529539E+02  0.43400728719E+02  0.00000000000E+00 0. -1.
         11    1    3    3    0    0  0.12102276364E+01 -0.16887887715E+01 -0.13514432727E+01  0.24785192408E+01  0.51100000000E-03 0. -1.
        -11    1    3    3    0    0 -0.16211021595E+02  0.27440878966E+00 -0.83828186534E+01  0.18252237402E+02  0.51100000000E-03 0.  1.
        -12    1    3    3    0    0 -0.21663095680E+02  0.11932083362E+02 -0.10972267613E+02  0.27056514638E+02  0.00000000000E+00 0.  1.
</event>
<event>
 7    1  0.2647566E-010  0.4778727E+02  0.7816164E-02  0.1312668E+00
        -11   -1    0    0    0    0  0.00000000000E+00  0.00000000000E+00  0.45593999997E+02  0.45594000000E+02  0.51100000000E-03 0.  1.
         11   -1    0    0    0    0 -0.00000000000E+00 -0.00000000000E+00 -0.45593999997E+02  0.45594000000E+02  0.51100000000E-03 0. -1.
    9900012    2    1    2    0    0 -0.10680353586E+02 -0.26764137428E+02  0.32453572453E+02  0.47787269937E+02  0.19999994951E+02 0.  0.
         12    1    1    2    0    0  0.10680353586E+02  0.26764137428E+02 -0.32453572453E+02  0.43400730063E+02  0.00000000000E+00 0. -1.
         11    1    3    3    0    0  0.23849098473E-02 -0.53820494897E+01  0.92546067005E+01  0.10705802531E+02  0.51100000000E-03 0. -1.
        -11    1    3    3    0    0 -0.79756499446E+01 -0.84171884585E+00  0.46336442523E+01  0.92622967979E+01  0.51100000000E-03 0.  1.
         12    1    3    3    0    0 -0.27070885511E+01 -0.20540369093E+02  0.18565321501E+02  0.27819170608E+02  0.00000000000E+00 0. -1.
</event>
<event>
 7    1  0.2647566E-010  0.4778726E+02  0.7816164E-02  0.1312668E+00
        -11   -1    0    0    0    0  0.00000000000E+00  0.00000000000E+00  0.45593999997E+02  0.45594000000E+02  0.51100000000E-03 0. -1.
         11   -1    0    0    0    0 -0.00000000000E+00 -0.00000000000E+00 -0.45593999997E+02  0.45594000000E+02  0.51100000000E-03 0.  1.
    9900012    2    1    2    0    0 -0.34121485627E+02 -0.26805012632E+02 -0.91654523736E+00  0.47787256472E+02  0.19999933560E+02 0.  0.
         12    1    1    2    0    0  0.34121485627E+02  0.26805012632E+02  0.91654523736E+00  0.43400743528E+02  0.00000000000E+00 0. -1.
         11    1    3    3    0    0 -0.31939938620E+01 -0.11649169022E+01 -0.28173465282E+01  0.44154354146E+01  0.51100000000E-03 0. -1.
        -11    1    3    3    0    0 -0.21273453713E+02 -0.83234058292E+01 -0.27470018992E+01  0.23008366677E+02  0.51100000000E-03 0.  1.
         12    1    3    3    0    0 -0.96540380525E+01 -0.17316689900E+02  0.46478031900E+01  0.20363454381E+02  0.00000000000E+00 0. -1.
</event>
<event>
 7    1  0.2647566E-010  0.4778726E+02  0.7816164E-02  0.1312668E+00
        -11   -1    0    0    0    0  0.00000000000E+00  0.00000000000E+00  0.45593999997E+02  0.45594000000E+02  0.51100000000E-03 0. -1.
         11   -1    0    0    0    0 -0.00000000000E+00 -0.00000000000E+00 -0.45593999997E+02  0.45594000000E+02  0.51100000000E-03 0.  1.
    9900012    2    1    2    0    0 -0.37384168445E+02  0.22044260469E+02  0.31440190830E+00  0.47787259010E+02  0.19999945130E+02 0.  0.
         12    1    1    2    0    0  0.37384168445E+02 -0.22044260469E+02 -0.31440190830E+00  0.43400740990E+02  0.00000000000E+00 0. -1.
         11    1    3    3    0    0 -0.79578865262E+01  0.54882069669E+01  0.51721392870E+01  0.10963548638E+02  0.51100000000E-03 0. -1.
        -11    1    3    3    0    0 -0.25132842988E+02  0.16004882107E+02  0.66878777987E+00  0.29803746833E+02  0.51100000000E-03 0.  1.
         12    1    3    3    0    0 -0.42934389312E+01  0.55117139445E+00 -0.55265251586E+01  0.70199635391E+01  0.00000000000E+00 0. -1.
</event>
<event>
 7    1  0.2647566E-010  0.4778727E+02  0.7816164E-02  0.1312668E+00
        -11   -1    0    0    0    0  0.00000000000E+00  0.00000000000E+00  0.45593999997E+02  0.45594000000E+02  0.51100000000E-03 0.  1.
         11   -1    0    0    0    0 -0.00000000000E+00 -0.00000000000E+00 -0.45593999997E+02  0.45594000000E+02  0.51100000000E-03 0. -1.
    9900012    2    1    2    0    0 -0.21474845116E+01 -0.35548489173E+02  0.24805568456E+02  0.47787274215E+02  0.20000014458E+02 0.  0.
         12    1    1    2    0    0  0.21474845116E+01  0.35548489173E+02 -0.24805568456E+02  0.43400725785E+02  0.00000000000E+00 0. -1.
         11    1    3    3    0    0 -0.17957201205E+01 -0.12428778545E+01 -0.62940318535E-01  0.21847924059E+01  0.51100000000E-03 0. -1.
        -11    1    3    3    0    0  0.56613511185E+01 -0.48304070077E+01  0.87057167690E+01  0.11453088364E+02  0.51100000000E-03 0.  1.
         12    1    3    3    0    0 -0.60131155097E+01 -0.29475204311E+02  0.16162792006E+02  0.34149393446E+02  0.00000000000E+00 0. -1.
</event>
<event>
 7    1  0.2647566E-010  0.4778727E+02  0.7816164E-02  0.1312668E+00
        -11   -1    0    0    0    0  0.00000000000E+00  0.00000000000E+00  0.45593999997E+02  0.45594000000E+02  0.51100000000E-03 0.  1.
         11   -1    0    0    0    0 -0.00000000000E+00 -0.00000000000E+00 -0.45593999997E+02  0.45594000000E+02  0.51100000000E-03 0. -1.
    9900012    2    1    2    0    0  0.40706036615E+02  0.14999463426E+02  0.12875201369E+01  0.47787273876E+02  0.20000012911E+02 0.  0.
         12    1    1    2    0    0 -0.40706036615E+02 -0.14999463426E+02 -0.12875201369E+01  0.43400726124E+02  0.00000000000E+00 0. -1.
         11    1    3    3    0    0  0.15864755640E+01 -0.19797132021E+01 -0.29156858186E+01  0.38648923829E+01  0.51100000000E-03 0. -1.
        -11    1    3    3    0    0  0.58515012072E+01  0.25168298380E+01  0.42305721501E+01  0.76467143134E+01  0.51100000000E-03 0.  1.
        -12    1    3    3    0    0  0.33268059844E+02  0.14462346790E+02 -0.27366194573E-01  0.36275667180E+02  0.00000000000E+00 0.  1.
</event>
<event>
 7    1  0.2647566E-010  0.4778726E+02  0.7816164E-02  0.1312668E+00
        -11   -1    0    0    0    0  0.00000000000E+00  0.00000000000E+00  0.45593999997E+02  0.45594000000E+02  0.51100000000E-03 0.  1.
         11   -1    0    0    0    0 -0.00000000000E+00 -0.00000000000E+00 -0.45593999997E+02  0.45594000000E+02  0.51100000000E-03 0. -1.
    9900012    2    1    2    0    0  0.20785901695E+02  0.89199717696E+01  0.37040575245E+02  0.47787264751E+02  0.19999971307E+02 0.  0.
         12    1    1    2    0    0 -0.20785901695E+02 -0.89199717696E+01 -0.37040575245E+02  0.43400735249E+02  0.00000000000E+00 0. -1.
         11    1    3    3    0    0  0.15731113413E+02 -0.13144196425E+01  0.15394151657E+02  0.22049388511E+02  0.51100000000E-03 0.  1.
        -11    1    3    3    0    0  0.48596163607E+00 -0.91557423653E+00  0.87748348021E-01  0.10402571451E+01  0.51100000000E-03 0. -1.
        -12    1    3    3    0    0  0.45688266465E+01  0.11149965649E+02  0.21558675240E+02  0.24697619095E+02  0.00000000000E+00 0.  1.
</event>
<event>
 7    1  0.2647566E-010  0.4778725E+02  0.7816164E-02  0.1312668E+00
        -11   -1    0    0    0    0  0.00000000000E+00  0.00000000000E+00  0.45593999997E+02  0.45594000000E+02  0.51100000000E-03 0.  1.
         11   -1    0    0    0    0 -0.00000000000E+00 -0.00000000000E+00 -0.45593999997E+02  0.45594000000E+02  0.51100000000E-03 0. -1.
    9900012    2    1    2    0    0 -0.18682145827E+01 -0.31151269472E+02  0.30161779467E+02  0.47787253969E+02  0.19999922147E+02 0.  0.
         12    1    1    2    0    0  0.18682145827E+01  0.31151269472E+02 -0.30161779467E+02  0.43400746031E+02  0.00000000000E+00 0. -1.
         11    1    3    3    0    0 -0.36707396493E+01  0.23321005620E+00  0.43352479656E+01  0.56853400679E+01  0.51100000000E-03 0. -1.
        -11    1    3    3    0    0  0.35455283107E+01 -0.33586799500E+01  0.20074209238E+01  0.52802690306E+01  0.51100000000E-03 0.  1.
        -12    1    3    3    0    0 -0.17430032441E+01 -0.28025799578E+02  0.23819110578E+02  0.36821644871E+02  0.00000000000E+00 0.  1.
</event>
<event>
 7    1  0.2647566E-010  0.4778727E+02  0.7816164E-02  0.1312668E+00
        -11   -1    0    0    0    0  0.00000000000E+00  0.00000000000E+00  0.45593999997E+02  0.45594000000E+02  0.51100000000E-03 0. -1.
         11   -1    0    0    0    0 -0.00000000000E+00 -0.00000000000E+00 -0.45593999997E+02  0.45594000000E+02  0.51100000000E-03 0.  1.
    9900012    2    1    2    0    0  0.24649308024E+02 -0.24206474176E+02 -0.26269401974E+02  0.47787271225E+02  0.20000000822E+02 0.  0.
         12    1    1    2    0    0 -0.24649308024E+02  0.24206474176E+02  0.26269401974E+02  0.43400728775E+02  0.00000000000E+00 0. -1.
         11    1    3    3    0    0  0.22764330472E+01 -0.86282162134E+01 -0.35805062423E+01  0.96150032583E+01  0.51100000000E-03 0. -1.
        -11    1    3    3    0    0  0.82974074203E+01 -0.13533534163E+02 -0.15691465808E+02  0.22320968086E+02  0.51100000000E-03 0.  1.
         12    1    3    3    0    0  0.14075467557E+02 -0.20447238004E+01 -0.69974299239E+01  0.15851299881E+02  0.00000000000E+00 0. -1.
</event>
<event>
 7    1  0.2647566E-010  0.4778727E+02  0.7816164E-02  0.1312668E+00
        -11   -1    0    0    0    0  0.00000000000E+00  0.00000000000E+00  0.45593999997E+02  0.45594000000E+02  0.51100000000E-03 0.  1.
         11   -1    0    0    0    0 -0.00000000000E+00 -0.00000000000E+00 -0.45593999997E+02  0.45594000000E+02  0.51100000000E-03 0. -1.
    9900012    2    1    2    0    0 -0.39193251818E+02  0.16681746729E+02 -0.83205455674E+01  0.47787272581E+02  0.20000007005E+02 0.  0.
         12    1    1    2    0    0  0.39193251818E+02 -0.16681746729E+02  0.83205455674E+01  0.43400727419E+02  0.00000000000E+00 0. -1.
         11    1    3    3    0    0 -0.69794425630E+01  0.93562110251E+01 -0.32875493656E+00  0.11677302056E+02  0.51100000000E-03 0. -1.
        -11    1    3    3    0    0 -0.17685056466E+01 -0.23163795573E+01 -0.22045879530E+01  0.36542351839E+01  0.51100000000E-03 0.  1.
        -12    1    3    3    0    0 -0.30445303608E+02  0.96419152610E+01 -0.57872026779E+01  0.32455735341E+02  0.00000000000E+00 0.  1.
</event>
<event>
 7    1  0.2647566E-010  0.4778727E+02  0.7816164E-02  0.1312668E+00
        -11   -1    0    0    0    0  0.00000000000E+00  0.00000000000E+00  0.45593999997E+02  0.45594000000E+02  0.51100000000E-03 0. -1.
         11   -1    0    0    0    0 -0.00000000000E+00 -0.00000000000E+00 -0.45593999997E+02  0.45594000000E+02  0.51100000000E-03 0.  1.
    9900012    2    1    2    0    0  0.12729205724E+02  0.36946903556E+02 -0.18881657857E+02  0.47787270004E+02  0.19999995257E+02 0.  0.
         12    1    1    2    0    0 -0.12729205724E+02 -0.36946903556E+02  0.18881657857E+02  0.43400729996E+02  0.00000000000E+00 0. -1.
         11    1    3    3    0    0  0.82845210360E+00  0.58544953746E+00 -0.12035096861E+01  0.15740139372E+01  0.51100000000E-03 0. -1.
        -11    1    3    3    0    0 -0.18708595447E+01  0.21605723863E+02 -0.46188166119E+01  0.22172976485E+02  0.51100000000E-03 0.  1.
        -12    1    3    3    0    0  0.13771613165E+02  0.14755730156E+02 -0.13059331559E+02  0.24040279581E+02  0.00000000000E+00 0.  1.
</event>
<event>
 7    1  0.2647566E-010  0.4778727E+02  0.7816164E-02  0.1312668E+00
        -11   -1    0    0    0    0  0.00000000000E+00  0.00000000000E+00  0.45593999997E+02  0.45594000000E+02  0.51100000000E-03 0. -1.
         11   -1    0    0    0    0 -0.00000000000E+00 -0.00000000000E+00 -0.45593999997E+02  0.45594000000E+02  0.51100000000E-03 0.  1.
    9900012    2    1    2    0    0  0.40490485000E+02  0.20714071737E+00  0.15623730710E+02  0.47787271387E+02  0.20000001562E+02 0.  0.
         12    1    1    2    0    0 -0.40490485000E+02 -0.20714071737E+00 -0.15623730710E+02  0.43400728613E+02  0.00000000000E+00 0. -1.
         11    1    3    3    0    0  0.23724125342E+01 -0.25251483165E+01  0.41401846641E+01  0.53986891526E+01  0.51100000000E-03 0. -1.
        -11    1    3    3    0    0  0.13975783790E+02 -0.75338495449E+00  0.11311168320E+02  0.17995350801E+02  0.51100000000E-03 0.  1.
        -12    1    3    3    0    0  0.24142288676E+02  0.34856739884E+01  0.17237772584E+00  0.24393231433E+02  0.00000000000E+00 0.  1.
</event>
<event>
 7    1  0.2647566E-010  0.4778727E+02  0.7816164E-02  0.1312668E+00
        -11   -1    0    0    0    0  0.00000000000E+00  0.00000000000E+00  0.45593999997E+02  0.45594000000E+02  0.51100000000E-03 0.  1.
         11   -1    0    0    0    0 -0.00000000000E+00 -0.00000000000E+00 -0.45593999997E+02  0.45594000000E+02  0.51100000000E-03 0. -1.
    9900012    2    1    2    0    0 -0.31869848150E+01 -0.11585473537E+02  0.41704232704E+02  0.47787273108E+02  0.20000009410E+02 0.  0.
         12    1    1    2    0    0  0.31869848150E+01  0.11585473537E+02 -0.41704232704E+02  0.43400726892E+02  0.00000000000E+00 0. -1.
         11    1    3    3    0    0  0.19893759465E+01  0.14604403738E+01  0.21261780676E+01  0.32574738952E+01  0.51100000000E-03 0. -1.
        -11    1    3    3    0    0 -0.77987681194E+01 -0.75325161521E+00  0.15601705318E+02  0.17458561833E+02  0.51100000000E-03 0.  1.
        -12    1    3    3    0    0  0.26224073580E+01 -0.12292662295E+02  0.23976349318E+02  0.27071237380E+02  0.00000000000E+00 0.  1.
</event>
<event>
 7    1  0.2647566E-010  0.4778727E+02  0.7816164E-02  0.1312668E+00
        -11   -1    0    0    0    0  0.00000000000E+00  0.00000000000E+00  0.45593999997E+02  0.45594000000E+02  0.51100000000E-03 0. -1.
         11   -1    0    0    0    0 -0.00000000000E+00 -0.00000000000E+00 -0.45593999997E+02  0.45594000000E+02  0.51100000000E-03 0.  1.
    9900012    2    1    2    0    0 -0.21390518992E+02 -0.36373350679E+02 -0.10151274570E+02  0.47787270539E+02  0.19999997694E+02 0.  0.
         12    1    1    2    0    0  0.21390518992E+02  0.36373350679E+02  0.10151274570E+02  0.43400729461E+02  0.00000000000E+00 0. -1.
         11    1    3    3    0    0  0.42311676216E+00 -0.44978694234E+01  0.37813912188E+01  0.58914155307E+01  0.51100000000E-03 0. -1.
        -11    1    3    3    0    0 -0.17304401819E+01 -0.83960916467E+01 -0.38300315934E+01  0.93892449340E+01  0.51100000000E-03 0.  1.
        -12    1    3    3    0    0 -0.20083195572E+02 -0.23479389609E+02 -0.10102634195E+02  0.32506610074E+02  0.00000000000E+00 0.  1.
</event>
<event>
 7    1  0.2647566E-010  0.4778728E+02  0.7816164E-02  0.1312668E+00
        -11   -1    0    0    0    0  0.00000000000E+00  0.00000000000E+00  0.45593999997E+02  0.45594000000E+02  0.51100000000E-03 0.  1.
         11   -1    0    0    0    0 -0.00000000000E+00 -0.00000000000E+00 -0.45593999997E+02  0.45594000000E+02  0.51100000000E-03 0. -1.
    9900012    2    1    2    0    0 -0.10164477217E+02  0.42192019929E+02  0.37359946055E+00  0.47787277433E+02  0.20000029128E+02 0.  0.
         12    1    1    2    0    0  0.10164477217E+02 -0.42192019929E+02 -0.37359946055E+00  0.43400722567E+02  0.00000000000E+00 0. -1.
         11    1    3    3    0    0 -0.10839680107E+02  0.30661822949E+02 -0.65603393337E+01  0.33176559553E+02  0.51100000000E-03 0.  1.
        -11    1    3    3    0    0  0.33626893568E+00  0.39636566030E+01 -0.48633782836E+00  0.40075148419E+01  0.51100000000E-03 0. -1.
         12    1    3    3    0    0  0.33893395364E+00  0.75665403770E+01  0.74202766226E+01  0.10603203038E+02  0.00000000000E+00 0. -1.
</event>
<event>
 7    1  0.2647566E-010  0.4778726E+02  0.7816164E-02  0.1312668E+00
        -11   -1    0    0    0    0  0.00000000000E+00  0.00000000000E+00  0.45593999997E+02  0.45594000000E+02  0.51100000000E-03 0. -1.
         11   -1    0    0    0    0 -0.00000000000E+00 -0.00000000000E+00 -0.45593999997E+02  0.45594000000E+02  0.51100000000E-03 0.  1.
    9900012    2    1    2    0    0 -0.11293542052E+02 -0.36120744361E+02 -0.21245515027E+02  0.47787260674E+02  0.19999952717E+02 0.  0.
         12    1    1    2    0    0  0.11293542052E+02  0.36120744361E+02  0.21245515027E+02  0.43400739326E+02  0.00000000000E+00 0. -1.
         11    1    3    3    0    0 -0.23317674197E+01 -0.34955689309E+01  0.19747610501E+01  0.46428248854E+01  0.51100000000E-03 0. -1.
        -11    1    3    3    0    0 -0.25042840602E+01 -0.11519515326E+01  0.97525212360E+00  0.29239610041E+01  0.51100000000E-03 0.  1.
        -12    1    3    3    0    0 -0.64574905724E+01 -0.31473223897E+02 -0.24195528201E+02  0.40220474785E+02  0.00000000000E+00 0.  1.
</event>
<event>
 7    1  0.2647566E-010  0.4778727E+02  0.7816164E-02  0.1312668E+00
        -11   -1    0    0    0    0  0.00000000000E+00  0.00000000000E+00  0.45593999997E+02  0.45594000000E+02  0.51100000000E-03 0.  1.
         11   -1    0    0    0    0 -0.00000000000E+00 -0.00000000000E+00 -0.45593999997E+02  0.45594000000E+02  0.51100000000E-03 0. -1.
    9900012    2    1    2    0    0 -0.15592236021E+01 -0.34161268556E+02  0.26724512971E+02  0.47787273725E+02  0.20000012223E+02 0.  0.
         12    1    1    2    0    0  0.15592236021E+01  0.34161268556E+02 -0.26724512971E+02  0.43400726275E+02  0.00000000000E+00 0. -1.
         11    1    3    3    0    0 -0.52469609832E+01 -0.69729619769E+01  0.86786562491E+01  0.12307390984E+02  0.51100000000E-03 0. -1.
        -11    1    3    3    0    0 -0.27340331879E+00 -0.26296927707E+02  0.16902543802E+02  0.31261784073E+02  0.51100000000E-03 0.  1.
         12    1    3    3    0    0  0.39611406999E+01 -0.89137887247E+00  0.11433129205E+01  0.42180986680E+01  0.00000000000E+00 0. -1.
</event>
<event>
 7    1  0.2647566E-010  0.4778727E+02  0.7816164E-02  0.1312668E+00
        -11   -1    0    0    0    0  0.00000000000E+00  0.00000000000E+00  0.45593999997E+02  0.45594000000E+02  0.51100000000E-03 0. -1.
         11   -1    0    0    0    0 -0.00000000000E+00 -0.00000000000E+00 -0.45593999997E+02  0.45594000000E+02  0.51100000000E-03 0.  1.
    9900012    2    1    2    0    0  0.13728169015E+01 -0.38096191103E+02 -0.20746534575E+02  0.47787273051E+02  0.20000009149E+02 0.  0.
         12    1    1    2    0    0 -0.13728169015E+01  0.38096191103E+02  0.20746534575E+02  0.43400726949E+02  0.00000000000E+00 0. -1.
         11    1    3    3    0    0  0.40168731168E+01 -0.11019996622E+01 -0.29818593180E+01  0.51226124336E+01  0.51100000000E-03 0. -1.
        -11    1    3    3    0    0 -0.34677994995E+01 -0.50626267035E+01 -0.61185938733E+01  0.86656225255E+01  0.51100000000E-03 0.  1.
         12    1    3    3    0    0  0.82374328426E+00 -0.31931564738E+02 -0.11646081383E+02  0.33999038092E+02  0.00000000000E+00 0. -1.
</event>
<event>
 7    1  0.2647566E-010  0.4778729E+02  0.7816164E-02  0.1312668E+00
        -11   -1    0    0    0    0  0.00000000000E+00  0.00000000000E+00  0.45593999997E+02  0.45594000000E+02  0.51100000000E-03 0. -1.
         11   -1    0    0    0    0 -0.00000000000E+00 -0.00000000000E+00 -0.45593999997E+02  0.45594000000E+02  0.51100000000E-03 0.  1.
    9900012    2    1    2    0    0  0.37902761590E+02  0.20908255460E+02 -0.31379550686E+01  0.47787294423E+02  0.20000106594E+02 0.  0.
         12    1    1    2    0    0 -0.37902761590E+02 -0.20908255460E+02  0.31379550686E+01  0.43400705577E+02  0.00000000000E+00 0. -1.
         11    1    3    3    0    0  0.15020272341E+01 -0.12278962378E+01 -0.37218585882E+01  0.41971474354E+01  0.51100000000E-03 0. -1.
        -11    1    3    3    0    0  0.71357560238E+01  0.15633284521E+01  0.26174669629E+01  0.77597772806E+01  0.51100000000E-03 0.  1.
        -12    1    3    3    0    0  0.29264978332E+02  0.20572823246E+02 -0.20335634434E+01  0.35830369707E+02  0.00000000000E+00 0.  1.
</event>
<event>
 7    1  0.2647566E-010  0.4778728E+02  0.7816164E-02  0.1312668E+00
        -11   -1    0    0    0    0  0.00000000000E+00  0.00000000000E+00  0.45593999997E+02  0.45594000000E+02  0.51100000000E-03 0.  1.
         11   -1    0    0    0    0 -0.00000000000E+00 -0.00000000000E+00 -0.45593999997E+02  0.45594000000E+02  0.51100000000E-03 0. -1.
    9900012    2    1    2    0    0 -0.36400098621E+02 -0.10822821717E+02  0.21012419783E+02  0.47787280713E+02  0.20000044082E+02 0.  0.
         12    1    1    2    0    0  0.36400098621E+02  0.10822821717E+02 -0.21012419783E+02  0.43400719287E+02  0.00000000000E+00 0. -1.
         11    1    3    3    0    0  0.38336996048E-01 -0.12071911588E+01  0.28591219116E+00  0.12411793833E+01  0.51100000000E-03 0. -1.
        -11    1    3    3    0    0 -0.36924774884E+02 -0.12099157956E+02  0.20675639649E+02  0.44014891783E+02  0.51100000000E-03 0.  1.
        -12    1    3    3    0    0  0.48633926769E+00  0.24835273982E+01  0.50867942605E-01  0.25312095466E+01  0.00000000000E+00 0.  1.
</event>
<event>
 7    1  0.2647566E-010  0.4778728E+02  0.7816164E-02  0.1312668E+00
        -11   -1    0    0    0    0  0.00000000000E+00  0.00000000000E+00  0.45593999997E+02  0.45594000000E+02  0.51100000000E-03 0.  1.
         11   -1    0    0    0    0 -0.00000000000E+00 -0.00000000000E+00 -0.45593999997E+02  0.45594000000E+02  0.51100000000E-03 0. -1.
    9900012    2    1    2    0    0 -0.51902013454E+01 -0.22390704281E+01  0.43031050308E+02  0.47787275156E+02  0.20000018745E+02 0.  0.
         12    1    1    2    0    0  0.51902013454E+01  0.22390704281E+01 -0.43031050308E+02  0.43400724844E+02  0.00000000000E+00 0. -1.
         11    1    3    3    0    0  0.20873023725E+01  0.31159819835E+01  0.12043594563E+02  0.12614053479E+02  0.51100000000E-03 0. -1.
        -11    1    3    3    0    0 -0.45659013126E+01 -0.59328505310E+01  0.49191842347E+01  0.89579319051E+01  0.51100000000E-03 0.  1.
         12    1    3    3    0    0 -0.27116024052E+01  0.57779811938E+00  0.26068271511E+02  0.26215289772E+02  0.00000000000E+00 0. -1.
</event>
<event>
 7    1  0.2647566E-010  0.4778729E+02  0.7816164E-02  0.1312668E+00
        -11   -1    0    0    0    0  0.00000000000E+00  0.00000000000E+00  0.45593999997E+02  0.45594000000E+02  0.51100000000E-03 0. -1.
         11   -1    0    0    0    0 -0.00000000000E+00 -0.00000000000E+00 -0.45593999997E+02  0.45594000000E+02  0.51100000000E-03 0.  1.
    9900012    2    1    2    0    0 -0.19302441050E+02  0.12918140542E+02 -0.36662779473E+02  0.47787285902E+02  0.20000067741E+02 0.  0.
         12    1    1    2    0    0  0.19302441050E+02 -0.12918140542E+02  0.36662779473E+02  0.43400714098E+02  0.00000000000E+00 0. -1.
         11    1    3    3    0    0 -0.75714743635E+01  0.63720348443E+01 -0.56018168885E+01  0.11371473291E+02  0.51100000000E-03 0. -1.
        -11    1    3    3    0    0 -0.14568052363E+02  0.63123327856E+01 -0.23729292649E+02  0.28550884832E+02  0.51100000000E-03 0.  1.
        -12    1    3    3    0    0  0.28370856767E+01  0.23377291195E+00 -0.73316699358E+01  0.78649277784E+01  0.00000000000E+00 0.  1.
</event>
<event>
 7    1  0.2647566E-010  0.4778727E+02  0.7816164E-02  0.1312668E+00
        -11   -1    0    0    0    0  0.00000000000E+00  0.00000000000E+00  0.45593999997E+02  0.45594000000E+02  0.51100000000E-03 0.  1.
         11   -1    0    0    0    0 -0.00000000000E+00 -0.00000000000E+00 -0.45593999997E+02  0.45594000000E+02  0.51100000000E-03 0. -1.
    9900012    2    1    2    0    0 -0.38428311680E+02  0.97644968890E+01  0.17650569352E+02  0.47787272627E+02  0.20000007215E+02 0.  0.
         12    1    1    2    0    0  0.38428311680E+02 -0.97644968890E+01 -0.17650569352E+02  0.43400727373E+02  0.00000000000E+00 0. -1.
         11    1    3    3    0    0 -0.16806360745E+02 -0.55015055596E+00  0.15709333362E+02  0.23011727055E+02  0.51100000000E-03 0. -1.
        -11    1    3    3    0    0 -0.85394105968E+01  0.51558059490E+01  0.36222757366E+01  0.10612480864E+02  0.51100000000E-03 0.  1.
         12    1    3    3    0    0 -0.13082540338E+02  0.51588414960E+01 -0.16810397463E+01  0.14163064707E+02  0.00000000000E+00 0. -1.
</event>
<event>
 7    1  0.2647566E-010  0.4778727E+02  0.7816164E-02  0.1312668E+00
        -11   -1    0    0    0    0  0.00000000000E+00  0.00000000000E+00  0.45593999997E+02  0.45594000000E+02  0.51100000000E-03 0.  1.
         11   -1    0    0    0    0 -0.00000000000E+00 -0.00000000000E+00 -0.45593999997E+02  0.45594000000E+02  0.51100000000E-03 0. -1.
    9900012    2    1    2    0    0  0.18965031854E+02 -0.31079738150E+02 -0.23622036786E+02  0.47787272142E+02  0.20000005004E+02 0.  0.
         12    1    1    2    0    0 -0.18965031854E+02  0.31079738150E+02  0.23622036786E+02  0.43400727858E+02  0.00000000000E+00 0. -1.
         11    1    3    3    0    0  0.96791768662E+01 -0.85341661987E+01 -0.51198696660E+01  0.13882777934E+02  0.51100000000E-03 0. -1.
        -11    1    3    3    0    0  0.15650131952E+01 -0.75743921425E+01  0.13687079571E+01  0.78545556439E+01  0.51100000000E-03 0.  1.
         12    1    3    3    0    0  0.77208417922E+01 -0.14971179809E+02 -0.19870875077E+02  0.26049938564E+02  0.00000000000E+00 0. -1.
</event>
<event>
 7    1  0.2647566E-010  0.4778727E+02  0.7816164E-02  0.1312668E+00
        -11   -1    0    0    0    0  0.00000000000E+00  0.00000000000E+00  0.45593999997E+02  0.45594000000E+02  0.51100000000E-03 0. -1.
         11   -1    0    0    0    0 -0.00000000000E+00 -0.00000000000E+00 -0.45593999997E+02  0.45594000000E+02  0.51100000000E-03 0.  1.
    9900012    2    1    2    0    0 -0.11550984606E+02 -0.12442495166E+02 -0.39942239374E+02  0.47787269390E+02  0.19999992456E+02 0.  0.
         12    1    1    2    0    0  0.11550984606E+02  0.12442495166E+02  0.39942239374E+02  0.43400730610E+02  0.00000000000E+00 0. -1.
         11    1    3    3    0    0 -0.43332714226E+01 -0.36140822823E+01 -0.32042779392E+01  0.64889312940E+01  0.51100000000E-03 0. -1.
        -11    1    3    3    0    0 -0.98758146999E+01 -0.11195379517E+02 -0.32495004141E+02  0.35760222775E+02  0.51100000000E-03 0.  1.
         12    1    3    3    0    0  0.26581015169E+01  0.23669666329E+01 -0.42429572929E+01  0.55381153207E+01  0.00000000000E+00 0. -1.
</event>
<event>
 7    1  0.2647566E-010  0.4778727E+02  0.7816164E-02  0.1312668E+00
        -11   -1    0    0    0    0  0.00000000000E+00  0.00000000000E+00  0.45593999997E+02  0.45594000000E+02  0.51100000000E-03 0.  1.
         11   -1    0    0    0    0 -0.00000000000E+00 -0.00000000000E+00 -0.45593999997E+02  0.45594000000E+02  0.51100000000E-03 0. -1.
    9900012    2    1    2    0    0  0.19669631721E+02  0.37589870301E+02 -0.91504521323E+01  0.47787268030E+02  0.19999986257E+02 0.  0.
         12    1    1    2    0    0 -0.19669631721E+02 -0.37589870301E+02  0.91504521323E+01  0.43400731970E+02  0.00000000000E+00 0. -1.
         11    1    3    3    0    0  0.81364651495E+01  0.19467950397E+02 -0.44977506773E+01  0.21573894391E+02  0.51100000000E-03 0. -1.
        -11    1    3    3    0    0  0.12702484763E+01  0.14935408699E+02 -0.36009951894E+01  0.15415807822E+02  0.51100000000E-03 0.  1.
         12    1    3    3    0    0  0.10262918096E+02  0.31865112050E+01 -0.10517062655E+01  0.10797565817E+02  0.00000000000E+00 0. -1.
</event>
<event>
 7    1  0.2647566E-010  0.4778728E+02  0.7816164E-02  0.1312668E+00
        -11   -1    0    0    0    0  0.00000000000E+00  0.00000000000E+00  0.45593999997E+02  0.45594000000E+02  0.51100000000E-03 0.  1.
         11   -1    0    0    0    0 -0.00000000000E+00 -0.00000000000E+00 -0.45593999997E+02  0.45594000000E+02  0.51100000000E-03 0. -1.
    9900012    2    1    2    0    0 -0.77950557918E+00  0.42296660656E+02 -0.96957487611E+01  0.47787277937E+02  0.20000031425E+02 0.  0.
         12    1    1    2    0    0  0.77950557918E+00 -0.42296660656E+02  0.96957487611E+01  0.43400722063E+02  0.00000000000E+00 0. -1.
         11    1    3    3    0    0  0.11915988488E+01  0.24652292562E+01 -0.40622446465E+01  0.48988871115E+01  0.51100000000E-03 0. -1.
        -11    1    3    3    0    0 -0.13944905589E+01  0.30408223948E+02 -0.10584782909E+02  0.32227974139E+02  0.51100000000E-03 0.  1.
         12    1    3    3    0    0 -0.57661386910E+00  0.94232074512E+01  0.49512787945E+01  0.10660416686E+02  0.00000000000E+00 0. -1.
</event>
<event>
 7    1  0.2647566E-010  0.4778727E+02  0.7816164E-02  0.1312668E+00
        -11   -1    0    0    0    0  0.00000000000E+00  0.00000000000E+00  0.45593999997E+02  0.45594000000E+02  0.51100000000E-03 0. -1.
         11   -1    0    0    0    0 -0.00000000000E+00 -0.00000000000E+00 -0.45593999997E+02  0.45594000000E+02  0.51100000000E-03 0.  1.
    9900012    2    1    2    0    0  0.17256278654E+02  0.39817552715E+02 -0.63773831579E+00  0.47787269968E+02  0.19999995092E+02 0.  0.
         12    1    1    2    0    0 -0.17256278654E+02 -0.39817552715E+02  0.63773831579E+00  0.43400730032E+02  0.00000000000E+00 0. -1.
         11    1    3    3    0    0  0.31102746620E+01  0.11663748649E+01 -0.75572526843E+00  0.34066640194E+01  0.51100000000E-03 0. -1.
        -11    1    3    3    0    0  0.57008255377E+01  0.30521173165E+02 -0.52460772089E+01  0.31489089373E+02  0.51100000000E-03 0.  1.
        -12    1    3    3    0    0  0.84451784541E+01  0.81300046845E+01  0.53640641615E+01  0.12891516576E+02  0.00000000000E+00 0.  1.
</event>
<event>
 7    1  0.2647566E-010  0.4778726E+02  0.7816164E-02  0.1312668E+00
        -11   -1    0    0    0    0  0.00000000000E+00  0.00000000000E+00  0.45593999997E+02  0.45594000000E+02  0.51100000000E-03 0.  1.
         11   -1    0    0    0    0 -0.00000000000E+00 -0.00000000000E+00 -0.45593999997E+02  0.45594000000E+02  0.51100000000E-03 0. -1.
    9900012    2    1    2    0    0  0.28313749674E+02  0.42074405162E+01  0.32622897151E+02  0.47787258130E+02  0.19999941120E+02 0.  0.
         12    1    1    2    0    0 -0.28313749674E+02 -0.42074405162E+01 -0.32622897151E+02  0.43400741870E+02  0.00000000000E+00 0. -1.
         11    1    3    3    0    0  0.78107206503E+01  0.84000640940E+00  0.13065845161E+02  0.15245631436E+02  0.51100000000E-03 0. -1.
        -11    1    3    3    0    0  0.20052335474E+02  0.39802573966E+01  0.21970761966E+02  0.30010881169E+02  0.51100000000E-03 0.  1.
         12    1    3    3    0    0  0.45069354962E+00 -0.61282328983E+00 -0.24137099767E+01  0.25307455249E+01  0.00000000000E+00 0. -1.
</event>
<event>
 7    1  0.2647566E-010  0.4778727E+02  0.7816164E-02  0.1312668E+00
        -11   -1    0    0    0    0  0.00000000000E+00  0.00000000000E+00  0.45593999997E+02  0.45594000000E+02  0.51100000000E-03 0.  1.
         11   -1    0    0    0    0 -0.00000000000E+00 -0.00000000000E+00 -0.45593999997E+02  0.45594000000E+02  0.51100000000E-03 0. -1.
    9900012    2    1    2    0    0 -0.14944617445E+02  0.25219942986E+02  0.32003690075E+02  0.47787270821E+02  0.19999998983E+02 0.  0.
         12    1    1    2    0    0  0.14944617445E+02 -0.25219942986E+02 -0.32003690075E+02  0.43400729179E+02  0.00000000000E+00 0. -1.
         11    1    3    3    0    0 -0.12257339770E+01 -0.28712648958E+01  0.28486319450E+01  0.42262619539E+01  0.51100000000E-03 0. -1.
        -11    1    3    3    0    0  0.65913719416E+00  0.57652922235E+01  0.48654850338E+01  0.75727142517E+01  0.51100000000E-03 0.  1.
         12    1    3    3    0    0 -0.14378020663E+02  0.22325915658E+02  0.24289573097E+02  0.35988294616E+02  0.00000000000E+00 0. -1.
</event>
<event>
 7    1  0.2647566E-010  0.4778727E+02  0.7816164E-02  0.1312668E+00
        -11   -1    0    0    0    0  0.00000000000E+00  0.00000000000E+00  0.45593999997E+02  0.45594000000E+02  0.51100000000E-03 0. -1.
         11   -1    0    0    0    0 -0.00000000000E+00 -0.00000000000E+00 -0.45593999997E+02  0.45594000000E+02  0.51100000000E-03 0.  1.
    9900012    2    1    2    0    0 -0.43240312182E+02  0.34639575876E+01 -0.13782800245E+01  0.47787271255E+02  0.20000000961E+02 0.  0.
         12    1    1    2    0    0  0.43240312182E+02 -0.34639575876E+01  0.13782800245E+01  0.43400728745E+02  0.00000000000E+00 0. -1.
         11    1    3    3    0    0 -0.59380987292E+01  0.58384890289E+01  0.20019583291E+00  0.83300089610E+01  0.51100000000E-03 0. -1.
        -11    1    3    3    0    0 -0.23998811317E+02  0.39345098622E+01  0.16808658854E+01  0.24377215241E+02  0.51100000000E-03 0.  1.
         12    1    3    3    0    0 -0.13303402135E+02 -0.63090413035E+01 -0.32593417429E+01  0.15080047054E+02  0.00000000000E+00 0. -1.
</event>
<event>
 7    1  0.2647566E-010  0.4778727E+02  0.7816164E-02  0.1312668E+00
        -11   -1    0    0    0    0  0.00000000000E+00  0.00000000000E+00  0.45593999997E+02  0.45594000000E+02  0.51100000000E-03 0.  1.
         11   -1    0    0    0    0 -0.00000000000E+00 -0.00000000000E+00 -0.45593999997E+02  0.45594000000E+02  0.51100000000E-03 0. -1.
    9900012    2    1    2    0    0 -0.18957027220E+02  0.38039831396E+02  0.87877985400E+01  0.47787273544E+02  0.20000011399E+02 0.  0.
         12    1    1    2    0    0  0.18957027220E+02 -0.38039831396E+02 -0.87877985400E+01  0.43400726456E+02  0.00000000000E+00 0. -1.
         11    1    3    3    0    0  0.10071079858E+01 -0.10152593967E+01 -0.11965425929E+01  0.18645998433E+01  0.51100000000E-03 0. -1.
        -11    1    3    3    0    0 -0.14119572927E+00  0.34877748831E+01 -0.12086153877E+01  0.36939492804E+01  0.51100000000E-03 0.  1.
        -12    1    3    3    0    0 -0.19822939477E+02  0.35567315910E+02  0.11192956521E+02  0.42228724421E+02  0.00000000000E+00 0.  1.
</event>
<event>
 7    1  0.2647566E-010  0.4778727E+02  0.7816164E-02  0.1312668E+00
        -11   -1    0    0    0    0  0.00000000000E+00  0.00000000000E+00  0.45593999997E+02  0.45594000000E+02  0.51100000000E-03 0.  1.
         11   -1    0    0    0    0 -0.00000000000E+00 -0.00000000000E+00 -0.45593999997E+02  0.45594000000E+02  0.51100000000E-03 0. -1.
    9900012    2    1    2    0    0  0.25504889545E+02  0.31260138282E+02  0.15997751542E+02  0.47787266244E+02  0.19999978115E+02 0.  0.
         12    1    1    2    0    0 -0.25504889545E+02 -0.31260138282E+02 -0.15997751542E+02  0.43400733756E+02  0.00000000000E+00 0. -1.
         11    1    3    3    0    0  0.24490446169E+01 -0.80097247842E+00  0.58618379895E+00  0.26425344187E+01  0.51100000000E-03 0. -1.
        -11    1    3    3    0    0  0.12422933822E+01 -0.13084191152E+01  0.27996412633E+01  0.33306523225E+01  0.51100000000E-03 0.  1.
        -12    1    3    3    0    0  0.21813551546E+02  0.33369529876E+02  0.12611926480E+02  0.41814079503E+02  0.00000000000E+00 0.  1.
</event>
<event>
 7    1  0.2647566E-010  0.4778727E+02  0.7816164E-02  0.1312668E+00
        -11   -1    0    0    0    0  0.00000000000E+00  0.00000000000E+00  0.45593999997E+02  0.45594000000E+02  0.51100000000E-03 0.  1.
         11   -1    0    0    0    0 -0.00000000000E+00 -0.00000000000E+00 -0.45593999997E+02  0.45594000000E+02  0.51100000000E-03 0. -1.
    9900012    2    1    2    0    0 -0.17734697282E+01 -0.12179528791E+02  0.41618951655E+02  0.47787271281E+02  0.20000001080E+02 0.  0.
         12    1    1    2    0    0  0.17734697282E+01  0.12179528791E+02 -0.41618951655E+02  0.43400728719E+02  0.00000000000E+00 0. -1.
         11    1    3    3    0    0  0.68404239743E+00 -0.26929823108E+01  0.12965006663E+02  0.13259391606E+02  0.51100000000E-03 0. -1.
        -11    1    3    3    0    0 -0.10882910445E+01  0.14746303588E+01  0.21021347102E+02  0.21101088747E+02  0.51100000000E-03 0.  1.
         12    1    3    3    0    0 -0.13692210811E+01 -0.10961176839E+02  0.76325978898E+01  0.13426790928E+02  0.00000000000E+00 0. -1.
</event>
<event>
 7    1  0.2647566E-010  0.4778727E+02  0.7816164E-02  0.1312668E+00
        -11   -1    0    0    0    0  0.00000000000E+00  0.00000000000E+00  0.45593999997E+02  0.45594000000E+02  0.51100000000E-03 0. -1.
         11   -1    0    0    0    0 -0.00000000000E+00 -0.00000000000E+00 -0.45593999997E+02  0.45594000000E+02  0.51100000000E-03 0.  1.
    9900012    2    1    2    0    0  0.24960973256E+02 -0.35120473663E+02  0.52082327919E+01  0.47787267921E+02  0.19999985758E+02 0.  0.
         12    1    1    2    0    0 -0.24960973256E+02  0.35120473663E+02 -0.52082327919E+01  0.43400732079E+02  0.00000000000E+00 0. -1.
         11    1    3    3    0    0  0.89665917047E+01 -0.43880965482E+01  0.76675268255E+01  0.12587538520E+02  0.51100000000E-03 0. -1.
        -11    1    3    3    0    0  0.88344644703E+01 -0.13816104121E+02  0.12973813166E+01  0.16450401032E+02  0.51100000000E-03 0.  1.
        -12    1    3    3    0    0  0.71599170813E+01 -0.16916272993E+02 -0.37566753503E+01  0.18749328369E+02  0.00000000000E+00 0.  1.
</event>
<event>
 7    1  0.2647566E-010  0.4778727E+02  0.7816164E-02  0.1312668E+00
        -11   -1    0    0    0    0  0.00000000000E+00  0.00000000000E+00  0.45593999997E+02  0.45594000000E+02  0.51100000000E-03 0.  1.
         11   -1    0    0    0    0 -0.00000000000E+00 -0.00000000000E+00 -0.45593999997E+02  0.45594000000E+02  0.51100000000E-03 0. -1.
    9900012    2    1    2    0    0 -0.37681755203E+02 -0.20791621734E+02  0.56051329360E+01  0.47787265851E+02  0.19999976320E+02 0.  0.
         12    1    1    2    0    0  0.37681755203E+02  0.20791621734E+02 -0.56051329360E+01  0.43400734149E+02  0.00000000000E+00 0. -1.
         11    1    3    3    0    0 -0.13547507798E+02 -0.10756314526E+01 -0.23604032055E+00  0.13592191356E+02  0.51100000000E-03 0. -1.
        -11    1    3    3    0    0 -0.93502350050E+01 -0.96455062181E+01 -0.36832514448E+01  0.13929430222E+02  0.51100000000E-03 0.  1.
         12    1    3    3    0    0 -0.14784012400E+02 -0.10070484063E+02  0.95244247014E+01  0.20265644273E+02  0.00000000000E+00 0. -1.
</event>
<event>
 7    1  0.2647566E-010  0.4778727E+02  0.7816164E-02  0.1312668E+00
        -11   -1    0    0    0    0  0.00000000000E+00  0.00000000000E+00  0.45593999997E+02  0.45594000000E+02  0.51100000000E-03 0.  1.
         11   -1    0    0    0    0 -0.00000000000E+00 -0.00000000000E+00 -0.45593999997E+02  0.45594000000E+02  0.51100000000E-03 0. -1.
    9900012    2    1    2    0    0  0.36188365932E+00  0.19780982763E+02  0.38629068415E+02  0.47787272294E+02  0.20000005696E+02 0.  0.
         12    1    1    2    0    0 -0.36188365932E+00 -0.19780982763E+02 -0.38629068415E+02  0.43400727706E+02  0.00000000000E+00 0. -1.
         11    1    3    3    0    0  0.25494271397E+01 -0.11116247024E+01  0.25685670947E+01  0.37858718152E+01  0.51100000000E-03 0. -1.
        -11    1    3    3    0    0  0.29799827242E-01 -0.21052539779E+01  0.32438435219E+01  0.38672345930E+01  0.51100000000E-03 0.  1.
        -12    1    3    3    0    0 -0.22173433076E+01  0.22997861443E+02  0.32816657798E+02  0.40134165886E+02  0.00000000000E+00 0.  1.
</event>
<event>
 7    1  0.2647566E-010  0.4778727E+02  0.7816164E-02  0.1312668E+00
        -11   -1    0    0    0    0  0.00000000000E+00  0.00000000000E+00  0.45593999997E+02  0.45594000000E+02  0.51100000000E-03 0.  1.
         11   -1    0    0    0    0 -0.00000000000E+00 -0.00000000000E+00 -0.45593999997E+02  0.45594000000E+02  0.51100000000E-03 0. -1.
    9900012    2    1    2    0    0 -0.26749556202E+01  0.25319076043E+02  0.35148434995E+02  0.47787268649E+02  0.19999989077E+02 0.  0.
         12    1    1    2    0    0  0.26749556202E+01 -0.25319076043E+02 -0.35148434995E+02  0.43400731351E+02  0.00000000000E+00 0. -1.
         11    1    3    3    0    0  0.37795931366E+01  0.48140707447E+01  0.13538763295E+01  0.62684593633E+01  0.51100000000E-03 0. -1.
        -11    1    3    3    0    0 -0.18288206992E+01 -0.76779185216E+00  0.11857777858E+01  0.23108783388E+01  0.51100000000E-03 0.  1.
        -12    1    3    3    0    0 -0.46257280576E+01  0.21272797151E+02  0.32608780879E+02  0.39207930947E+02  0.00000000000E+00 0.  1.
</event>
<event>
 7    1  0.2647566E-010  0.4778727E+02  0.7816164E-02  0.1312668E+00
        -11   -1    0    0    0    0  0.00000000000E+00  0.00000000000E+00  0.45593999997E+02  0.45594000000E+02  0.51100000000E-03 0. -1.
         11   -1    0    0    0    0 -0.00000000000E+00 -0.00000000000E+00 -0.45593999997E+02  0.45594000000E+02  0.51100000000E-03 0.  1.
    9900012    2    1    2    0    0 -0.27820462923E+02 -0.20020092818E+02 -0.26624067029E+02  0.47787271679E+02  0.20000002891E+02 0.  0.
         12    1    1    2    0    0  0.27820462923E+02  0.20020092818E+02  0.26624067029E+02  0.43400728321E+02  0.00000000000E+00 0. -1.
         11    1    3    3    0    0  0.10479783758E+01 -0.31597042469E+01  0.16815361163E+01  0.37295513906E+01  0.51100000000E-03 0. -1.
        -11    1    3    3    0    0 -0.90953023294E+01 -0.77017285617E+01 -0.88439187048E+01  0.14841025760E+02  0.51100000000E-03 0.  1.
         12    1    3    3    0    0 -0.19773138969E+02 -0.91586600095E+01 -0.19461684440E+02  0.29216694528E+02  0.00000000000E+00 0. -1.
</event>
<event>
 7    1  0.2647566E-010  0.4778727E+02  0.7816164E-02  0.1312668E+00
        -11   -1    0    0    0    0  0.00000000000E+00  0.00000000000E+00  0.45593999997E+02  0.45594000000E+02  0.51100000000E-03 0.  1.
         11   -1    0    0    0    0 -0.00000000000E+00 -0.00000000000E+00 -0.45593999997E+02  0.45594000000E+02  0.51100000000E-03 0. -1.
    9900012    2    1    2    0    0 -0.37297666809E+02  0.22189165514E+02 -0.38531706776E+00  0.47787268614E+02  0.19999988917E+02 0.  0.
         12    1    1    2    0    0  0.37297666809E+02 -0.22189165514E+02  0.38531706776E+00  0.43400731386E+02  0.00000000000E+00 0. -1.
         11    1    3    3    0    0 -0.28591159067E+01  0.54824032241E+01 -0.44674404499E+01  0.76281920083E+01  0.51100000000E-03 0. -1.
        -11    1    3    3    0    0 -0.13234920175E+02  0.10561229826E+02 -0.25152490357E+01  0.17118094679E+02  0.51100000000E-03 0.  1.
        -12    1    3    3    0    0 -0.21203630727E+02  0.61455324645E+01  0.65973724179E+01  0.23040981926E+02  0.00000000000E+00 0.  1.
</event>
<event>
 7    1  0.2647566E-010  0.4778727E+02  0.7816164E-02  0.1312668E+00
        -11   -1    0    0    0    0  0.00000000000E+00  0.00000000000E+00  0.45593999997E+02  0.45594000000E+02  0.51100000000E-03 0.  1.
         11   -1    0    0    0    0 -0.00000000000E+00 -0.00000000000E+00 -0.45593999997E+02  0.45594000000E+02  0.51100000000E-03 0. -1.
    9900012    2    1    2    0    0 -0.31171073549E+02  0.65581220823E+01  0.29478439621E+02  0.47787271965E+02  0.20000004198E+02 0.  0.
         12    1    1    2    0    0  0.31171073549E+02 -0.65581220823E+01 -0.29478439621E+02  0.43400728035E+02  0.00000000000E+00 0. -1.
         11    1    3    3    0    0 -0.41316225346E+01 -0.60149180543E+01  0.72248128701E+01  0.10268761621E+02  0.51100000000E-03 0. -1.
        -11    1    3    3    0    0 -0.47025194536E+01  0.34305276308E+01  0.63508204906E+01  0.86148203813E+01  0.51100000000E-03 0.  1.
         12    1    3    3    0    0 -0.22336931561E+02  0.91425125059E+01  0.15902806260E+02  0.28903689962E+02  0.00000000000E+00 0. -1.
</event>
<event>
 7    1  0.2647566E-010  0.4778727E+02  0.7816164E-02  0.1312668E+00
        -11   -1    0    0    0    0  0.00000000000E+00  0.00000000000E+00  0.45593999997E+02  0.45594000000E+02  0.51100000000E-03 0.  1.
         11   -1    0    0    0    0 -0.00000000000E+00 -0.00000000000E+00 -0.45593999997E+02  0.45594000000E+02  0.51100000000E-03 0. -1.
    9900012    2    1    2    0    0 -0.35820655924E+01 -0.71081260013E+01  0.42664581652E+02  0.47787272164E+02  0.20000005103E+02 0.  0.
         12    1    1    2    0    0  0.35820655924E+01  0.71081260013E+01 -0.42664581652E+02  0.43400727836E+02  0.00000000000E+00 0. -1.
         11    1    3    3    0    0  0.19763699411E+01  0.11104998864E+01  0.42252090906E+01  0.47949598812E+01  0.51100000000E-03 0. -1.
        -11    1    3    3    0    0 -0.35274435145E+01 -0.38305531003E+01  0.10759297290E+01  0.53172944102E+01  0.51100000000E-03 0.  1.
        -12    1    3    3    0    0 -0.20309920190E+01 -0.43880727874E+01  0.37363442833E+02  0.37675017872E+02  0.00000000000E+00 0.  1.
</event>
<event>
 7    1  0.2647566E-010  0.4778727E+02  0.7816164E-02  0.1312668E+00
        -11   -1    0    0    0    0  0.00000000000E+00  0.00000000000E+00  0.45593999997E+02  0.45594000000E+02  0.51100000000E-03 0.  1.
         11   -1    0    0    0    0 -0.00000000000E+00 -0.00000000000E+00 -0.45593999997E+02  0.45594000000E+02  0.51100000000E-03 0. -1.
    9900012    2    1    2    0    0  0.17151169219E+02  0.98403642664E+01  0.38634546089E+02  0.47787268140E+02  0.19999986757E+02 0.  0.
         12    1    1    2    0    0 -0.17151169219E+02 -0.98403642664E+01 -0.38634546089E+02  0.43400731860E+02  0.00000000000E+00 0. -1.
         11    1    3    3    0    0 -0.10496317352E-01  0.50153382226E+00 -0.12872861560E+01  0.13815760044E+01  0.51100000000E-03 0. -1.
        -11    1    3    3    0    0  0.35289645313E+01 -0.30104234070E+01  0.43490227613E+01  0.63584777260E+01  0.51100000000E-03 0.  1.
        -12    1    3    3    0    0  0.13632701005E+02  0.12349253851E+02  0.35572809484E+02  0.40047214409E+02  0.00000000000E+00 0.  1.
</event>
<event>
 7    1  0.2647566E-010  0.4778725E+02  0.7816164E-02  0.1312668E+00
        -11   -1    0    0    0    0  0.00000000000E+00  0.00000000000E+00  0.45593999997E+02  0.45594000000E+02  0.51100000000E-03 0. -1.
         11   -1    0    0    0    0 -0.00000000000E+00 -0.00000000000E+00 -0.45593999997E+02  0.45594000000E+02  0.51100000000E-03 0.  1.
    9900012    2    1    2    0    0 -0.27126903436E+02 -0.41796642181E+01 -0.33619737526E+02  0.47787248459E+02  0.19999897023E+02 0.  0.
         12    1    1    2    0    0  0.27126903436E+02  0.41796642181E+01  0.33619737526E+02  0.43400751541E+02  0.00000000000E+00 0. -1.
         11    1    3    3    0    0 -0.81747365934E+00 -0.40321600937E+01 -0.32933374761E+01  0.52699762995E+01  0.51100000000E-03 0. -1.
        -11    1    3    3    0    0 -0.35671033409E+01  0.14512678427E+00  0.10894183111E+01  0.37325755914E+01  0.51100000000E-03 0.  1.
        -12    1    3    3    0    0 -0.22742326436E+02 -0.29263090866E+00 -0.31415818361E+02  0.38784696568E+02  0.00000000000E+00 0.  1.
</event>
<event>
 7    1  0.2647566E-010  0.4778727E+02  0.7816164E-02  0.1312668E+00
        -11   -1    0    0    0    0  0.00000000000E+00  0.00000000000E+00  0.45593999997E+02  0.45594000000E+02  0.51100000000E-03 0.  1.
         11   -1    0    0    0    0 -0.00000000000E+00 -0.00000000000E+00 -0.45593999997E+02  0.45594000000E+02  0.51100000000E-03 0. -1.
    9900012    2    1    2    0    0 -0.22826899040E+02 -0.34676070897E+02  0.12654109340E+02  0.47787266184E+02  0.19999977838E+02 0.  0.
         12    1    1    2    0    0  0.22826899040E+02  0.34676070897E+02 -0.12654109340E+02  0.43400733816E+02  0.00000000000E+00 0. -1.
         11    1    3    3    0    0 -0.13788210240E+01 -0.11844230401E+02 -0.27617118000E+01  0.12239852676E+02  0.51100000000E-03 0. -1.
        -11    1    3    3    0    0 -0.69654251338E+01 -0.93938789282E+01  0.90604036459E+01  0.14793681864E+02  0.51100000000E-03 0.  1.
         12    1    3    3    0    0 -0.14482652882E+02 -0.13437961567E+02  0.63554174942E+01  0.20753731643E+02  0.00000000000E+00 0. -1.
</event>
<event>
 7    1  0.2647566E-010  0.4778728E+02  0.7816164E-02  0.1312668E+00
        -11   -1    0    0    0    0  0.00000000000E+00  0.00000000000E+00  0.45593999997E+02  0.45594000000E+02  0.51100000000E-03 0. -1.
         11   -1    0    0    0    0 -0.00000000000E+00 -0.00000000000E+00 -0.45593999997E+02  0.45594000000E+02  0.51100000000E-03 0.  1.
    9900012    2    1    2    0    0 -0.25791335877E+02  0.34903441864E+02  0.42315382167E+00  0.47787282040E+02  0.20000050135E+02 0.  0.
         12    1    1    2    0    0  0.25791335877E+02 -0.34903441864E+02 -0.42315382167E+00  0.43400717960E+02  0.00000000000E+00 0. -1.
         11    1    3    3    0    0  0.10583950387E+01  0.37043842743E+01 -0.18187075342E+01  0.42603239626E+01  0.51100000000E-03 0. -1.
        -11    1    3    3    0    0 -0.26559891506E+01  0.26780410854E+01 -0.41240258036E+01  0.55887182353E+01  0.51100000000E-03 0.  1.
         12    1    3    3    0    0 -0.24193741765E+02  0.28521016504E+02  0.63658871594E+01  0.37938239842E+02  0.00000000000E+00 0. -1.
</event>
<event>
 7    1  0.2647566E-010  0.4778727E+02  0.7816164E-02  0.1312668E+00
        -11   -1    0    0    0    0  0.00000000000E+00  0.00000000000E+00  0.45593999997E+02  0.45594000000E+02  0.51100000000E-03 0. -1.
         11   -1    0    0    0    0 -0.00000000000E+00 -0.00000000000E+00 -0.45593999997E+02  0.45594000000E+02  0.51100000000E-03 0.  1.
    9900012    2    1    2    0    0 -0.23282717780E+02 -0.35700526181E+02 -0.81860120980E+01  0.47787270618E+02  0.19999998055E+02 0.  0.
         12    1    1    2    0    0  0.23282717780E+02  0.35700526181E+02  0.81860120980E+01  0.43400729382E+02  0.00000000000E+00 0. -1.
         11    1    3    3    0    0 -0.18587884386E+02 -0.14470449514E+02 -0.60183130258E+01  0.24313030396E+02  0.51100000000E-03 0. -1.
        -11    1    3    3    0    0 -0.55699929430E+01 -0.11786248040E+02 -0.43488418339E+01  0.13742375697E+02  0.51100000000E-03 0.  1.
        -12    1    3    3    0    0  0.87515954926E+00 -0.94438286275E+01  0.21811427617E+01  0.97318645248E+01  0.00000000000E+00 0.  1.
</event>
<event>
 7    1  0.2647566E-010  0.4778727E+02  0.7816164E-02  0.1312668E+00
        -11   -1    0    0    0    0  0.00000000000E+00  0.00000000000E+00  0.45593999997E+02  0.45594000000E+02  0.51100000000E-03 0.  1.
         11   -1    0    0    0    0 -0.00000000000E+00 -0.00000000000E+00 -0.45593999997E+02  0.45594000000E+02  0.51100000000E-03 0. -1.
    9900012    2    1    2    0    0  0.81641776279E+01  0.35610840966E+02  0.23427287275E+02  0.47787267520E+02  0.19999983932E+02 0.  0.
         12    1    1    2    0    0 -0.81641776279E+01 -0.35610840966E+02 -0.23427287275E+02  0.43400732480E+02  0.00000000000E+00 0. -1.
         11    1    3    3    0    0  0.34332993520E+01  0.35221946523E+01  0.19450142234E+00  0.49225227956E+01  0.51100000000E-03 0. -1.
        -11    1    3    3    0    0  0.40397496340E+01  0.73365802377E+00  0.51360663273E+00  0.41378283236E+01  0.51100000000E-03 0.  1.
        -12    1    3    3    0    0  0.69112864192E+00  0.31354988290E+02  0.22719179220E+02  0.38726916401E+02  0.00000000000E+00 0.  1.
</event>
<event>
 7    1  0.2647566E-010  0.4778727E+02  0.7816164E-02  0.1312668E+00
        -11   -1    0    0    0    0  0.00000000000E+00  0.00000000000E+00  0.45593999997E+02  0.45594000000E+02  0.51100000000E-03 0.  1.
         11   -1    0    0    0    0 -0.00000000000E+00 -0.00000000000E+00 -0.45593999997E+02  0.45594000000E+02  0.51100000000E-03 0. -1.
    9900012    2    1    2    0    0  0.90237984805E+01 -0.22731671623E+02  0.35853387616E+02  0.47787271465E+02  0.20000001919E+02 0.  0.
         12    1    1    2    0    0 -0.90237984805E+01  0.22731671623E+02 -0.35853387616E+02  0.43400728535E+02  0.00000000000E+00 0. -1.
         11    1    3    3    0    0 -0.21200179419E+01 -0.13339094752E+02  0.77354027395E+01  0.15564780136E+02  0.51100000000E-03 0. -1.
        -11    1    3    3    0    0  0.53535537721E+00 -0.35959035454E+01  0.70669638170E+01  0.79472703201E+01  0.51100000000E-03 0.  1.
         12    1    3    3    0    0  0.10608461045E+02 -0.57966733251E+01  0.21051021060E+02  0.24275221009E+02  0.00000000000E+00 0. -1.
</event>
<event>
 7    1  0.2647566E-010  0.4778727E+02  0.7816164E-02  0.1312668E+00
        -11   -1    0    0    0    0  0.00000000000E+00  0.00000000000E+00  0.45593999997E+02  0.45594000000E+02  0.51100000000E-03 0. -1.
         11   -1    0    0    0    0 -0.00000000000E+00 -0.00000000000E+00 -0.45593999997E+02  0.45594000000E+02  0.51100000000E-03 0.  1.
    9900012    2    1    2    0    0 -0.25458395327E+02  0.17662720303E+02 -0.30389495289E+02  0.47787274142E+02  0.20000014122E+02 0.  0.
         12    1    1    2    0    0  0.25458395327E+02 -0.17662720303E+02  0.30389495289E+02  0.43400725858E+02  0.00000000000E+00 0. -1.
         11    1    3    3    0    0 -0.23000969834E+01  0.81884112878E+01 -0.73592445975E+01  0.11247177729E+02  0.51100000000E-03 0.  1.
        -11    1    3    3    0    0 -0.85499936611E-01  0.10902864281E+01 -0.73053064090E+01  0.73867135266E+01  0.51100000000E-03 0. -1.
         12    1    3    3    0    0 -0.23072798407E+02  0.83840225870E+01 -0.15724944282E+02  0.29153382887E+02  0.00000000000E+00 0. -1.
</event>
<event>
 7    1  0.2647566E-010  0.4778727E+02  0.7816164E-02  0.1312668E+00
        -11   -1    0    0    0    0  0.00000000000E+00  0.00000000000E+00  0.45593999997E+02  0.45594000000E+02  0.51100000000E-03 0.  1.
         11   -1    0    0    0    0 -0.00000000000E+00 -0.00000000000E+00 -0.45593999997E+02  0.45594000000E+02  0.51100000000E-03 0. -1.
    9900012    2    1    2    0    0  0.23374587992E+01  0.73932945218E+01  0.42702447436E+02  0.47787268042E+02  0.19999986309E+02 0.  0.
         12    1    1    2    0    0 -0.23374587992E+01 -0.73932945218E+01 -0.42702447436E+02  0.43400731958E+02  0.00000000000E+00 0. -1.
         11    1    3    3    0    0  0.32867696972E+01 -0.12635958827E+01  0.14482879026E+02  0.14904808443E+02  0.51100000000E-03 0. -1.
        -11    1    3    3    0    0  0.23772620179E+01  0.77707350900E+01  0.28295261250E+02  0.29439047335E+02  0.51100000000E-03 0.  1.
         12    1    3    3    0    0 -0.33265729159E+01  0.88615531458E+00 -0.75692840211E-01  0.34434122629E+01  0.00000000000E+00 0. -1.
</event>
<event>
 7    1  0.2647566E-010  0.4778727E+02  0.7816164E-02  0.1312668E+00
        -11   -1    0    0    0    0  0.00000000000E+00  0.00000000000E+00  0.45593999997E+02  0.45594000000E+02  0.51100000000E-03 0. -1.
         11   -1    0    0    0    0 -0.00000000000E+00 -0.00000000000E+00 -0.45593999997E+02  0.45594000000E+02  0.51100000000E-03 0.  1.
    9900012    2    1    2    0    0  0.37096180982E+02  0.30777443341E+01  0.22316450389E+02  0.47787272914E+02  0.20000008524E+02 0.  0.
         12    1    1    2    0    0 -0.37096180982E+02 -0.30777443341E+01 -0.22316450389E+02  0.43400727086E+02  0.00000000000E+00 0. -1.
         11    1    3    3    0    0  0.73182569737E+01  0.73986884691E+00  0.92688009024E+01  0.11832791787E+02  0.51100000000E-03 0. -1.
        -11    1    3    3    0    0  0.22370067324E+02 -0.21149712567E+01  0.15098495398E+02  0.27071342395E+02  0.51100000000E-03 0.  1.
         12    1    3    3    0    0  0.74078566844E+01  0.44528467438E+01 -0.20508459120E+01  0.88831387322E+01  0.00000000000E+00 0. -1.
</event>
<event>
 7    1  0.2647566E-010  0.4778727E+02  0.7816164E-02  0.1312668E+00
        -11   -1    0    0    0    0  0.00000000000E+00  0.00000000000E+00  0.45593999997E+02  0.45594000000E+02  0.51100000000E-03 0.  1.
         11   -1    0    0    0    0 -0.00000000000E+00 -0.00000000000E+00 -0.45593999997E+02  0.45594000000E+02  0.51100000000E-03 0. -1.
    9900012    2    1    2    0    0 -0.34820880728E+02  0.25520188447E+02  0.44553096027E+01  0.47787268016E+02  0.19999986194E+02 0.  0.
         12    1    1    2    0    0  0.34820880728E+02 -0.25520188447E+02 -0.44553096027E+01  0.43400731984E+02  0.00000000000E+00 0. -1.
         11    1    3    3    0    0 -0.14461260904E+02  0.81027446694E+01 -0.22927162844E+01  0.16734368418E+02  0.51100000000E-03 0. -1.
        -11    1    3    3    0    0 -0.21183553311E+02  0.16646325395E+02  0.29638152235E+01  0.27104008578E+02  0.51100000000E-03 0.  1.
        -12    1    3    3    0    0  0.82393348685E+00  0.77111838221E+00  0.37842106636E+01  0.39488910211E+01  0.00000000000E+00 0.  1.
</event>
<event>
 7    1  0.2647566E-010  0.4778726E+02  0.7816164E-02  0.1312668E+00
        -11   -1    0    0    0    0  0.00000000000E+00  0.00000000000E+00  0.45593999997E+02  0.45594000000E+02  0.51100000000E-03 0.  1.
         11   -1    0    0    0    0 -0.00000000000E+00 -0.00000000000E+00 -0.45593999997E+02  0.45594000000E+02  0.51100000000E-03 0. -1.
    9900012    2    1    2    0    0  0.22746013417E+02  0.29190398471E+02  0.22675180224E+02  0.47787259367E+02  0.19999946759E+02 0.  0.
         12    1    1    2    0    0 -0.22746013417E+02 -0.29190398471E+02 -0.22675180224E+02  0.43400740633E+02  0.00000000000E+00 0. -1.
         11    1    3    3    0    0  0.81173077261E+01  0.48532150241E+01  0.10358520650E+02  0.14026522417E+02  0.51100000000E-03 0. -1.
        -11    1    3    3    0    0  0.16396521480E+02  0.16802243827E+02  0.10936113258E+02  0.25899032564E+02  0.51100000000E-03 0.  1.
         12    1    3    3    0    0 -0.17678157892E+01  0.75349396193E+01  0.13805463164E+01  0.78617043866E+01  0.00000000000E+00 0. -1.
</event>
<event>
 7    1  0.2647566E-010  0.4778727E+02  0.7816164E-02  0.1312668E+00
        -11   -1    0    0    0    0  0.00000000000E+00  0.00000000000E+00  0.45593999997E+02  0.45594000000E+02  0.51100000000E-03 0. -1.
         11   -1    0    0    0    0 -0.00000000000E+00 -0.00000000000E+00 -0.45593999997E+02  0.45594000000E+02  0.51100000000E-03 0.  1.
    9900012    2    1    2    0    0  0.16659279343E+02 -0.10993090155E+02 -0.38538862189E+02  0.47787268230E+02  0.19999987168E+02 0.  0.
         12    1    1    2    0    0 -0.16659279343E+02  0.10993090155E+02  0.38538862189E+02  0.43400731770E+02  0.00000000000E+00 0. -1.
         11    1    3    3    0    0 -0.28228156417E+01  0.22486964921E+01 -0.73528201798E+01  0.81907807270E+01  0.51100000000E-03 0. -1.
        -11    1    3    3    0    0  0.10634774891E+01 -0.70734234826E+00 -0.52602623804E+01  0.54131024504E+01  0.51100000000E-03 0.  1.
        -12    1    3    3    0    0  0.18418617495E+02 -0.12534444299E+02 -0.25925779628E+02  0.34183385053E+02  0.00000000000E+00 0.  1.
</event>
<event>
 7    1  0.2647566E-010  0.4778727E+02  0.7816164E-02  0.1312668E+00
        -11   -1    0    0    0    0  0.00000000000E+00  0.00000000000E+00  0.45593999997E+02  0.45594000000E+02  0.51100000000E-03 0.  1.
         11   -1    0    0    0    0 -0.00000000000E+00 -0.00000000000E+00 -0.45593999997E+02  0.45594000000E+02  0.51100000000E-03 0. -1.
    9900012    2    1    2    0    0  0.30905764567E+02 -0.11121928926E+02  0.28368285230E+02  0.47787271972E+02  0.20000004228E+02 0.  0.
         12    1    1    2    0    0 -0.30905764567E+02  0.11121928926E+02 -0.28368285230E+02  0.43400728028E+02  0.00000000000E+00 0. -1.
         11    1    3    3    0    0 -0.13059416059E+01 -0.12096216324E+01  0.26543789328E+00  0.17997570692E+01  0.51100000000E-03 0. -1.
        -11    1    3    3    0    0  0.14882295799E+02 -0.11478479211E+02  0.12139828586E+02  0.22374397235E+02  0.51100000000E-03 0.  1.
        -12    1    3    3    0    0  0.17329410374E+02  0.15661719174E+01  0.15963018751E+02  0.23613117668E+02  0.00000000000E+00 0.  1.
</event>
<event>
 7    1  0.2647566E-010  0.4778727E+02  0.7816164E-02  0.1312668E+00
        -11   -1    0    0    0    0  0.00000000000E+00  0.00000000000E+00  0.45593999997E+02  0.45594000000E+02  0.51100000000E-03 0.  1.
         11   -1    0    0    0    0 -0.00000000000E+00 -0.00000000000E+00 -0.45593999997E+02  0.45594000000E+02  0.51100000000E-03 0. -1.
    9900012    2    1    2    0    0 -0.25655626741E+02 -0.20532156150E+02  0.28352121104E+02  0.47787269698E+02  0.19999993860E+02 0.  0.
         12    1    1    2    0    0  0.25655626741E+02  0.20532156150E+02 -0.28352121104E+02  0.43400730302E+02  0.00000000000E+00 0. -1.
         11    1    3    3    0    0 -0.68714994742E+01 -0.13789340965E+01  0.13531653046E+02  0.15238917241E+02  0.51100000000E-03 0. -1.
        -11    1    3    3    0    0  0.99230579038E+00  0.48547929718E+00  0.47900464972E+00  0.12040791690E+01  0.51100000000E-03 0.  1.
        -12    1    3    3    0    0 -0.19776433058E+02 -0.19638701351E+02  0.14341463408E+02  0.31344273287E+02  0.00000000000E+00 0.  1.
</event>
<event>
 7    1  0.2647566E-010  0.4778727E+02  0.7816164E-02  0.1312668E+00
        -11   -1    0    0    0    0  0.00000000000E+00  0.00000000000E+00  0.45593999997E+02  0.45594000000E+02  0.51100000000E-03 0.  1.
         11   -1    0    0    0    0 -0.00000000000E+00 -0.00000000000E+00 -0.45593999997E+02  0.45594000000E+02  0.51100000000E-03 0. -1.
    9900012    2    1    2    0    0 -0.21049222628E+02 -0.14255550609E+02  0.35175745576E+02  0.47787267596E+02  0.19999984277E+02 0.  0.
         12    1    1    2    0    0  0.21049222628E+02  0.14255550609E+02 -0.35175745576E+02  0.43400732404E+02  0.00000000000E+00 0. -1.
         11    1    3    3    0    0 -0.13502668963E+02 -0.71961788142E+01  0.12144127013E+02  0.19534248893E+02  0.51100000000E-03 0. -1.
        -11    1    3    3    0    0 -0.14758906364E+01 -0.28537818124E+01 -0.79365305565E+00  0.33094122193E+01  0.51100000000E-03 0.  1.
        -12    1    3    3    0    0 -0.60706630284E+01 -0.42055899824E+01  0.23825271618E+02  0.24943606483E+02  0.00000000000E+00 0.  1.
</event>
<event>
 7    1  0.2647566E-010  0.4778727E+02  0.7816164E-02  0.1312668E+00
        -11   -1    0    0    0    0  0.00000000000E+00  0.00000000000E+00  0.45593999997E+02  0.45594000000E+02  0.51100000000E-03 0. -1.
         11   -1    0    0    0    0 -0.00000000000E+00 -0.00000000000E+00 -0.45593999997E+02  0.45594000000E+02  0.51100000000E-03 0.  1.
    9900012    2    1    2    0    0 -0.40311535075E+02 -0.10635279625E+02  0.12062105423E+02  0.47787269360E+02  0.19999992322E+02 0.  0.
         12    1    1    2    0    0  0.40311535075E+02  0.10635279625E+02 -0.12062105423E+02  0.43400730640E+02  0.00000000000E+00 0. -1.
         11    1    3    3    0    0 -0.15415765893E+02 -0.12788404335E+02  0.76431638839E+01  0.21438448589E+02  0.51100000000E-03 0. -1.
        -11    1    3    3    0    0 -0.10023096622E+02 -0.25511827470E+01  0.11029435084E+01  0.10401321260E+02  0.51100000000E-03 0.  1.
         12    1    3    3    0    0 -0.14872672560E+02  0.47043074568E+01  0.33159980311E+01  0.15947499511E+02  0.00000000000E+00 0. -1.
</event>
<event>
 7    1  0.2647566E-010  0.4778727E+02  0.7816164E-02  0.1312668E+00
        -11   -1    0    0    0    0  0.00000000000E+00  0.00000000000E+00  0.45593999997E+02  0.45594000000E+02  0.51100000000E-03 0. -1.
         11   -1    0    0    0    0 -0.00000000000E+00 -0.00000000000E+00 -0.45593999997E+02  0.45594000000E+02  0.51100000000E-03 0.  1.
    9900012    2    1    2    0    0  0.15056889046E+02  0.40374964301E+02  0.51745372939E+01  0.47787268598E+02  0.19999988844E+02 0.  0.
         12    1    1    2    0    0 -0.15056889046E+02 -0.40374964301E+02 -0.51745372939E+01  0.43400731402E+02  0.00000000000E+00 0. -1.
         11    1    3    3    0    0  0.28266987556E+01  0.13405628636E+02  0.50261267301E+01  0.14593253755E+02  0.51100000000E-03 0.  1.
        -11    1    3    3    0    0  0.59505478942E+01  0.25541280064E+02 -0.22506646946E+01  0.26321692563E+02  0.51100000000E-03 0. -1.
         12    1    3    3    0    0  0.62796423963E+01  0.14280556014E+01  0.23990752584E+01  0.68723222801E+01  0.00000000000E+00 0. -1.
</event>
<event>
 7    1  0.2647566E-010  0.4778727E+02  0.7816164E-02  0.1312668E+00
        -11   -1    0    0    0    0  0.00000000000E+00  0.00000000000E+00  0.45593999997E+02  0.45594000000E+02  0.51100000000E-03 0.  1.
         11   -1    0    0    0    0 -0.00000000000E+00 -0.00000000000E+00 -0.45593999997E+02  0.45594000000E+02  0.51100000000E-03 0. -1.
    9900012    2    1    2    0    0  0.55893056954E+01  0.38501236404E+02  0.19236365967E+02  0.47787270531E+02  0.19999997661E+02 0.  0.
         12    1    1    2    0    0 -0.55893056954E+01 -0.38501236404E+02 -0.19236365967E+02  0.43400729469E+02  0.00000000000E+00 0. -1.
         11    1    3    3    0    0 -0.60412938239E+00  0.84507465543E+01  0.53010707652E+01  0.99940702997E+01  0.51100000000E-03 0. -1.
        -11    1    3    3    0    0 -0.18612532894E+01  0.25619443057E+02  0.12203505227E+02  0.28438454009E+02  0.51100000000E-03 0.  1.
         12    1    3    3    0    0  0.80546883672E+01  0.44310467931E+01  0.17317899749E+01  0.93547462228E+01  0.00000000000E+00 0. -1.
</event>
<event>
 7    1  0.2647566E-010  0.4778727E+02  0.7816164E-02  0.1312668E+00
        -11   -1    0    0    0    0  0.00000000000E+00  0.00000000000E+00  0.45593999997E+02  0.45594000000E+02  0.51100000000E-03 0.  1.
         11   -1    0    0    0    0 -0.00000000000E+00 -0.00000000000E+00 -0.45593999997E+02  0.45594000000E+02  0.51100000000E-03 0. -1.
    9900012    2    1    2    0    0  0.33056368121E+02 -0.28110530848E+02 -0.83538666005E+00  0.47787270873E+02  0.19999999218E+02 0.  0.
         12    1    1    2    0    0 -0.33056368121E+02  0.28110530848E+02  0.83538666005E+00  0.43400729127E+02  0.00000000000E+00 0. -1.
         11    1    3    3    0    0  0.87872435401E+01 -0.47761983762E+01 -0.45345035168E+01  0.10981322433E+02  0.51100000000E-03 0. -1.
        -11    1    3    3    0    0  0.16817094308E+02 -0.10095213669E+02 -0.36147108680E+01  0.19944777134E+02  0.51100000000E-03 0.  1.
        -12    1    3    3    0    0  0.74520302733E+01 -0.13239118802E+02  0.73138277247E+01  0.16861171307E+02  0.00000000000E+00 0.  1.
</event>
<event>
 7    1  0.2647566E-010  0.4778727E+02  0.7816164E-02  0.1312668E+00
        -11   -1    0    0    0    0  0.00000000000E+00  0.00000000000E+00  0.45593999997E+02  0.45594000000E+02  0.51100000000E-03 0.  1.
         11   -1    0    0    0    0 -0.00000000000E+00 -0.00000000000E+00 -0.45593999997E+02  0.45594000000E+02  0.51100000000E-03 0. -1.
    9900012    2    1    2    0    0 -0.49046379282E+01 -0.34796076247E+02  0.25471579022E+02  0.47787265753E+02  0.19999975872E+02 0.  0.
         12    1    1    2    0    0  0.49046379282E+01  0.34796076247E+02 -0.25471579022E+02  0.43400734247E+02  0.00000000000E+00 0. -1.
         11    1    3    3    0    0 -0.22989474194E+01  0.31876654342E+00  0.24323379585E+00  0.23336525635E+01  0.51100000000E-03 0. -1.
        -11    1    3    3    0    0 -0.69000415857E+01 -0.93475698721E+01  0.90463700281E+01  0.14724960012E+02  0.51100000000E-03 0.  1.
        -12    1    3    3    0    0  0.42943510769E+01 -0.25767272918E+02  0.16181975198E+02  0.30728653177E+02  0.00000000000E+00 0.  1.
</event>
<event>
 7    1  0.2647566E-010  0.4778726E+02  0.7816164E-02  0.1312668E+00
        -11   -1    0    0    0    0  0.00000000000E+00  0.00000000000E+00  0.45593999997E+02  0.45594000000E+02  0.51100000000E-03 0.  1.
         11   -1    0    0    0    0 -0.00000000000E+00 -0.00000000000E+00 -0.45593999997E+02  0.45594000000E+02  0.51100000000E-03 0. -1.
    9900012    2    1    2    0    0 -0.34868424553E+02 -0.24710011183E+02  0.75651939069E+01  0.47787264496E+02  0.19999970143E+02 0.  0.
         12    1    1    2    0    0  0.34868424553E+02  0.24710011183E+02 -0.75651939069E+01  0.43400735504E+02  0.00000000000E+00 0. -1.
         11    1    3    3    0    0 -0.89022612670E+01 -0.49220048479E+01 -0.23457208537E+01  0.10439290875E+02  0.51100000000E-03 0. -1.
        -11    1    3    3    0    0 -0.92876693462E+01  0.10093353988E+01  0.22361681148E+01  0.96062483796E+01  0.51100000000E-03 0.  1.
        -12    1    3    3    0    0 -0.16678493939E+02 -0.20797341734E+02  0.76747466458E+01  0.27741725241E+02  0.00000000000E+00 0.  1.
</event>
<event>
 7    1  0.2647566E-010  0.4778727E+02  0.7816164E-02  0.1312668E+00
        -11   -1    0    0    0    0  0.00000000000E+00  0.00000000000E+00  0.45593999997E+02  0.45594000000E+02  0.51100000000E-03 0.  1.
         11   -1    0    0    0    0 -0.00000000000E+00 -0.00000000000E+00 -0.45593999997E+02  0.45594000000E+02  0.51100000000E-03 0. -1.
    9900012    2    1    2    0    0  0.22376050375E+02 -0.37164961660E+02 -0.13044199501E+01  0.47787268244E+02  0.19999987231E+02 0.  0.
         12    1    1    2    0    0 -0.22376050375E+02  0.37164961660E+02  0.13044199501E+01  0.43400731756E+02  0.00000000000E+00 0. -1.
         11    1    3    3    0    0  0.15946422708E+02 -0.20389261779E+02 -0.87089824536E+01  0.27310378406E+02  0.51100000000E-03 0. -1.
        -11    1    3    3    0    0  0.50877347685E+01 -0.10859092560E+02  0.16317315293E+01  0.12102375153E+02  0.51100000000E-03 0.  1.
         12    1    3    3    0    0  0.13418928993E+01 -0.59166073210E+01  0.57728309742E+01  0.83745146845E+01  0.00000000000E+00 0. -1.
</event>
<event>
 7    1  0.2647566E-010  0.4778727E+02  0.7816164E-02  0.1312668E+00
        -11   -1    0    0    0    0  0.00000000000E+00  0.00000000000E+00  0.45593999997E+02  0.45594000000E+02  0.51100000000E-03 0.  1.
         11   -1    0    0    0    0 -0.00000000000E+00 -0.00000000000E+00 -0.45593999997E+02  0.45594000000E+02  0.51100000000E-03 0. -1.
    9900012    2    1    2    0    0 -0.39455485184E+01  0.34831299534E+02  0.25589769852E+02  0.47787273031E+02  0.20000009058E+02 0.  0.
         12    1    1    2    0    0  0.39455485184E+01 -0.34831299534E+02 -0.25589769852E+02  0.43400726969E+02  0.00000000000E+00 0. -1.
         11    1    3    3    0    0 -0.24611862649E+01  0.17833794672E+02  0.79192120490E+01  0.19667627970E+02  0.51100000000E-03 0. -1.
        -11    1    3    3    0    0  0.12837554366E+01  0.16187525608E+02  0.81441620378E+01  0.18166215591E+02  0.51100000000E-03 0.  1.
         12    1    3    3    0    0 -0.27681176901E+01  0.80997925393E+00  0.95263957649E+01  0.99534294697E+01  0.00000000000E+00 0. -1.
</event>
<event>
 7    1  0.2647566E-010  0.4778727E+02  0.7816164E-02  0.1312668E+00
        -11   -1    0    0    0    0  0.00000000000E+00  0.00000000000E+00  0.45593999997E+02  0.45594000000E+02  0.51100000000E-03 0.  1.
         11   -1    0    0    0    0 -0.00000000000E+00 -0.00000000000E+00 -0.45593999997E+02  0.45594000000E+02  0.51100000000E-03 0. -1.
    9900012    2    1    2    0    0  0.76308375545E+01  0.40249001225E+02  0.14332180054E+02  0.47787272281E+02  0.20000005640E+02 0.  0.
         12    1    1    2    0    0 -0.76308375545E+01 -0.40249001225E+02 -0.14332180054E+02  0.43400727719E+02  0.00000000000E+00 0. -1.
         11    1    3    3    0    0 -0.39389732890E+01  0.63891353571E+01  0.64384728289E+01  0.98889076147E+01  0.51100000000E-03 0. -1.
        -11    1    3    3    0    0  0.22884747583E+01  0.17397360620E+02  0.35267377009E+00  0.17550773553E+02  0.51100000000E-03 0.  1.
        -12    1    3    3    0    0  0.92813360852E+01  0.16462505248E+02  0.75410334549E+01  0.20347591114E+02  0.00000000000E+00 0.  1.
</event>
<event>
 7    1  0.2647566E-010  0.4778729E+02  0.7816164E-02  0.1312668E+00
        -11   -1    0    0    0    0  0.00000000000E+00  0.00000000000E+00  0.45593999997E+02  0.45594000000E+02  0.51100000000E-03 0. -1.
         11   -1    0    0    0    0 -0.00000000000E+00 -0.00000000000E+00 -0.45593999997E+02  0.45594000000E+02  0.51100000000E-03 0.  1.
    9900012    2    1    2    0    0  0.26978127575E+02  0.30828600365E+02 -0.14331765010E+02  0.47787291985E+02  0.20000095475E+02 0.  0.
         12    1    1    2    0    0 -0.26978127575E+02 -0.30828600365E+02  0.14331765010E+02  0.43400708015E+02  0.00000000000E+00 0. -1.
         11    1    3    3    0    0  0.10286912279E+02  0.59291783502E+01 -0.56301188489E+00  0.11886660708E+02  0.51100000000E-03 0. -1.
        -11    1    3    3    0    0  0.11445913106E+02  0.19712495783E+02 -0.32088634977E+01  0.23019301076E+02  0.51100000000E-03 0.  1.
        -12    1    3    3    0    0  0.52453021907E+01  0.51869262317E+01 -0.10559889627E+02  0.12881330201E+02  0.00000000000E+00 0.  1.
</event>
<event>
 7    1  0.2647566E-010  0.4778727E+02  0.7816164E-02  0.1312668E+00
        -11   -1    0    0    0    0  0.00000000000E+00  0.00000000000E+00  0.45593999997E+02  0.45594000000E+02  0.51100000000E-03 0.  1.
         11   -1    0    0    0    0 -0.00000000000E+00 -0.00000000000E+00 -0.45593999997E+02  0.45594000000E+02  0.51100000000E-03 0. -1.
    9900012    2    1    2    0    0 -0.80339611483E+01  0.37286570035E+02  0.20707258142E+02  0.47787269862E+02  0.19999994611E+02 0.  0.
         12    1    1    2    0    0  0.80339611483E+01 -0.37286570035E+02 -0.20707258142E+02  0.43400730138E+02  0.00000000000E+00 0. -1.
         11    1    3    3    0    0 -0.40241986869E+01  0.53064085436E+01  0.30705740191E+01  0.73335238304E+01  0.51100000000E-03 0. -1.
        -11    1    3    3    0    0  0.29195823862E+01  0.27691225334E+02  0.16089228644E+02  0.32158843270E+02  0.51100000000E-03 0.  1.
        -12    1    3    3    0    0 -0.69293448476E+01  0.42889361574E+01  0.15474554787E+01  0.82949027624E+01  0.00000000000E+00 0.  1.
</event>
<event>
 7    1  0.2647566E-010  0.4778727E+02  0.7816164E-02  0.1312668E+00
        -11   -1    0    0    0    0  0.00000000000E+00  0.00000000000E+00  0.45593999997E+02  0.45594000000E+02  0.51100000000E-03 0.  1.
         11   -1    0    0    0    0 -0.00000000000E+00 -0.00000000000E+00 -0.45593999997E+02  0.45594000000E+02  0.51100000000E-03 0. -1.
    9900012    2    1    2    0    0 -0.72104214510E+01  0.77834740701E+01  0.42083852396E+02  0.47787270990E+02  0.19999999753E+02 0.  0.
         12    1    1    2    0    0  0.72104214510E+01 -0.77834740701E+01 -0.42083852396E+02  0.43400729010E+02  0.00000000000E+00 0. -1.
         11    1    3    3    0    0  0.31470226808E+00 -0.11315712031E+01  0.27211441109E+01  0.29638010120E+01  0.51100000000E-03 0. -1.
        -11    1    3    3    0    0 -0.88006930428E+01  0.53865969983E+01  0.75382511911E+01  0.12778609335E+02  0.51100000000E-03 0.  1.
        -12    1    3    3    0    0  0.12755693238E+01  0.35284482748E+01  0.31824457094E+02  0.32044860643E+02  0.00000000000E+00 0.  1.
</event>
<event>
 7    1  0.2647566E-010  0.4778727E+02  0.7816164E-02  0.1312668E+00
        -11   -1    0    0    0    0  0.00000000000E+00  0.00000000000E+00  0.45593999997E+02  0.45594000000E+02  0.51100000000E-03 0. -1.
         11   -1    0    0    0    0 -0.00000000000E+00 -0.00000000000E+00 -0.45593999997E+02  0.45594000000E+02  0.51100000000E-03 0.  1.
    9900012    2    1    2    0    0  0.16674626244E+02 -0.37341882359E+02 -0.14531479704E+02  0.47787271424E+02  0.20000001731E+02 0.  0.
         12    1    1    2    0    0 -0.16674626244E+02  0.37341882359E+02  0.14531479704E+02  0.43400728576E+02  0.00000000000E+00 0. -1.
         11    1    3    3    0    0  0.12943662813E+02 -0.23090793983E+02 -0.69056247796E+01  0.27357098305E+02  0.51100000000E-03 0. -1.
        -11    1    3    3    0    0  0.51375240848E+01 -0.15903437962E+02 -0.61612143449E+01  0.17812188388E+02  0.51100000000E-03 0.  1.
         12    1    3    3    0    0 -0.14065606541E+01  0.16523495851E+01 -0.14646405795E+01  0.26179847311E+01  0.00000000000E+00 0. -1.
</event>
<event>
 7    1  0.2647566E-010  0.4778727E+02  0.7816164E-02  0.1312668E+00
        -11   -1    0    0    0    0  0.00000000000E+00  0.00000000000E+00  0.45593999997E+02  0.45594000000E+02  0.51100000000E-03 0.  1.
         11   -1    0    0    0    0 -0.00000000000E+00 -0.00000000000E+00 -0.45593999997E+02  0.45594000000E+02  0.51100000000E-03 0. -1.
    9900012    2    1    2    0    0 -0.26230590858E+02 -0.22913744985E+02  0.25894789249E+02  0.47787265948E+02  0.19999976763E+02 0.  0.
         12    1    1    2    0    0  0.26230590858E+02  0.22913744985E+02 -0.25894789249E+02  0.43400734052E+02  0.00000000000E+00 0. -1.
         11    1    3    3    0    0 -0.12463265080E+02 -0.44759183506E+01  0.13832339023E+02  0.19149423611E+02  0.51100000000E-03 0. -1.
        -11    1    3    3    0    0 -0.93793714600E+01 -0.37332378582E+01  0.76638382950E+01  0.12674545024E+02  0.51100000000E-03 0.  1.
        -12    1    3    3    0    0 -0.43879543184E+01 -0.14704588776E+02  0.43986119304E+01  0.15963297313E+02  0.00000000000E+00 0.  1.
</event>
<event>
 7    1  0.2647566E-010  0.4778727E+02  0.7816164E-02  0.1312668E+00
        -11   -1    0    0    0    0  0.00000000000E+00  0.00000000000E+00  0.45593999997E+02  0.45594000000E+02  0.51100000000E-03 0.  1.
         11   -1    0    0    0    0 -0.00000000000E+00 -0.00000000000E+00 -0.45593999997E+02  0.45594000000E+02  0.51100000000E-03 0. -1.
    9900012    2    1    2    0    0  0.83401965716E+01  0.40566613425E+02  0.12977445070E+02  0.47787273230E+02  0.20000009966E+02 0.  0.
         12    1    1    2    0    0 -0.83401965716E+01 -0.40566613425E+02 -0.12977445070E+02  0.43400726770E+02  0.00000000000E+00 0. -1.
         11    1    3    3    0    0  0.71588319271E+01  0.18255628386E+02  0.66159060214E+01  0.20695097368E+02  0.51100000000E-03 0. -1.
        -11    1    3    3    0    0  0.44431651150E+01  0.22526389937E+02  0.63535658475E+01  0.23823260882E+02  0.51100000000E-03 0.  1.
         12    1    3    3    0    0 -0.32618004704E+01 -0.21540489719E+00  0.79732008168E-02  0.32689149806E+01  0.00000000000E+00 0. -1.
</event>
<event>
 7    1  0.2647566E-010  0.4778731E+02  0.7816164E-02  0.1312668E+00
        -11   -1    0    0    0    0  0.00000000000E+00  0.00000000000E+00  0.45593999997E+02  0.45594000000E+02  0.51100000000E-03 0.  1.
         11   -1    0    0    0    0 -0.00000000000E+00 -0.00000000000E+00 -0.45593999997E+02  0.45594000000E+02  0.51100000000E-03 0. -1.
    9900012    2    1    2    0    0 -0.11016608754E+01  0.33246594819E+02  0.27875978972E+02  0.47787309598E+02  0.20000175780E+02 0.  0.
         12    1    1    2    0    0  0.11016608754E+01 -0.33246594819E+02 -0.27875978972E+02  0.43400690402E+02  0.00000000000E+00 0. -1.
         11    1    3    3    0    0 -0.18988644610E+01  0.77424851207E+01  0.80066630926E+01  0.11298602401E+02  0.51100000000E-03 0. -1.
        -11    1    3    3    0    0 -0.28684680803E+01  0.26189262366E+02  0.14872912571E+02  0.30254075775E+02  0.51100000000E-03 0.  1.
         12    1    3    3    0    0  0.36656716659E+01 -0.68515266767E+00  0.49964033085E+01  0.62346314215E+01  0.00000000000E+00 0. -1.
</event>
<event>
 7    1  0.2647566E-010  0.4778727E+02  0.7816164E-02  0.1312668E+00
        -11   -1    0    0    0    0  0.00000000000E+00  0.00000000000E+00  0.45593999997E+02  0.45594000000E+02  0.51100000000E-03 0.  1.
         11   -1    0    0    0    0 -0.00000000000E+00 -0.00000000000E+00 -0.45593999997E+02  0.45594000000E+02  0.51100000000E-03 0. -1.
    9900012    2    1    2    0    0 -0.22067721505E+02  0.20175151592E+02  0.31457942287E+02  0.47787271814E+02  0.20000003509E+02 0.  0.
         12    1    1    2    0    0  0.22067721505E+02 -0.20175151592E+02 -0.31457942287E+02  0.43400728186E+02  0.00000000000E+00 0. -1.
         11    1    3    3    0    0 -0.39971478641E+01  0.27953675604E+01  0.45223370099E+01  0.66515263765E+01  0.51100000000E-03 0. -1.
        -11    1    3    3    0    0 -0.20776393635E+02  0.10977359049E+02  0.24007431255E+02  0.33593417508E+02  0.51100000000E-03 0.  1.
         12    1    3    3    0    0  0.27058199937E+01  0.64024249826E+01  0.29281740220E+01  0.75423279297E+01  0.00000000000E+00 0. -1.
</event>
<event>
 7    1  0.2647566E-010  0.4778727E+02  0.7816164E-02  0.1312668E+00
        -11   -1    0    0    0    0  0.00000000000E+00  0.00000000000E+00  0.45593999997E+02  0.45594000000E+02  0.51100000000E-03 0.  1.
         11   -1    0    0    0    0 -0.00000000000E+00 -0.00000000000E+00 -0.45593999997E+02  0.45594000000E+02  0.51100000000E-03 0. -1.
    9900012    2    1    2    0    0  0.31103839673E+02 -0.24141289874E+02  0.18258491541E+02  0.47787271521E+02  0.20000002174E+02 0.  0.
         12    1    1    2    0    0 -0.31103839673E+02  0.24141289874E+02 -0.18258491541E+02  0.43400728479E+02  0.00000000000E+00 0. -1.
         11    1    3    3    0    0  0.75398778260E+01 -0.19696553432E+01 -0.33957166397E+01  0.85005994824E+01  0.51100000000E-03 0. -1.
        -11    1    3    3    0    0  0.57655405485E+01 -0.37362517876E+01  0.25675274396E+01  0.73343869990E+01  0.51100000000E-03 0.  1.
         12    1    3    3    0    0  0.17798421298E+02 -0.18435382743E+02  0.19086680741E+02  0.31952285040E+02  0.00000000000E+00 0. -1.
</event>
<event>
 7    1  0.2647566E-010  0.4778727E+02  0.7816164E-02  0.1312668E+00
        -11   -1    0    0    0    0  0.00000000000E+00  0.00000000000E+00  0.45593999997E+02  0.45594000000E+02  0.51100000000E-03 0. -1.
         11   -1    0    0    0    0 -0.00000000000E+00 -0.00000000000E+00 -0.45593999997E+02  0.45594000000E+02  0.51100000000E-03 0.  1.
    9900012    2    1    2    0    0  0.22137739700E+02 -0.33510736644E+02 -0.16449150759E+02  0.47787267861E+02  0.19999985486E+02 0.  0.
         12    1    1    2    0    0 -0.22137739700E+02  0.33510736644E+02  0.16449150759E+02  0.43400732139E+02  0.00000000000E+00 0. -1.
         11    1    3    3    0    0  0.98390151445E+01 -0.22458711880E+02 -0.51408257471E+01  0.25052505822E+02  0.51100000000E-03 0. -1.
        -11    1    3    3    0    0  0.70910149550E+01 -0.11976942462E+02 -0.10383992394E+02  0.17365394960E+02  0.51100000000E-03 0.  1.
        -12    1    3    3    0    0  0.52077096010E+01  0.92491769827E+00 -0.92433261868E+00  0.53693670788E+01  0.00000000000E+00 0.  1.
</event>
<event>
 7    1  0.2647566E-010  0.4778728E+02  0.7816164E-02  0.1312668E+00
        -11   -1    0    0    0    0  0.00000000000E+00  0.00000000000E+00  0.45593999997E+02  0.45594000000E+02  0.51100000000E-03 0.  1.
         11   -1    0    0    0    0 -0.00000000000E+00 -0.00000000000E+00 -0.45593999997E+02  0.45594000000E+02  0.51100000000E-03 0. -1.
    9900012    2    1    2    0    0  0.18467007531E+02  0.29639660900E+02  0.25769804802E+02  0.47787277599E+02  0.20000029886E+02 0.  0.
         12    1    1    2    0    0 -0.18467007531E+02 -0.29639660900E+02 -0.25769804802E+02  0.43400722401E+02  0.00000000000E+00 0. -1.
         11    1    3    3    0    0 -0.12306697727E+01  0.34896804004E+01  0.47997170278E+00  0.37313255665E+01  0.51100000000E-03 0. -1.
        -11    1    3    3    0    0  0.10204670527E+02  0.13522109432E+02  0.37618019454E+01  0.17353210026E+02  0.51100000000E-03 0.  1.
         12    1    3    3    0    0  0.94930067761E+01  0.12627871067E+02  0.21528031153E+02  0.26702742007E+02  0.00000000000E+00 0. -1.
</event>
<event>
 7    1  0.2647566E-010  0.4778727E+02  0.7816164E-02  0.1312668E+00
        -11   -1    0    0    0    0  0.00000000000E+00  0.00000000000E+00  0.45593999997E+02  0.45594000000E+02  0.51100000000E-03 0. -1.
         11   -1    0    0    0    0 -0.00000000000E+00 -0.00000000000E+00 -0.45593999997E+02  0.45594000000E+02  0.51100000000E-03 0.  1.
    9900012    2    1    2    0    0 -0.13465458254E+02  0.30218650752E+01 -0.41148186297E+02  0.47787268784E+02  0.19999989696E+02 0.  0.
         12    1    1    2    0    0  0.13465458254E+02 -0.30218650752E+01  0.41148186297E+02  0.43400731216E+02  0.00000000000E+00 0. -1.
         11    1    3    3    0    0 -0.15488640690E+02  0.42264426522E+00 -0.28111584461E+02  0.32098875366E+02  0.51100000000E-03 0. -1.
        -11    1    3    3    0    0 -0.13898739041E+01 -0.99355444064E+00  0.35158143518E-01  0.17088406163E+01  0.51100000000E-03 0.  1.
        -12    1    3    3    0    0  0.34130563402E+01  0.35927752506E+01 -0.13071759979E+02  0.13979552802E+02  0.00000000000E+00 0.  1.
</event>
<event>
 7    1  0.2647566E-010  0.4778729E+02  0.7816164E-02  0.1312668E+00
        -11   -1    0    0    0    0  0.00000000000E+00  0.00000000000E+00  0.45593999997E+02  0.45594000000E+02  0.51100000000E-03 0. -1.
         11   -1    0    0    0    0 -0.00000000000E+00 -0.00000000000E+00 -0.45593999997E+02  0.45594000000E+02  0.51100000000E-03 0.  1.
    9900012    2    1    2    0    0 -0.27694456087E+02 -0.17093214112E+02 -0.28713430162E+02  0.47787286431E+02  0.20000070153E+02 0.  0.
         12    1    1    2    0    0  0.27694456087E+02  0.17093214112E+02  0.28713430162E+02  0.43400713569E+02  0.00000000000E+00 0. -1.
         11    1    3    3    0    0 -0.77871473302E+01 -0.32520158567E+01 -0.10735156312E+02  0.13654993664E+02  0.51100000000E-03 0. -1.
        -11    1    3    3    0    0 -0.74774831475E+01 -0.75041090971E+01 -0.17147025747E+02  0.20155517849E+02  0.51100000000E-03 0.  1.
         12    1    3    3    0    0 -0.12429825609E+02 -0.63370891578E+01 -0.83124810390E+00  0.13976774917E+02  0.00000000000E+00 0. -1.
</event>
<event>
 7    1  0.2647566E-010  0.4778727E+02  0.7816164E-02  0.1312668E+00
        -11   -1    0    0    0    0  0.00000000000E+00  0.00000000000E+00  0.45593999997E+02  0.45594000000E+02  0.51100000000E-03 0.  1.
         11   -1    0    0    0    0 -0.00000000000E+00 -0.00000000000E+00 -0.45593999997E+02  0.45594000000E+02  0.51100000000E-03 0. -1.
    9900012    2    1    2    0    0  0.41759402889E+02  0.11557633359E+02 -0.24892742629E+01  0.47787272992E+02  0.20000008878E+02 0.  0.
         12    1    1    2    0    0 -0.41759402889E+02 -0.11557633359E+02  0.24892742629E+01  0.43400727008E+02  0.00000000000E+00 0. -1.
         11    1    3    3    0    0  0.15639349834E+01  0.22254103270E+01  0.43281411964E+01  0.51118636751E+01  0.51100000000E-03 0. -1.
        -11    1    3    3    0    0  0.11059972851E+02  0.65034132564E+01 -0.14089336308E+01  0.12907458220E+02  0.51100000000E-03 0.  1.
         12    1    3    3    0    0  0.29135495055E+02  0.28288097753E+01 -0.54084818285E+01  0.29767951097E+02  0.00000000000E+00 0. -1.
</event>
<event>
 7    1  0.2647566E-010  0.4778727E+02  0.7816164E-02  0.1312668E+00
        -11   -1    0    0    0    0  0.00000000000E+00  0.00000000000E+00  0.45593999997E+02  0.45594000000E+02  0.51100000000E-03 0.  1.
         11   -1    0    0    0    0 -0.00000000000E+00 -0.00000000000E+00 -0.45593999997E+02  0.45594000000E+02  0.51100000000E-03 0. -1.
    9900012    2    1    2    0    0  0.10705399989E+02  0.39090392796E+02  0.15522859435E+02  0.47787267715E+02  0.19999984818E+02 0.  0.
         12    1    1    2    0    0 -0.10705399989E+02 -0.39090392796E+02 -0.15522859435E+02  0.43400732285E+02  0.00000000000E+00 0. -1.
         11    1    3    3    0    0 -0.55999848650E+01  0.13644730495E+02  0.56764242765E+01  0.15803806301E+02  0.51100000000E-03 0. -1.
        -11    1    3    3    0    0  0.26984298717E+01  0.33983831535E+01  0.26882761083E+01  0.51046410771E+01  0.51100000000E-03 0.  1.
         12    1    3    3    0    0  0.13606954983E+02  0.22047279147E+02  0.71581590504E+01  0.26878820336E+02  0.00000000000E+00 0. -1.
</event>
<event>
 7    1  0.2647566E-010  0.4778727E+02  0.7816164E-02  0.1312668E+00
        -11   -1    0    0    0    0  0.00000000000E+00  0.00000000000E+00  0.45593999997E+02  0.45594000000E+02  0.51100000000E-03 0.  1.
         11   -1    0    0    0    0 -0.00000000000E+00 -0.00000000000E+00 -0.45593999997E+02  0.45594000000E+02  0.51100000000E-03 0. -1.
    9900012    2    1    2    0    0  0.25264746222E+02 -0.65059507711E+01  0.34684124240E+02  0.47787271073E+02  0.20000000129E+02 0.  0.
         12    1    1    2    0    0 -0.25264746222E+02  0.65059507711E+01 -0.34684124240E+02  0.43400728927E+02  0.00000000000E+00 0. -1.
         11    1    3    3    0    0  0.11792346948E+01  0.44804435739E+01  0.60348684441E+01  0.76081933784E+01  0.51100000000E-03 0. -1.
        -11    1    3    3    0    0 -0.62396621785E+00  0.61208814734E+00  0.91857738999E+00  0.12679788735E+01  0.51100000000E-03 0.  1.
        -12    1    3    3    0    0  0.24709477745E+02 -0.11598482492E+02  0.27730678406E+02  0.38911098821E+02  0.00000000000E+00 0.  1.
</event>
<event>
 7    1  0.2647566E-010  0.4778728E+02  0.7816164E-02  0.1312668E+00
        -11   -1    0    0    0    0  0.00000000000E+00  0.00000000000E+00  0.45593999997E+02  0.45594000000E+02  0.51100000000E-03 0. -1.
         11   -1    0    0    0    0 -0.00000000000E+00 -0.00000000000E+00 -0.45593999997E+02  0.45594000000E+02  0.51100000000E-03 0.  1.
    9900012    2    1    2    0    0 -0.23267727468E+02  0.36126084895E+02  0.60943718748E+01  0.47787279730E+02  0.20000039601E+02 0.  0.
         12    1    1    2    0    0  0.23267727468E+02 -0.36126084895E+02 -0.60943718748E+01  0.43400720270E+02  0.00000000000E+00 0. -1.
         11    1    3    3    0    0  0.55858671437E+00  0.10074129566E+01  0.26760003396E+01  0.29133963104E+01  0.51100000000E-03 0. -1.
        -11    1    3    3    0    0 -0.12377619485E+02  0.16461732786E+02  0.86968463499E+01  0.22356861299E+02  0.51100000000E-03 0.  1.
        -12    1    3    3    0    0 -0.11448694698E+02  0.18656939153E+02 -0.52784748147E+01  0.22517022121E+02  0.00000000000E+00 0.  1.
</event>
<event>
 7    1  0.2647566E-010  0.4778728E+02  0.7816164E-02  0.1312668E+00
        -11   -1    0    0    0    0  0.00000000000E+00  0.00000000000E+00  0.45593999997E+02  0.45594000000E+02  0.51100000000E-03 0.  1.
         11   -1    0    0    0    0 -0.00000000000E+00 -0.00000000000E+00 -0.45593999997E+02  0.45594000000E+02  0.51100000000E-03 0. -1.
    9900012    2    1    2    0    0  0.11150843926E+02 -0.13530637151E+02  0.39701428282E+02  0.47787275702E+02  0.20000021234E+02 0.  0.
         12    1    1    2    0    0 -0.11150843926E+02  0.13530637151E+02 -0.39701428282E+02  0.43400724298E+02  0.00000000000E+00 0. -1.
         11    1    3    3    0    0  0.33509335617E+01 -0.10574009618E+02  0.10869587561E+02  0.15530176082E+02  0.51100000000E-03 0. -1.
        -11    1    3    3    0    0  0.30800150769E+01 -0.54037082550E+01  0.24845092953E+02  0.25611817583E+02  0.51100000000E-03 0.  1.
         12    1    3    3    0    0  0.47198952872E+01  0.24470807217E+01  0.39867477677E+01  0.66452820364E+01  0.00000000000E+00 0. -1.
</event>
<event>
 7    1  0.2647566E-010  0.4778728E+02  0.7816164E-02  0.1312668E+00
        -11   -1    0    0    0    0  0.00000000000E+00  0.00000000000E+00  0.45593999997E+02  0.45594000000E+02  0.51100000000E-03 0.  1.
         11   -1    0    0    0    0 -0.00000000000E+00 -0.00000000000E+00 -0.45593999997E+02  0.45594000000E+02  0.51100000000E-03 0. -1.
    9900012    2    1    2    0    0 -0.42863343089E+01  0.34421760485E+02  0.26084337563E+02  0.47787275089E+02  0.20000018440E+02 0.  0.
         12    1    1    2    0    0  0.42863343089E+01 -0.34421760485E+02 -0.26084337563E+02  0.43400724911E+02  0.00000000000E+00 0. -1.
         11    1    3    3    0    0  0.24333909058E+01  0.15803495183E+02  0.68488754339E+01  0.17394796528E+02  0.51100000000E-03 0. -1.
        -11    1    3    3    0    0  0.32722038325E+01  0.83968612008E+01  0.54365033445E+01  0.10524740606E+02  0.51100000000E-03 0.  1.
        -12    1    3    3    0    0 -0.99919290472E+01  0.10221404101E+02  0.13798958785E+02  0.19867737955E+02  0.00000000000E+00 0.  1.
</event>
<event>
 7    1  0.2647566E-010  0.4778725E+02  0.7816164E-02  0.1312668E+00
        -11   -1    0    0    0    0  0.00000000000E+00  0.00000000000E+00  0.45593999997E+02  0.45594000000E+02  0.51100000000E-03 0.  1.
         11   -1    0    0    0    0 -0.00000000000E+00 -0.00000000000E+00 -0.45593999997E+02  0.45594000000E+02  0.51100000000E-03 0. -1.
    9900012    2    1    2    0    0 -0.18439934360E+02 -0.36770564226E+02 -0.13839048949E+02  0.47787252904E+02  0.19999917288E+02 0.  0.
         12    1    1    2    0    0  0.18439934360E+02  0.36770564226E+02  0.13839048949E+02  0.43400747096E+02  0.00000000000E+00 0. -1.
         11    1    3    3    0    0 -0.94685557373E+01 -0.15137674627E+02 -0.99130205006E+01  0.20422309286E+02  0.51100000000E-03 0. -1.
        -11    1    3    3    0    0 -0.54825002297E+01 -0.15705788450E+02 -0.89101627932E+01  0.18871157910E+02  0.51100000000E-03 0.  1.
        -12    1    3    3    0    0 -0.34888783933E+01 -0.59271011490E+01  0.49841343451E+01  0.84937857074E+01  0.00000000000E+00 0.  1.
</event>
<event>
 7    1  0.2647566E-010  0.4778726E+02  0.7816164E-02  0.1312668E+00
        -11   -1    0    0    0    0  0.00000000000E+00  0.00000000000E+00  0.45593999997E+02  0.45594000000E+02  0.51100000000E-03 0.  1.
         11   -1    0    0    0    0 -0.00000000000E+00 -0.00000000000E+00 -0.45593999997E+02  0.45594000000E+02  0.51100000000E-03 0. -1.
    9900012    2    1    2    0    0 -0.41236002874E+02  0.70616222848E+01  0.11547702173E+02  0.47787264203E+02  0.19999968805E+02 0.  0.
         12    1    1    2    0    0  0.41236002874E+02 -0.70616222848E+01 -0.11547702173E+02  0.43400735797E+02  0.00000000000E+00 0. -1.
         11    1    3    3    0    0 -0.25017889151E+01 -0.14396227947E+01  0.46730764828E+01  0.54926410443E+01  0.51100000000E-03 0. -1.
        -11    1    3    3    0    0 -0.50646320353E+01  0.44480351549E+01 -0.23689667925E+01  0.71447546016E+01  0.51100000000E-03 0.  1.
        -12    1    3    3    0    0 -0.33669581923E+02  0.40532099246E+01  0.92435924825E+01  0.35149868557E+02  0.00000000000E+00 0.  1.
</event>
<event>
 7    1  0.2647566E-010  0.4778727E+02  0.7816164E-02  0.1312668E+00
        -11   -1    0    0    0    0  0.00000000000E+00  0.00000000000E+00  0.45593999997E+02  0.45594000000E+02  0.51100000000E-03 0.  1.
         11   -1    0    0    0    0 -0.00000000000E+00 -0.00000000000E+00 -0.45593999997E+02  0.45594000000E+02  0.51100000000E-03 0. -1.
    9900012    2    1    2    0    0  0.46015419795E+00  0.38910401365E+02  0.19219576432E+02  0.47787271959E+02  0.20000004170E+02 0.  0.
         12    1    1    2    0    0 -0.46015419795E+00 -0.38910401365E+02 -0.19219576432E+02  0.43400728041E+02  0.00000000000E+00 0. -1.
         11    1    3    3    0    0  0.20647181136E+01  0.16834269920E+02  0.24956380135E+01  0.17143042729E+02  0.51100000000E-03 0. -1.
        -11    1    3    3    0    0  0.55629293372E+00  0.19454102505E+02  0.18463847640E+02  0.26826949809E+02  0.51100000000E-03 0.  1.
         12    1    3    3    0    0 -0.21608568494E+01  0.26220289393E+01 -0.17399092217E+01  0.38172794215E+01  0.00000000000E+00 0. -1.
</event>
<event>
 7    1  0.2647566E-010  0.4778727E+02  0.7816164E-02  0.1312668E+00
        -11   -1    0    0    0    0  0.00000000000E+00  0.00000000000E+00  0.45593999997E+02  0.45594000000E+02  0.51100000000E-03 0.  1.
         11   -1    0    0    0    0 -0.00000000000E+00 -0.00000000000E+00 -0.45593999997E+02  0.45594000000E+02  0.51100000000E-03 0. -1.
    9900012    2    1    2    0    0 -0.21167913919E+02 -0.20180652914E+02  0.32066872767E+02  0.47787266587E+02  0.19999979678E+02 0.  0.
         12    1    1    2    0    0  0.21167913919E+02  0.20180652914E+02 -0.32066872767E+02  0.43400733413E+02  0.00000000000E+00 0. -1.
         11    1    3    3    0    0 -0.14952545790E+02 -0.27530827973E+01  0.92971594857E+01  0.17821202688E+02  0.51100000000E-03 0. -1.
        -11    1    3    3    0    0  0.74142958695E+00 -0.38736604863E+01  0.70297372064E+01  0.80605315487E+01  0.51100000000E-03 0.  1.
         12    1    3    3    0    0 -0.69567977158E+01 -0.13553909630E+02  0.15739976075E+02  0.21905532351E+02  0.00000000000E+00 0. -1.
</event>
<event>
 7    1  0.2647566E-010  0.4778729E+02  0.7816164E-02  0.1312668E+00
        -11   -1    0    0    0    0  0.00000000000E+00  0.00000000000E+00  0.45593999997E+02  0.45594000000E+02  0.51100000000E-03 0.  1.
         11   -1    0    0    0    0 -0.00000000000E+00 -0.00000000000E+00 -0.45593999997E+02  0.45594000000E+02  0.51100000000E-03 0. -1.
    9900012    2    1    2    0    0 -0.33292696267E+02 -0.25530455365E+02  0.11109180535E+02  0.47787289545E+02  0.20000084349E+02 0.  0.
         12    1    1    2    0    0  0.33292696267E+02  0.25530455365E+02 -0.11109180535E+02  0.43400710455E+02  0.00000000000E+00 0. -1.
         11    1    3    3    0    0 -0.59459417686E+01  0.73488848206E+00  0.44921050193E+01  0.74882102242E+01  0.51100000000E-03 0. -1.
        -11    1    3    3    0    0  0.51082500522E+00 -0.11258848856E+00 -0.11897110086E+01  0.12996272154E+01  0.51100000000E-03 0.  1.
        -12    1    3    3    0    0 -0.27857579503E+02 -0.26152755359E+02  0.78067865243E+01  0.38999452105E+02  0.00000000000E+00 0.  1.
</event>
<event>
 7    1  0.2647566E-010  0.4778729E+02  0.7816164E-02  0.1312668E+00
        -11   -1    0    0    0    0  0.00000000000E+00  0.00000000000E+00  0.45593999997E+02  0.45594000000E+02  0.51100000000E-03 0.  1.
         11   -1    0    0    0    0 -0.00000000000E+00 -0.00000000000E+00 -0.45593999997E+02  0.45594000000E+02  0.51100000000E-03 0. -1.
    9900012    2    1    2    0    0 -0.17778401308E+02 -0.35888617568E+02  0.16719970017E+02  0.47787287779E+02  0.20000076297E+02 0.  0.
         12    1    1    2    0    0  0.17778401308E+02  0.35888617568E+02 -0.16719970017E+02  0.43400712221E+02  0.00000000000E+00 0. -1.
         11    1    3    3    0    0 -0.11492783476E+02 -0.23632028107E+02  0.60606198781E+01  0.26968276512E+02  0.51100000000E-03 0.  1.
        -11    1    3    3    0    0 -0.65102915918E-01 -0.11018607125E+02  0.42730424065E+01  0.11818326152E+02  0.51100000000E-03 0. -1.
         12    1    3    3    0    0 -0.62205149161E+01 -0.12379823361E+01  0.63863077322E+01  0.90006851148E+01  0.00000000000E+00 0. -1.
</event>
<event>
 7    1  0.2647566E-010  0.4778728E+02  0.7816164E-02  0.1312668E+00
        -11   -1    0    0    0    0  0.00000000000E+00  0.00000000000E+00  0.45593999997E+02  0.45594000000E+02  0.51100000000E-03 0. -1.
         11   -1    0    0    0    0 -0.00000000000E+00 -0.00000000000E+00 -0.45593999997E+02  0.45594000000E+02  0.51100000000E-03 0.  1.
    9900012    2    1    2    0    0  0.12491113779E+02  0.76573440175E+01 -0.40852899204E+02  0.47787283252E+02  0.20000055661E+02 0.  0.
         12    1    1    2    0    0 -0.12491113779E+02 -0.76573440175E+01  0.40852899204E+02  0.43400716748E+02  0.00000000000E+00 0. -1.
         11    1    3    3    0    0  0.46765454214E+01 -0.13480405671E+01 -0.30426295909E+01  0.57397635437E+01  0.51100000000E-03 0. -1.
        -11    1    3    3    0    0  0.83615383334E+01  0.92692520390E+01 -0.38870406281E+02  0.40825761982E+02  0.51100000000E-03 0.  1.
         12    1    3    3    0    0 -0.54696997539E+00 -0.26386745445E+00  0.10601366685E+01  0.12217577270E+01  0.00000000000E+00 0. -1.
</event>
<event>
 7    1  0.2647566E-010  0.4778727E+02  0.7816164E-02  0.1312668E+00
        -11   -1    0    0    0    0  0.00000000000E+00  0.00000000000E+00  0.45593999997E+02  0.45594000000E+02  0.51100000000E-03 0.  1.
         11   -1    0    0    0    0 -0.00000000000E+00 -0.00000000000E+00 -0.45593999997E+02  0.45594000000E+02  0.51100000000E-03 0. -1.
    9900012    2    1    2    0    0 -0.30993403799E+02 -0.30211247200E+02  0.32113293063E+01  0.47787272214E+02  0.20000005332E+02 0.  0.
         12    1    1    2    0    0  0.30993403799E+02  0.30211247200E+02 -0.32113293063E+01  0.43400727786E+02  0.00000000000E+00 0. -1.
         11    1    3    3    0    0 -0.32723701202E+01 -0.46988566582E+01 -0.30190487917E+01  0.64731998243E+01  0.51100000000E-03 0. -1.
        -11    1    3    3    0    0 -0.75584070955E+01 -0.13221844743E+02 -0.37397101458E+01  0.15682223327E+02  0.51100000000E-03 0.  1.
        -12    1    3    3    0    0 -0.20162626584E+02 -0.12290545799E+02  0.99700882439E+01  0.25631849063E+02  0.00000000000E+00 0.  1.
</event>
<event>
 7    1  0.2647566E-010  0.4778727E+02  0.7816164E-02  0.1312668E+00
        -11   -1    0    0    0    0  0.00000000000E+00  0.00000000000E+00  0.45593999997E+02  0.45594000000E+02  0.51100000000E-03 0.  1.
         11   -1    0    0    0    0 -0.00000000000E+00 -0.00000000000E+00 -0.45593999997E+02  0.45594000000E+02  0.51100000000E-03 0. -1.
    9900012    2    1    2    0    0  0.18919533392E+02  0.38748124514E+02  0.49251741323E+01  0.47787271465E+02  0.20000001920E+02 0.  0.
         12    1    1    2    0    0 -0.18919533392E+02 -0.38748124514E+02 -0.49251741323E+01  0.43400728535E+02  0.00000000000E+00 0. -1.
         11    1    3    3    0    0  0.10531631144E+02  0.13142622498E+02  0.89923391882E+00  0.16865716783E+02  0.51100000000E-03 0. -1.
        -11    1    3    3    0    0  0.59528856453E+01  0.24240192083E+02  0.78690935307E+01  0.26171480527E+02  0.51100000000E-03 0.  1.
         12    1    3    3    0    0  0.24350166022E+01  0.13653099324E+01 -0.38431533172E+01  0.47500741557E+01  0.00000000000E+00 0. -1.
</event>
<event>
 7    1  0.2647566E-010  0.4778727E+02  0.7816164E-02  0.1312668E+00
        -11   -1    0    0    0    0  0.00000000000E+00  0.00000000000E+00  0.45593999997E+02  0.45594000000E+02  0.51100000000E-03 0.  1.
         11   -1    0    0    0    0 -0.00000000000E+00 -0.00000000000E+00 -0.45593999997E+02  0.45594000000E+02  0.51100000000E-03 0. -1.
    9900012    2    1    2    0    0  0.39030905641E+02 -0.80093687952E+01  0.17206446535E+02  0.47787269753E+02  0.19999994111E+02 0.  0.
         12    1    1    2    0    0 -0.39030905641E+02  0.80093687952E+01 -0.17206446535E+02  0.43400730247E+02  0.00000000000E+00 0. -1.
         11    1    3    3    0    0  0.13140739729E+02 -0.26995089473E+01  0.14196121707E+00  0.13415906321E+02  0.51100000000E-03 0. -1.
        -11    1    3    3    0    0  0.20100294160E+02 -0.85760431360E+01  0.83123183486E+01  0.23380867772E+02  0.51100000000E-03 0.  1.
         12    1    3    3    0    0  0.57898717517E+01  0.32661832881E+01  0.87521669697E+01  0.10990495659E+02  0.00000000000E+00 0. -1.
</event>
<event>
 7    1  0.2647566E-010  0.4778727E+02  0.7816164E-02  0.1312668E+00
        -11   -1    0    0    0    0  0.00000000000E+00  0.00000000000E+00  0.45593999997E+02  0.45594000000E+02  0.51100000000E-03 0. -1.
         11   -1    0    0    0    0 -0.00000000000E+00 -0.00000000000E+00 -0.45593999997E+02  0.45594000000E+02  0.51100000000E-03 0.  1.
    9900012    2    1    2    0    0 -0.46629842780E+01  0.19108299399E+02 -0.38687886851E+02  0.47787272848E+02  0.20000008225E+02 0.  0.
         12    1    1    2    0    0  0.46629842780E+01 -0.19108299399E+02  0.38687886851E+02  0.43400727152E+02  0.00000000000E+00 0. -1.
         11    1    3    3    0    0 -0.39720506832E+01  0.10235978930E+01 -0.36984930120E+01  0.55230236372E+01  0.51100000000E-03 0.  1.
        -11    1    3    3    0    0  0.28139906848E+01  0.13276225760E+02 -0.10772235061E+02  0.17326793196E+02  0.51100000000E-03 0. -1.
         12    1    3    3    0    0 -0.35049242796E+01  0.48084757462E+01 -0.24217158778E+02  0.24937456015E+02  0.00000000000E+00 0. -1.
</event>
<event>
 7    1  0.2647566E-010  0.4778727E+02  0.7816164E-02  0.1312668E+00
        -11   -1    0    0    0    0  0.00000000000E+00  0.00000000000E+00  0.45593999997E+02  0.45594000000E+02  0.51100000000E-03 0.  1.
         11   -1    0    0    0    0 -0.00000000000E+00 -0.00000000000E+00 -0.45593999997E+02  0.45594000000E+02  0.51100000000E-03 0. -1.
    9900012    2    1    2    0    0 -0.37326324545E+01  0.42694539300E+02  0.68459301886E+01  0.47787274301E+02  0.20000014848E+02 0.  0.
         12    1    1    2    0    0  0.37326324545E+01 -0.42694539300E+02 -0.68459301886E+01  0.43400725699E+02  0.00000000000E+00 0. -1.
         11    1    3    3    0    0 -0.36078000131E+01  0.74930726113E+01  0.13417735558E+01  0.84239370029E+01  0.51100000000E-03 0. -1.
        -11    1    3    3    0    0 -0.36406330604E+01  0.32842037515E+02  0.82591752519E+00  0.33053528968E+02  0.51100000000E-03 0.  1.
         12    1    3    3    0    0  0.35158006190E+01  0.23594291738E+01  0.46782391075E+01  0.63098083304E+01  0.00000000000E+00 0. -1.
</event>
<event>
 7    1  0.2647566E-010  0.4778727E+02  0.7816164E-02  0.1312668E+00
        -11   -1    0    0    0    0  0.00000000000E+00  0.00000000000E+00  0.45593999997E+02  0.45594000000E+02  0.51100000000E-03 0. -1.
         11   -1    0    0    0    0 -0.00000000000E+00 -0.00000000000E+00 -0.45593999997E+02  0.45594000000E+02  0.51100000000E-03 0.  1.
    9900012    2    1    2    0    0 -0.40419137427E+02 -0.10151250093E+02 -0.12118938557E+02  0.47787271659E+02  0.20000002802E+02 0.  0.
         12    1    1    2    0    0  0.40419137427E+02  0.10151250093E+02  0.12118938557E+02  0.43400728341E+02  0.00000000000E+00 0. -1.
         11    1    3    3    0    0 -0.95155553337E+01 -0.30211956251E+01  0.32286265243E+01  0.10492733000E+02  0.51100000000E-03 0. -1.
        -11    1    3    3    0    0 -0.18268070865E+02 -0.60523679950E+01 -0.27865587590E+01  0.19445268871E+02  0.51100000000E-03 0.  1.
         12    1    3    3    0    0 -0.12635511228E+02 -0.10776864725E+01 -0.12561006323E+02  0.17849269788E+02  0.00000000000E+00 0. -1.
</event>
<event>
 7    1  0.2647566E-010  0.4778727E+02  0.7816164E-02  0.1312668E+00
        -11   -1    0    0    0    0  0.00000000000E+00  0.00000000000E+00  0.45593999997E+02  0.45594000000E+02  0.51100000000E-03 0.  1.
         11   -1    0    0    0    0 -0.00000000000E+00 -0.00000000000E+00 -0.45593999997E+02  0.45594000000E+02  0.51100000000E-03 0. -1.
    9900012    2    1    2    0    0 -0.28292339713E+02  0.46674137056E+01  0.32578859753E+02  0.47787270283E+02  0.19999996529E+02 0.  0.
         12    1    1    2    0    0  0.28292339713E+02 -0.46674137056E+01 -0.32578859753E+02  0.43400729717E+02  0.00000000000E+00 0. -1.
         11    1    3    3    0    0 -0.10722661440E+02  0.41947838221E+01  0.15344563728E+02  0.19184038051E+02  0.51100000000E-03 0. -1.
        -11    1    3    3    0    0 -0.49721853800E+01  0.18331208887E+01  0.14774225011E+02  0.15695881134E+02  0.51100000000E-03 0.  1.
        -12    1    3    3    0    0 -0.12597492894E+02 -0.13604910053E+01  0.24600710140E+01  0.12907351098E+02  0.00000000000E+00 0.  1.
</event>
<event>
 7    1  0.2647566E-010  0.4778727E+02  0.7816164E-02  0.1312668E+00
        -11   -1    0    0    0    0  0.00000000000E+00  0.00000000000E+00  0.45593999997E+02  0.45594000000E+02  0.51100000000E-03 0.  1.
         11   -1    0    0    0    0 -0.00000000000E+00 -0.00000000000E+00 -0.45593999997E+02  0.45594000000E+02  0.51100000000E-03 0. -1.
    9900012    2    1    2    0    0 -0.17792038807E+02  0.17972704676E+02  0.35271076380E+02  0.47787267434E+02  0.19999983540E+02 0.  0.
         12    1    1    2    0    0  0.17792038807E+02 -0.17972704676E+02 -0.35271076380E+02  0.43400732566E+02  0.00000000000E+00 0. -1.
         11    1    3    3    0    0  0.26994008664E+00  0.69840596452E+00 -0.13368355333E+01  0.15322428156E+01  0.51100000000E-03 0. -1.
        -11    1    3    3    0    0 -0.15898970935E+02  0.19377013329E+02  0.30796453641E+02  0.39707272375E+02  0.51100000000E-03 0.  1.
         12    1    3    3    0    0 -0.21630079583E+01 -0.21027146182E+01  0.58114582719E+01  0.65477522433E+01  0.00000000000E+00 0. -1.
</event>
<event>
 7    1  0.2647566E-010  0.4778727E+02  0.7816164E-02  0.1312668E+00
        -11   -1    0    0    0    0  0.00000000000E+00  0.00000000000E+00  0.45593999997E+02  0.45594000000E+02  0.51100000000E-03 0. -1.
         11   -1    0    0    0    0 -0.00000000000E+00 -0.00000000000E+00 -0.45593999997E+02  0.45594000000E+02  0.51100000000E-03 0.  1.
    9900012    2    1    2    0    0  0.37518096678E+02 -0.20389506683E+02 -0.77642881764E+01  0.47787265766E+02  0.19999975934E+02 0.  0.
         12    1    1    2    0    0 -0.37518096678E+02  0.20389506683E+02  0.77642881764E+01  0.43400734234E+02  0.00000000000E+00 0. -1.
         11    1    3    3    0    0  0.10378588673E+01  0.34172326551E+01 -0.38237280320E+00  0.35917738332E+01  0.51100000000E-03 0. -1.
        -11    1    3    3    0    0  0.92868994632E+01 -0.55078203969E+01 -0.19055839611E+01  0.10964207115E+02  0.51100000000E-03 0.  1.
         12    1    3    3    0    0  0.27193338348E+02 -0.18298918942E+02 -0.54763314121E+01  0.33231284818E+02  0.00000000000E+00 0. -1.
</event>
<event>
 7    1  0.2647566E-010  0.4778727E+02  0.7816164E-02  0.1312668E+00
        -11   -1    0    0    0    0  0.00000000000E+00  0.00000000000E+00  0.45593999997E+02  0.45594000000E+02  0.51100000000E-03 0.  1.
         11   -1    0    0    0    0 -0.00000000000E+00 -0.00000000000E+00 -0.45593999997E+02  0.45594000000E+02  0.51100000000E-03 0. -1.
    9900012    2    1    2    0    0  0.32236710730E+02  0.28353870045E+02  0.63620802438E+01  0.47787268091E+02  0.19999986534E+02 0.  0.
         12    1    1    2    0    0 -0.32236710730E+02 -0.28353870045E+02 -0.63620802438E+01  0.43400731909E+02  0.00000000000E+00 0. -1.
         11    1    3    3    0    0 -0.29090947386E+00  0.15637262237E+01  0.79942871264E+00  0.17801557663E+01  0.51100000000E-03 0. -1.
        -11    1    3    3    0    0  0.16484006931E+02  0.24237596753E+02  0.51203101884E+01  0.29755691180E+02  0.51100000000E-03 0.  1.
         12    1    3    3    0    0  0.16043613273E+02  0.25525470677E+01  0.44234134277E+00  0.16251421145E+02  0.00000000000E+00 0. -1.
</event>
<event>
 7    1  0.2647566E-010  0.4778727E+02  0.7816164E-02  0.1312668E+00
        -11   -1    0    0    0    0  0.00000000000E+00  0.00000000000E+00  0.45593999997E+02  0.45594000000E+02  0.51100000000E-03 0.  1.
         11   -1    0    0    0    0 -0.00000000000E+00 -0.00000000000E+00 -0.45593999997E+02  0.45594000000E+02  0.51100000000E-03 0. -1.
    9900012    2    1    2    0    0  0.30821159898E+01  0.37606276773E+02  0.21445091493E+02  0.47787269120E+02  0.19999991228E+02 0.  0.
         12    1    1    2    0    0 -0.30821159898E+01 -0.37606276773E+02 -0.21445091493E+02  0.43400730880E+02  0.00000000000E+00 0. -1.
         11    1    3    3    0    0 -0.40725965795E+01  0.13921339935E+02  0.59920531689E+01  0.15693771055E+02  0.51100000000E-03 0. -1.
        -11    1    3    3    0    0  0.46223786178E+01  0.18568127328E+02  0.43716258628E+01  0.19627859014E+02  0.51100000000E-03 0.  1.
        -12    1    3    3    0    0  0.25323339514E+01  0.51168095109E+01  0.11081412462E+02  0.12465639051E+02  0.00000000000E+00 0.  1.
</event>
<event>
 7    1  0.2647566E-010  0.4778728E+02  0.7816164E-02  0.1312668E+00
        -11   -1    0    0    0    0  0.00000000000E+00  0.00000000000E+00  0.45593999997E+02  0.45594000000E+02  0.51100000000E-03 0.  1.
         11   -1    0    0    0    0 -0.00000000000E+00 -0.00000000000E+00 -0.45593999997E+02  0.45594000000E+02  0.51100000000E-03 0. -1.
    9900012    2    1    2    0    0  0.20372830423E+02 -0.79121964939E+01  0.37496236984E+02  0.47787275804E+02  0.20000021700E+02 0.  0.
         12    1    1    2    0    0 -0.20372830423E+02  0.79121964939E+01 -0.37496236984E+02  0.43400724196E+02  0.00000000000E+00 0. -1.
         11    1    3    3    0    0 -0.12959583101E+01 -0.26459918112E+01  0.20090960853E+01  0.35661250606E+01  0.51100000000E-03 0.  1.
        -11    1    3    3    0    0  0.54921451596E+01  0.48177985905E+01  0.91323413810E+01  0.11695063107E+02  0.51100000000E-03 0. -1.
        -12    1    3    3    0    0  0.16176643573E+02 -0.10084003273E+02  0.26354799518E+02  0.32526087636E+02  0.00000000000E+00 0.  1.
</event>
<event>
 7    1  0.2647566E-010  0.4778727E+02  0.7816164E-02  0.1312668E+00
        -11   -1    0    0    0    0  0.00000000000E+00  0.00000000000E+00  0.45593999997E+02  0.45594000000E+02  0.51100000000E-03 0.  1.
         11   -1    0    0    0    0 -0.00000000000E+00 -0.00000000000E+00 -0.45593999997E+02  0.45594000000E+02  0.51100000000E-03 0. -1.
    9900012    2    1    2    0    0 -0.12853338121E+02  0.41316226160E+02  0.33741081730E+01  0.47787269004E+02  0.19999990698E+02 0.  0.
         12    1    1    2    0    0  0.12853338121E+02 -0.41316226160E+02 -0.33741081730E+01  0.43400730996E+02  0.00000000000E+00 0. -1.
         11    1    3    3    0    0 -0.73385041813E+01  0.33012607119E+01 -0.88827199383E+00  0.80957392067E+01  0.51100000000E-03 0. -1.
        -11    1    3    3    0    0 -0.68085266772E+01  0.17694536678E+02  0.37945889098E+00  0.18963033857E+02  0.51100000000E-03 0.  1.
        -12    1    3    3    0    0  0.12936927372E+01  0.20320428770E+02  0.38829212758E+01  0.20728495940E+02  0.00000000000E+00 0.  1.
</event>
<event>
 7    1  0.2647566E-010  0.4778727E+02  0.7816164E-02  0.1312668E+00
        -11   -1    0    0    0    0  0.00000000000E+00  0.00000000000E+00  0.45593999997E+02  0.45594000000E+02  0.51100000000E-03 0. -1.
         11   -1    0    0    0    0 -0.00000000000E+00 -0.00000000000E+00 -0.45593999997E+02  0.45594000000E+02  0.51100000000E-03 0.  1.
    9900012    2    1    2    0    0 -0.34606380609E+02 -0.21223779427E+02 -0.15348390707E+02  0.47787268562E+02  0.19999988683E+02 0.  0.
         12    1    1    2    0    0  0.34606380609E+02  0.21223779427E+02  0.15348390707E+02  0.43400731438E+02  0.00000000000E+00 0. -1.
         11    1    3    3    0    0  0.89811767176E+00 -0.91541782092E+00  0.14678126517E+01  0.19491227208E+01  0.51100000000E-03 0. -1.
        -11    1    3    3    0    0 -0.45652895573E+01 -0.22952246145E+01  0.18857847326E+01  0.54466603613E+01  0.51100000000E-03 0.  1.
        -12    1    3    3    0    0 -0.30939208724E+02 -0.18013136991E+02 -0.18701988091E+02  0.40391485480E+02  0.00000000000E+00 0.  1.
</event>
<event>
 7    1  0.2647566E-010  0.4778727E+02  0.7816164E-02  0.1312668E+00
        -11   -1    0    0    0    0  0.00000000000E+00  0.00000000000E+00  0.45593999997E+02  0.45594000000E+02  0.51100000000E-03 0. -1.
         11   -1    0    0    0    0 -0.00000000000E+00 -0.00000000000E+00 -0.45593999997E+02  0.45594000000E+02  0.51100000000E-03 0.  1.
    9900012    2    1    2    0    0  0.12790768879E+02  0.36441872821E+02 -0.19799221569E+02  0.47787273762E+02  0.20000012391E+02 0.  0.
         12    1    1    2    0    0 -0.12790768879E+02 -0.36441872821E+02  0.19799221569E+02  0.43400726238E+02  0.00000000000E+00 0. -1.
         11    1    3    3    0    0 -0.29201203124E+01  0.83643404555E+01 -0.21751982432E+01  0.91225424938E+01  0.51100000000E-03 0. -1.
        -11    1    3    3    0    0  0.16430861423E+01 -0.12758256810E+00  0.11209658837E+01  0.19931317458E+01  0.51100000000E-03 0.  1.
        -12    1    3    3    0    0  0.14067803050E+02  0.28205114934E+02 -0.18744989209E+02  0.36671599522E+02  0.00000000000E+00 0.  1.
</event>
<event>
 7    1  0.2647566E-010  0.4778727E+02  0.7816164E-02  0.1312668E+00
        -11   -1    0    0    0    0  0.00000000000E+00  0.00000000000E+00  0.45593999997E+02  0.45594000000E+02  0.51100000000E-03 0. -1.
         11   -1    0    0    0    0 -0.00000000000E+00 -0.00000000000E+00 -0.45593999997E+02  0.45594000000E+02  0.51100000000E-03 0.  1.
    9900012    2    1    2    0    0 -0.26514309748E+02 -0.29888236776E+02 -0.16950161613E+02  0.47787270770E+02  0.19999998749E+02 0.  0.
         12    1    1    2    0    0  0.26514309748E+02  0.29888236776E+02  0.16950161613E+02  0.43400729230E+02  0.00000000000E+00 0. -1.
         11    1    3    3    0    0 -0.10493467019E+02 -0.58138355444E+01 -0.38464944130E+01  0.12597978145E+02  0.51100000000E-03 0. -1.
        -11    1    3    3    0    0 -0.65276337482E+01  0.18848951915E+00 -0.35943712468E+01  0.74541958367E+01  0.51100000000E-03 0.  1.
         12    1    3    3    0    0 -0.94932089810E+01 -0.24262890751E+02 -0.95092959528E+01  0.27735096788E+02  0.00000000000E+00 0. -1.
</event>
<event>
 7    1  0.2647566E-010  0.4778727E+02  0.7816164E-02  0.1312668E+00
        -11   -1    0    0    0    0  0.00000000000E+00  0.00000000000E+00  0.45593999997E+02  0.45594000000E+02  0.51100000000E-03 0. -1.
         11   -1    0    0    0    0 -0.00000000000E+00 -0.00000000000E+00 -0.45593999997E+02  0.45594000000E+02  0.51100000000E-03 0.  1.
    9900012    2    1    2    0    0  0.39833798408E+02  0.90936410133E+01 -0.14635498134E+02  0.47787267193E+02  0.19999982441E+02 0.  0.
         12    1    1    2    0    0 -0.39833798408E+02 -0.90936410133E+01  0.14635498134E+02  0.43400732807E+02  0.00000000000E+00 0. -1.
         11    1    3    3    0    0  0.15613527873E+02  0.17187858757E+01  0.77297514320E+00  0.15726855005E+02  0.51100000000E-03 0.  1.
        -11    1    3    3    0    0  0.14437959393E+02  0.71541512444E+01 -0.32226601906E+01  0.16432348902E+02  0.51100000000E-03 0. -1.
         12    1    3    3    0    0  0.97823111424E+01  0.22070389312E+00 -0.12185813087E+02  0.15628063286E+02  0.00000000000E+00 0. -1.
</event>
<event>
 7    1  0.2647566E-010  0.4778727E+02  0.7816164E-02  0.1312668E+00
        -11   -1    0    0    0    0  0.00000000000E+00  0.00000000000E+00  0.45593999997E+02  0.45594000000E+02  0.51100000000E-03 0. -1.
         11   -1    0    0    0    0 -0.00000000000E+00 -0.00000000000E+00 -0.45593999997E+02  0.45594000000E+02  0.51100000000E-03 0.  1.
    9900012    2    1    2    0    0 -0.29074964902E+02 -0.24890162090E+02 -0.20463366244E+02  0.47787272922E+02  0.20000008559E+02 0.  0.
         12    1    1    2    0    0  0.29074964902E+02  0.24890162090E+02  0.20463366244E+02  0.43400727078E+02  0.00000000000E+00 0. -1.
         11    1    3    3    0    0 -0.26909122520E+01 -0.29355392996E+01 -0.17491296428E+01  0.43494660012E+01  0.51100000000E-03 0.  1.
        -11    1    3    3    0    0  0.19663793905E+00  0.28200461119E+01 -0.87835752294E+00  0.29602092411E+01  0.51100000000E-03 0. -1.
         12    1    3    3    0    0 -0.26580690589E+02 -0.24774668902E+02 -0.17835879079E+02  0.40477597679E+02  0.00000000000E+00 0. -1.
</event>
<event>
 7    1  0.2647566E-010  0.4778724E+02  0.7816164E-02  0.1312668E+00
        -11   -1    0    0    0    0  0.00000000000E+00  0.00000000000E+00  0.45593999997E+02  0.45594000000E+02  0.51100000000E-03 0.  1.
         11   -1    0    0    0    0 -0.00000000000E+00 -0.00000000000E+00 -0.45593999997E+02  0.45594000000E+02  0.51100000000E-03 0. -1.
    9900012    2    1    2    0    0  0.11965835939E+02  0.32884224064E+02  0.25672416372E+02  0.47787235209E+02  0.19999836612E+02 0.  0.
         12    1    1    2    0    0 -0.11965835939E+02 -0.32884224064E+02 -0.25672416372E+02  0.43400764791E+02  0.00000000000E+00 0. -1.
         11    1    3    3    0    0  0.45888322602E+01  0.40254320519E+01  0.48931404650E+01  0.78233182594E+01  0.51100000000E-03 0. -1.
        -11    1    3    3    0    0  0.95038750635E+01  0.28914844357E+02  0.15258234108E+02  0.34047108156E+02  0.51100000000E-03 0.  1.
        -12    1    3    3    0    0 -0.21268713847E+01 -0.56052344630E-01  0.55210417994E+01  0.59168087938E+01  0.00000000000E+00 0.  1.
</event>
<event>
 7    1  0.2647566E-010  0.4778726E+02  0.7816164E-02  0.1312668E+00
        -11   -1    0    0    0    0  0.00000000000E+00  0.00000000000E+00  0.45593999997E+02  0.45594000000E+02  0.51100000000E-03 0.  1.
         11   -1    0    0    0    0 -0.00000000000E+00 -0.00000000000E+00 -0.45593999997E+02  0.45594000000E+02  0.51100000000E-03 0. -1.
    9900012    2    1    2    0    0 -0.11008874113E+02 -0.29369156896E+02  0.29998021614E+02  0.47787262832E+02  0.19999962555E+02 0.  0.
         12    1    1    2    0    0  0.11008874113E+02  0.29369156896E+02 -0.29998021614E+02  0.43400737168E+02  0.00000000000E+00 0. -1.
         11    1    3    3    0    0 -0.90365634389E+00 -0.10104103916E+02  0.31577031908E+01  0.10624528246E+02  0.51100000000E-03 0. -1.
        -11    1    3    3    0    0 -0.43933471967E+01  0.10265657687E+01  0.34850949523E+01  0.57009844725E+01  0.51100000000E-03 0.  1.
         12    1    3    3    0    0 -0.57118705728E+01 -0.20291618748E+02  0.23355223471E+02  0.31461750114E+02  0.00000000000E+00 0. -1.
</event>
<event>
 7    1  0.2647566E-010  0.4778728E+02  0.7816164E-02  0.1312668E+00
        -11   -1    0    0    0    0  0.00000000000E+00  0.00000000000E+00  0.45593999997E+02  0.45594000000E+02  0.51100000000E-03 0.  1.
         11   -1    0    0    0    0 -0.00000000000E+00 -0.00000000000E+00 -0.45593999997E+02  0.45594000000E+02  0.51100000000E-03 0. -1.
    9900012    2    1    2    0    0 -0.18973174481E+02  0.26103270752E+02  0.29021725203E+02  0.47787278490E+02  0.20000033946E+02 0.  0.
         12    1    1    2    0    0  0.18973174481E+02 -0.26103270752E+02 -0.29021725203E+02  0.43400721510E+02  0.00000000000E+00 0. -1.
         11    1    3    3    0    0 -0.15489659628E+02  0.11774613922E+02  0.17117186820E+02  0.25914651711E+02  0.51100000000E-03 0. -1.
        -11    1    3    3    0    0  0.10541336956E+01 -0.15196812763E+01  0.94553807830E+00  0.20771787474E+01  0.51100000000E-03 0.  1.
        -12    1    3    3    0    0 -0.45376485487E+01  0.15848338107E+02  0.10959000304E+02  0.19795448032E+02  0.00000000000E+00 0.  1.
</event>
<event>
 7    1  0.2647566E-010  0.4778728E+02  0.7816164E-02  0.1312668E+00
        -11   -1    0    0    0    0  0.00000000000E+00  0.00000000000E+00  0.45593999997E+02  0.45594000000E+02  0.51100000000E-03 0.  1.
         11   -1    0    0    0    0 -0.00000000000E+00 -0.00000000000E+00 -0.45593999997E+02  0.45594000000E+02  0.51100000000E-03 0. -1.
    9900012    2    1    2    0    0 -0.17709744328E+01  0.78623943378E+01  0.42645854006E+02  0.47787280432E+02  0.20000042801E+02 0.  0.
         12    1    1    2    0    0  0.17709744328E+01 -0.78623943378E+01 -0.42645854006E+02  0.43400719568E+02  0.00000000000E+00 0. -1.
         11    1    3    3    0    0 -0.15970433147E+01 -0.25503946414E-01  0.14626922098E+02  0.14713872641E+02  0.51100000000E-03 0. -1.
        -11    1    3    3    0    0  0.58203983437E+01  0.62061778290E+01  0.24470276291E+02  0.25907298241E+02  0.51100000000E-03 0.  1.
         12    1    3    3    0    0 -0.59943294618E+01  0.16817204553E+01  0.35486556172E+01  0.71661095495E+01  0.00000000000E+00 0. -1.
</event>
<event>
 7    1  0.2647566E-010  0.4778727E+02  0.7816164E-02  0.1312668E+00
        -11   -1    0    0    0    0  0.00000000000E+00  0.00000000000E+00  0.45593999997E+02  0.45594000000E+02  0.51100000000E-03 0.  1.
         11   -1    0    0    0    0 -0.00000000000E+00 -0.00000000000E+00 -0.45593999997E+02  0.45594000000E+02  0.51100000000E-03 0. -1.
    9900012    2    1    2    0    0 -0.23309440431E+02 -0.36037499505E+02 -0.64491560744E+01  0.47787274225E+02  0.20000014500E+02 0.  0.
         12    1    1    2    0    0  0.23309440431E+02  0.36037499505E+02  0.64491560744E+01  0.43400725775E+02  0.00000000000E+00 0. -1.
         11    1    3    3    0    0 -0.99980950865E+01 -0.15100628587E+02 -0.33303027994E+01  0.18414174053E+02  0.51100000000E-03 0. -1.
        -11    1    3    3    0    0 -0.68521132377E+01 -0.14449501659E+02 -0.91364559794E+01  0.18417773539E+02  0.51100000000E-03 0.  1.
         12    1    3    3    0    0 -0.64592321066E+01 -0.64873692589E+01  0.60176027044E+01  0.10955326632E+02  0.00000000000E+00 0. -1.
</event>
<event>
 7    1  0.2647566E-010  0.4778729E+02  0.7816164E-02  0.1312668E+00
        -11   -1    0    0    0    0  0.00000000000E+00  0.00000000000E+00  0.45593999997E+02  0.45594000000E+02  0.51100000000E-03 0.  1.
         11   -1    0    0    0    0 -0.00000000000E+00 -0.00000000000E+00 -0.45593999997E+02  0.45594000000E+02  0.51100000000E-03 0. -1.
    9900012    2    1    2    0    0 -0.20732098886E+02  0.91906651562E+01  0.37004507074E+02  0.47787288093E+02  0.20000077732E+02 0.  0.
         12    1    1    2    0    0  0.20732098886E+02 -0.91906651562E+01 -0.37004507074E+02  0.43400711907E+02  0.00000000000E+00 0. -1.
         11    1    3    3    0    0 -0.28445270540E+01  0.84550012850E+00  0.15996410342E+01  0.33712099205E+01  0.51100000000E-03 0. -1.
        -11    1    3    3    0    0 -0.20087595040E+02  0.21024342387E+01  0.26954748572E+02  0.33682193739E+02  0.51100000000E-03 0.  1.
         12    1    3    3    0    0  0.22000232085E+01  0.62427307890E+01  0.84501174675E+01  0.10733884434E+02  0.00000000000E+00 0. -1.
</event>
<event>
 7    1  0.2647566E-010  0.4778727E+02  0.7816164E-02  0.1312668E+00
        -11   -1    0    0    0    0  0.00000000000E+00  0.00000000000E+00  0.45593999997E+02  0.45594000000E+02  0.51100000000E-03 0.  1.
         11   -1    0    0    0    0 -0.00000000000E+00 -0.00000000000E+00 -0.45593999997E+02  0.45594000000E+02  0.51100000000E-03 0. -1.
    9900012    2    1    2    0    0 -0.53216584337E+01  0.23151871916E+02  0.36322087478E+02  0.47787271199E+02  0.20000000704E+02 0.  0.
         12    1    1    2    0    0  0.53216584337E+01 -0.23151871916E+02 -0.36322087478E+02  0.43400728801E+02  0.00000000000E+00 0. -1.
         11    1    3    3    0    0 -0.87778077311E+01  0.15281700830E+02  0.32829015851E+02  0.37260227734E+02  0.51100000000E-03 0. -1.
        -11    1    3    3    0    0  0.32274104790E+00  0.52354027592E+01  0.37141182106E+01  0.64271516380E+01  0.51100000000E-03 0.  1.
         12    1    3    3    0    0  0.31334082494E+01  0.26347683273E+01 -0.22104658339E+00  0.40998918264E+01  0.00000000000E+00 0. -1.
</event>
<event>
 7    1  0.2647566E-010  0.4778727E+02  0.7816164E-02  0.1312668E+00
        -11   -1    0    0    0    0  0.00000000000E+00  0.00000000000E+00  0.45593999997E+02  0.45594000000E+02  0.51100000000E-03 0.  1.
         11   -1    0    0    0    0 -0.00000000000E+00 -0.00000000000E+00 -0.45593999997E+02  0.45594000000E+02  0.51100000000E-03 0. -1.
    9900012    2    1    2    0    0 -0.19056760876E+02 -0.12092739023E+00  0.38992930082E+02  0.47787270111E+02  0.19999995744E+02 0.  0.
         12    1    1    2    0    0  0.19056760876E+02  0.12092739023E+00 -0.38992930082E+02  0.43400729889E+02  0.00000000000E+00 0. -1.
         11    1    3    3    0    0 -0.13706600785E+02 -0.51968368415E+01  0.24283675935E+02  0.28365030150E+02  0.51100000000E-03 0. -1.
        -11    1    3    3    0    0 -0.76476591826E+01  0.91330963120E+00  0.72559669258E+01  0.10581582195E+02  0.51100000000E-03 0.  1.
        -12    1    3    3    0    0  0.22974990914E+01  0.41625998200E+01  0.74532872209E+01  0.88406577659E+01  0.00000000000E+00 0.  1.
</event>
<event>
 7    1  0.2647566E-010  0.4778727E+02  0.7816164E-02  0.1312668E+00
        -11   -1    0    0    0    0  0.00000000000E+00  0.00000000000E+00  0.45593999997E+02  0.45594000000E+02  0.51100000000E-03 0.  1.
         11   -1    0    0    0    0 -0.00000000000E+00 -0.00000000000E+00 -0.45593999997E+02  0.45594000000E+02  0.51100000000E-03 0. -1.
    9900012    2    1    2    0    0  0.41310250552E+01 -0.62674638429E+01  0.42746656681E+02  0.47787272720E+02  0.20000007639E+02 0.  0.
         12    1    1    2    0    0 -0.41310250552E+01  0.62674638429E+01 -0.42746656681E+02  0.43400727280E+02  0.00000000000E+00 0. -1.
         11    1    3    3    0    0  0.56672285987E+01 -0.72008784020E+01  0.38703667357E+02  0.39773659586E+02  0.51100000000E-03 0. -1.
        -11    1    3    3    0    0 -0.94953827233E+00 -0.27386395619E+01  0.29545329421E+01  0.41389654200E+01  0.51100000000E-03 0.  1.
         12    1    3    3    0    0 -0.58666527117E+00  0.36720541211E+01  0.10884563825E+01  0.38746477137E+01  0.00000000000E+00 0. -1.
</event>
<event>
 7    1  0.2647566E-010  0.4778727E+02  0.7816164E-02  0.1312668E+00
        -11   -1    0    0    0    0  0.00000000000E+00  0.00000000000E+00  0.45593999997E+02  0.45594000000E+02  0.51100000000E-03 0. -1.
         11   -1    0    0    0    0 -0.00000000000E+00 -0.00000000000E+00 -0.45593999997E+02  0.45594000000E+02  0.51100000000E-03 0.  1.
    9900012    2    1    2    0    0  0.93877690079E+01  0.31066928199E+02 -0.28815606745E+02  0.47787269283E+02  0.19999991971E+02 0.  0.
         12    1    1    2    0    0 -0.93877690079E+01 -0.31066928199E+02  0.28815606745E+02  0.43400730717E+02  0.00000000000E+00 0. -1.
         11    1    3    3    0    0 -0.16182524330E+01 -0.42397961421E+00 -0.68076995019E+00  0.18060862760E+01  0.51100000000E-03 0. -1.
        -11    1    3    3    0    0  0.75591538975E+01  0.39847413945E+01 -0.52051435586E+01  0.10005622987E+02  0.51100000000E-03 0.  1.
        -12    1    3    3    0    0  0.34468675435E+01  0.27506166419E+02 -0.22929693236E+02  0.35975560021E+02  0.00000000000E+00 0.  1.
</event>
<event>
 7    1  0.2647566E-010  0.4778727E+02  0.7816164E-02  0.1312668E+00
        -11   -1    0    0    0    0  0.00000000000E+00  0.00000000000E+00  0.45593999997E+02  0.45594000000E+02  0.51100000000E-03 0. -1.
         11   -1    0    0    0    0 -0.00000000000E+00 -0.00000000000E+00 -0.45593999997E+02  0.45594000000E+02  0.51100000000E-03 0.  1.
    9900012    2    1    2    0    0  0.23730968965E+02  0.29920039485E+02 -0.20621726025E+02  0.47787271491E+02  0.20000002038E+02 0.  0.
         12    1    1    2    0    0 -0.23730968965E+02 -0.29920039485E+02  0.20621726025E+02  0.43400728509E+02  0.00000000000E+00 0. -1.
         11    1    3    3    0    0 -0.14278365487E+01 -0.92959934430E+00 -0.16355210333E+01  0.23617369587E+01  0.51100000000E-03 0. -1.
        -11    1    3    3    0    0  0.71096106267E+01  0.10895256443E+02 -0.11829179780E+02  0.17583590951E+02  0.51100000000E-03 0.  1.
        -12    1    3    3    0    0  0.18049194887E+02  0.19954382387E+02 -0.71570252117E+01  0.27841943581E+02  0.00000000000E+00 0.  1.
</event>
<event>
 7    1  0.2647566E-010  0.4778730E+02  0.7816164E-02  0.1312668E+00
        -11   -1    0    0    0    0  0.00000000000E+00  0.00000000000E+00  0.45593999997E+02  0.45594000000E+02  0.51100000000E-03 0. -1.
         11   -1    0    0    0    0 -0.00000000000E+00 -0.00000000000E+00 -0.45593999997E+02  0.45594000000E+02  0.51100000000E-03 0.  1.
    9900012    2    1    2    0    0 -0.84943085614E+01  0.39160258732E+02 -0.16671582233E+02  0.47787299591E+02  0.20000130153E+02 0.  0.
         12    1    1    2    0    0  0.84943085614E+01 -0.39160258732E+02  0.16671582233E+02  0.43400700409E+02  0.00000000000E+00 0. -1.
         11    1    3    3    0    0  0.31559820257E+01  0.33640800029E+01 -0.35012683111E+01  0.57910393592E+01  0.51100000000E-03 0. -1.
        -11    1    3    3    0    0  0.26406561311E+01  0.69063944218E+01 -0.43552587081E+01  0.85813534706E+01  0.51100000000E-03 0.  1.
        -12    1    3    3    0    0 -0.14290946718E+02  0.28889784307E+02 -0.88150552135E+01  0.33414906761E+02  0.00000000000E+00 0.  1.
</event>
<event>
 7    1  0.2647566E-010  0.4778727E+02  0.7816164E-02  0.1312668E+00
        -11   -1    0    0    0    0  0.00000000000E+00  0.00000000000E+00  0.45593999997E+02  0.45594000000E+02  0.51100000000E-03 0.  1.
         11   -1    0    0    0    0 -0.00000000000E+00 -0.00000000000E+00 -0.45593999997E+02  0.45594000000E+02  0.51100000000E-03 0. -1.
    9900012    2    1    2    0    0  0.10524510452E+02 -0.34141565315E+02  0.24641664314E+02  0.47787269331E+02  0.19999992188E+02 0.  0.
         12    1    1    2    0    0 -0.10524510452E+02  0.34141565315E+02 -0.24641664314E+02  0.43400730669E+02  0.00000000000E+00 0. -1.
         11    1    3    3    0    0  0.12943650951E+02 -0.12680162192E+02  0.93434585668E+01  0.20386878903E+02  0.51100000000E-03 0.  1.
        -11    1    3    3    0    0 -0.16086581876E+01 -0.11745785599E+01  0.31906349270E+01  0.37613252261E+01  0.51100000000E-03 0. -1.
        -12    1    3    3    0    0 -0.81048231176E+00 -0.20286824563E+02  0.12107570821E+02  0.23639065202E+02  0.00000000000E+00 0.  1.
</event>
<event>
 7    1  0.2647566E-010  0.4778727E+02  0.7816164E-02  0.1312668E+00
        -11   -1    0    0    0    0  0.00000000000E+00  0.00000000000E+00  0.45593999997E+02  0.45594000000E+02  0.51100000000E-03 0.  1.
         11   -1    0    0    0    0 -0.00000000000E+00 -0.00000000000E+00 -0.45593999997E+02  0.45594000000E+02  0.51100000000E-03 0. -1.
    9900012    2    1    2    0    0 -0.24313675625E+02  0.34301826770E+02  0.10763532892E+02  0.47787265185E+02  0.19999973284E+02 0.  0.
         12    1    1    2    0    0  0.24313675625E+02 -0.34301826770E+02 -0.10763532892E+02  0.43400734815E+02  0.00000000000E+00 0. -1.
         11    1    3    3    0    0 -0.44702104728E+00 -0.15066407216E+01  0.37037920865E+01  0.40234152361E+01  0.51100000000E-03 0. -1.
        -11    1    3    3    0    0 -0.92484498969E+01  0.14848000786E+02  0.11228824824E+01  0.17528771154E+02  0.51100000000E-03 0.  1.
        -12    1    3    3    0    0 -0.14618204681E+02  0.20960466705E+02  0.59368583234E+01  0.26235078794E+02  0.00000000000E+00 0.  1.
</event>
<event>
 7    1  0.2647566E-010  0.4778727E+02  0.7816164E-02  0.1312668E+00
        -11   -1    0    0    0    0  0.00000000000E+00  0.00000000000E+00  0.45593999997E+02  0.45594000000E+02  0.51100000000E-03 0.  1.
         11   -1    0    0    0    0 -0.00000000000E+00 -0.00000000000E+00 -0.45593999997E+02  0.45594000000E+02  0.51100000000E-03 0. -1.
    9900012    2    1    2    0    0 -0.27923626672E+02 -0.32793913814E+02  0.53341814638E+01  0.47787271876E+02  0.20000003793E+02 0.  0.
         12    1    1    2    0    0  0.27923626672E+02  0.32793913814E+02 -0.53341814638E+01  0.43400728124E+02  0.00000000000E+00 0. -1.
         11    1    3    3    0    0 -0.88824106454E+01 -0.43805377241E+01  0.14675651667E+01  0.10011996674E+02  0.51100000000E-03 0. -1.
        -11    1    3    3    0    0 -0.18255779138E+02 -0.15121028669E+02 -0.65239900805E+00  0.23713806203E+02  0.51100000000E-03 0.  1.
         12    1    3    3    0    0 -0.78543688890E+00 -0.13292347421E+02  0.45190153052E+01  0.14061468999E+02  0.00000000000E+00 0. -1.
</event>
<event>
 7    1  0.2647566E-010  0.4778727E+02  0.7816164E-02  0.1312668E+00
        -11   -1    0    0    0    0  0.00000000000E+00  0.00000000000E+00  0.45593999997E+02  0.45594000000E+02  0.51100000000E-03 0.  1.
         11   -1    0    0    0    0 -0.00000000000E+00 -0.00000000000E+00 -0.45593999997E+02  0.45594000000E+02  0.51100000000E-03 0. -1.
    9900012    2    1    2    0    0 -0.38264638978E+01  0.23048157757E+02  0.36575456648E+02  0.47787269235E+02  0.19999991749E+02 0.  0.
         12    1    1    2    0    0  0.38264638978E+01 -0.23048157757E+02 -0.36575456648E+02  0.43400730765E+02  0.00000000000E+00 0. -1.
         11    1    3    3    0    0 -0.75462990902E+01  0.51689944331E+01  0.35254240113E+01  0.98027418679E+01  0.51100000000E-03 0. -1.
        -11    1    3    3    0    0 -0.10436860463E+00  0.94438908425E+01  0.17472248732E+02  0.19861456217E+02  0.51100000000E-03 0.  1.
         12    1    3    3    0    0  0.38242037970E+01  0.84352724813E+01  0.15577783905E+02  0.18123071150E+02  0.00000000000E+00 0. -1.
</event>
<event>
 7    1  0.2647566E-010  0.4778727E+02  0.7816164E-02  0.1312668E+00
        -11   -1    0    0    0    0  0.00000000000E+00  0.00000000000E+00  0.45593999997E+02  0.45594000000E+02  0.51100000000E-03 0.  1.
         11   -1    0    0    0    0 -0.00000000000E+00 -0.00000000000E+00 -0.45593999997E+02  0.45594000000E+02  0.51100000000E-03 0. -1.
    9900012    2    1    2    0    0 -0.40428666963E+02  0.11366168826E+02  0.10952456309E+02  0.47787271834E+02  0.20000003598E+02 0.  0.
         12    1    1    2    0    0  0.40428666963E+02 -0.11366168826E+02 -0.10952456309E+02  0.43400728166E+02  0.00000000000E+00 0. -1.
         11    1    3    3    0    0 -0.23750105266E+02  0.26416163524E+01 -0.24271986989E+01  0.24019511462E+02  0.51100000000E-03 0. -1.
        -11    1    3    3    0    0 -0.13522480404E+01 -0.55829574961E+00  0.22190332266E+01  0.26578896946E+01  0.51100000000E-03 0.  1.
         12    1    3    3    0    0 -0.15326313656E+02  0.92828482232E+01  0.11160621782E+02  0.21109870677E+02  0.00000000000E+00 0. -1.
</event>
<event>
 7    1  0.2647566E-010  0.4778727E+02  0.7816164E-02  0.1312668E+00
        -11   -1    0    0    0    0  0.00000000000E+00  0.00000000000E+00  0.45593999997E+02  0.45594000000E+02  0.51100000000E-03 0. -1.
         11   -1    0    0    0    0 -0.00000000000E+00 -0.00000000000E+00 -0.45593999997E+02  0.45594000000E+02  0.51100000000E-03 0.  1.
    9900012    2    1    2    0    0  0.53615517183E+01 -0.42407435284E+02 -0.75157302719E+01  0.47787274134E+02  0.20000014086E+02 0.  0.
         12    1    1    2    0    0 -0.53615517183E+01  0.42407435284E+02  0.75157302719E+01  0.43400725866E+02  0.00000000000E+00 0. -1.
         11    1    3    3    0    0  0.21789645633E+01  0.11024618835E+01  0.16579868848E+01  0.29516486146E+01  0.51100000000E-03 0. -1.
        -11    1    3    3    0    0  0.28230067433E+00 -0.91271124036E+01 -0.39024764044E+01  0.99304177579E+01  0.51100000000E-03 0.  1.
         12    1    3    3    0    0  0.29002864808E+01 -0.34382784764E+02 -0.52712407523E+01  0.34905207761E+02  0.00000000000E+00 0. -1.
</event>
<event>
 7    1  0.2647566E-010  0.4778727E+02  0.7816164E-02  0.1312668E+00
        -11   -1    0    0    0    0  0.00000000000E+00  0.00000000000E+00  0.45593999997E+02  0.45594000000E+02  0.51100000000E-03 0.  1.
         11   -1    0    0    0    0 -0.00000000000E+00 -0.00000000000E+00 -0.45593999997E+02  0.45594000000E+02  0.51100000000E-03 0. -1.
    9900012    2    1    2    0    0 -0.36246615484E+02 -0.14274535587E+02  0.19132272289E+02  0.47787270245E+02  0.19999996356E+02 0.  0.
         12    1    1    2    0    0  0.36246615484E+02  0.14274535587E+02 -0.19132272289E+02  0.43400729755E+02  0.00000000000E+00 0. -1.
         11    1    3    3    0    0 -0.51210682915E+01 -0.86171941380E+01  0.57593145142E+01  0.11560755996E+02  0.51100000000E-03 0. -1.
        -11    1    3    3    0    0 -0.40915778489E+01 -0.48097305788E+00  0.67628207332E+01  0.79188439123E+01  0.51100000000E-03 0.  1.
         12    1    3    3    0    0 -0.27033969344E+02 -0.51763683916E+01  0.66101370420E+01  0.28307670337E+02  0.00000000000E+00 0. -1.
</event>
<event>
 7    1  0.2647566E-010  0.4778727E+02  0.7816164E-02  0.1312668E+00
        -11   -1    0    0    0    0  0.00000000000E+00  0.00000000000E+00  0.45593999997E+02  0.45594000000E+02  0.51100000000E-03 0. -1.
         11   -1    0    0    0    0 -0.00000000000E+00 -0.00000000000E+00 -0.45593999997E+02  0.45594000000E+02  0.51100000000E-03 0.  1.
    9900012    2    1    2    0    0  0.27695205324E+02  0.32119946160E+02  0.92145524459E+01  0.47787270559E+02  0.19999997785E+02 0.  0.
         12    1    1    2    0    0 -0.27695205324E+02 -0.32119946160E+02 -0.92145524459E+01  0.43400729441E+02  0.00000000000E+00 0. -1.
         11    1    3    3    0    0  0.62490649888E+01  0.93601888775E+00  0.22045770072E+01  0.66923168360E+01  0.51100000000E-03 0. -1.
        -11    1    3    3    0    0  0.74648491946E+01  0.45295752014E+01  0.66811182117E+01  0.10994469784E+02  0.51100000000E-03 0.  1.
        -12    1    3    3    0    0  0.13981291140E+02  0.26654352071E+02  0.32885722703E+00  0.30100483939E+02  0.00000000000E+00 0.  1.
</event>
<event>
 7    1  0.2647566E-010  0.4778727E+02  0.7816164E-02  0.1312668E+00
        -11   -1    0    0    0    0  0.00000000000E+00  0.00000000000E+00  0.45593999997E+02  0.45594000000E+02  0.51100000000E-03 0. -1.
         11   -1    0    0    0    0 -0.00000000000E+00 -0.00000000000E+00 -0.45593999997E+02  0.45594000000E+02  0.51100000000E-03 0.  1.
    9900012    2    1    2    0    0 -0.40216481539E+02  0.12502049912E+02 -0.10486033916E+02  0.47787267902E+02  0.19999985672E+02 0.  0.
         12    1    1    2    0    0  0.40216481539E+02 -0.12502049912E+02  0.10486033916E+02  0.43400732098E+02  0.00000000000E+00 0. -1.
         11    1    3    3    0    0 -0.26256122269E+02  0.12309959155E+02  0.13386146485E+00  0.28998913259E+02  0.51100000000E-03 0. -1.
        -11    1    3    3    0    0 -0.92248455729E+01  0.11812699895E+00 -0.27912911087E+01  0.96386221083E+01  0.51100000000E-03 0.  1.
         12    1    3    3    0    0 -0.47355136965E+01  0.73963757543E-01 -0.78286042724E+01  0.91497325350E+01  0.00000000000E+00 0. -1.
</event>
<event>
 7    1  0.2647566E-010  0.4778727E+02  0.7816164E-02  0.1312668E+00
        -11   -1    0    0    0    0  0.00000000000E+00  0.00000000000E+00  0.45593999997E+02  0.45594000000E+02  0.51100000000E-03 0.  1.
         11   -1    0    0    0    0 -0.00000000000E+00 -0.00000000000E+00 -0.45593999997E+02  0.45594000000E+02  0.51100000000E-03 0. -1.
    9900012    2    1    2    0    0 -0.15921197681E+02 -0.40066088518E+02 -0.49847047256E+01  0.47787271136E+02  0.20000000417E+02 0.  0.
         12    1    1    2    0    0  0.15921197681E+02  0.40066088518E+02  0.49847047256E+01  0.43400728864E+02  0.00000000000E+00 0. -1.
         11    1    3    3    0    0 -0.41299232393E+01 -0.93642929324E+01 -0.19175151875E+01  0.10412641972E+02  0.51100000000E-03 0. -1.
        -11    1    3    3    0    0 -0.38963166902E+01 -0.62105933992E+01 -0.83434295933E+01  0.11107005526E+02  0.51100000000E-03 0.  1.
         12    1    3    3    0    0 -0.78949577519E+01 -0.24491202186E+02  0.52762400553E+01  0.26267623637E+02  0.00000000000E+00 0. -1.
</event>
<event>
 7    1  0.2647566E-010  0.4778727E+02  0.7816164E-02  0.1312668E+00
        -11   -1    0    0    0    0  0.00000000000E+00  0.00000000000E+00  0.45593999997E+02  0.45594000000E+02  0.51100000000E-03 0.  1.
         11   -1    0    0    0    0 -0.00000000000E+00 -0.00000000000E+00 -0.45593999997E+02  0.45594000000E+02  0.51100000000E-03 0. -1.
    9900012    2    1    2    0    0  0.30131487149E+02  0.12908687017E+02  0.28444375476E+02  0.47787271728E+02  0.20000003118E+02 0.  0.
         12    1    1    2    0    0 -0.30131487149E+02 -0.12908687017E+02 -0.28444375476E+02  0.43400728272E+02  0.00000000000E+00 0. -1.
         11    1    3    3    0    0  0.34403060890E+01  0.53274014177E+01  0.75331402892E+01  0.98470866112E+01  0.51100000000E-03 0. -1.
        -11    1    3    3    0    0  0.50007468699E+00  0.48282548776E+01  0.10792576172E+01  0.49726167277E+01  0.51100000000E-03 0.  1.
        -12    1    3    3    0    0  0.26191106373E+02  0.27530307219E+01  0.19831977569E+02  0.32967568389E+02  0.00000000000E+00 0.  1.
</event>
<event>
 7    1  0.2647566E-010  0.4778727E+02  0.7816164E-02  0.1312668E+00
        -11   -1    0    0    0    0  0.00000000000E+00  0.00000000000E+00  0.45593999997E+02  0.45594000000E+02  0.51100000000E-03 0.  1.
         11   -1    0    0    0    0 -0.00000000000E+00 -0.00000000000E+00 -0.45593999997E+02  0.45594000000E+02  0.51100000000E-03 0. -1.
    9900012    2    1    2    0    0  0.34336104691E+02 -0.22273856175E+02  0.14440583747E+02  0.47787271743E+02  0.20000003187E+02 0.  0.
         12    1    1    2    0    0 -0.34336104691E+02  0.22273856175E+02 -0.14440583747E+02  0.43400728257E+02  0.00000000000E+00 0. -1.
         11    1    3    3    0    0  0.38652524133E+01  0.12521321574E+01 -0.94183580700E+00  0.41707392758E+01  0.51100000000E-03 0. -1.
        -11    1    3    3    0    0  0.10485403888E+02 -0.97404986395E+01 -0.96994659264E+00  0.14344399781E+02  0.51100000000E-03 0.  1.
         12    1    3    3    0    0  0.19985448390E+02 -0.13785489693E+02  0.16352366146E+02  0.29272132686E+02  0.00000000000E+00 0. -1.
</event>
<event>
 7    1  0.2647566E-010  0.4778727E+02  0.7816164E-02  0.1312668E+00
        -11   -1    0    0    0    0  0.00000000000E+00  0.00000000000E+00  0.45593999997E+02  0.45594000000E+02  0.51100000000E-03 0.  1.
         11   -1    0    0    0    0 -0.00000000000E+00 -0.00000000000E+00 -0.45593999997E+02  0.45594000000E+02  0.51100000000E-03 0. -1.
    9900012    2    1    2    0    0 -0.20062435829E+01  0.10198333930E+02  0.42137775458E+02  0.47787272485E+02  0.20000006569E+02 0.  0.
         12    1    1    2    0    0  0.20062435829E+01 -0.10198333930E+02 -0.42137775458E+02  0.43400727515E+02  0.00000000000E+00 0. -1.
         11    1    3    3    0    0  0.53737013102E+01  0.17232211325E+01  0.50207433962E+01  0.75534112396E+01  0.51100000000E-03 0. -1.
        -11    1    3    3    0    0  0.19724703691E+01  0.47345578858E+01  0.16656796143E+02  0.17428583871E+02  0.51100000000E-03 0.  1.
         12    1    3    3    0    0 -0.93524152622E+01  0.37405549121E+01  0.20460235919E+02  0.22805277375E+02  0.00000000000E+00 0. -1.
</event>
<event>
 7    1  0.2647566E-010  0.4778726E+02  0.7816164E-02  0.1312668E+00
        -11   -1    0    0    0    0  0.00000000000E+00  0.00000000000E+00  0.45593999997E+02  0.45594000000E+02  0.51100000000E-03 0.  1.
         11   -1    0    0    0    0 -0.00000000000E+00 -0.00000000000E+00 -0.45593999997E+02  0.45594000000E+02  0.51100000000E-03 0. -1.
    9900012    2    1    2    0    0  0.24490758730E+02 -0.33978209777E+02  0.11371396155E+02  0.47787255152E+02  0.19999927539E+02 0.  0.
         12    1    1    2    0    0 -0.24490758730E+02  0.33978209777E+02 -0.11371396155E+02  0.43400744848E+02  0.00000000000E+00 0. -1.
         11    1    3    3    0    0  0.45574509658E+01 -0.31314350407E+01 -0.49839453157E+01  0.74441894045E+01  0.51100000000E-03 0. -1.
        -11    1    3    3    0    0  0.40788375094E+01 -0.56486257550E+01  0.45241488071E+01  0.83073347734E+01  0.51100000000E-03 0.  1.
        -12    1    3    3    0    0  0.15854470255E+02 -0.25198148982E+02  0.11831192664E+02  0.32035730974E+02  0.00000000000E+00 0.  1.
</event>
<event>
 7    1  0.2647566E-010  0.4778727E+02  0.7816164E-02  0.1312668E+00
        -11   -1    0    0    0    0  0.00000000000E+00  0.00000000000E+00  0.45593999997E+02  0.45594000000E+02  0.51100000000E-03 0.  1.
         11   -1    0    0    0    0 -0.00000000000E+00 -0.00000000000E+00 -0.45593999997E+02  0.45594000000E+02  0.51100000000E-03 0. -1.
    9900012    2    1    2    0    0 -0.20048968749E+01  0.11100380826E+02  0.41909249738E+02  0.47787270979E+02  0.19999999702E+02 0.  0.
         12    1    1    2    0    0  0.20048968749E+01 -0.11100380826E+02 -0.41909249738E+02  0.43400729021E+02  0.00000000000E+00 0. -1.
         11    1    3    3    0    0  0.23246108194E+01  0.46560169139E+01  0.17861126082E+01  0.55020457536E+01  0.51100000000E-03 0. -1.
        -11    1    3    3    0    0 -0.97244904396E+00 -0.75560240922E+00 -0.14586189148E+00  0.12401080987E+01  0.51100000000E-03 0.  1.
        -12    1    3    3    0    0 -0.33570586503E+01  0.71999663212E+01  0.40268999021E+02  0.41045117127E+02  0.00000000000E+00 0.  1.
</event>
<event>
 7    1  0.2647566E-010  0.4778727E+02  0.7816164E-02  0.1312668E+00
        -11   -1    0    0    0    0  0.00000000000E+00  0.00000000000E+00  0.45593999997E+02  0.45594000000E+02  0.51100000000E-03 0. -1.
         11   -1    0    0    0    0 -0.00000000000E+00 -0.00000000000E+00 -0.45593999997E+02  0.45594000000E+02  0.51100000000E-03 0.  1.
    9900012    2    1    2    0    0  0.65972428367E+01 -0.36463431161E+02 -0.22594636620E+02  0.47787273865E+02  0.20000012859E+02 0.  0.
         12    1    1    2    0    0 -0.65972428367E+01  0.36463431161E+02  0.22594636620E+02  0.43400726135E+02  0.00000000000E+00 0. -1.
         11    1    3    3    0    0 -0.60435924045E+01 -0.68280190268E+01 -0.66461649924E+01  0.11283543874E+02  0.51100000000E-03 0.  1.
        -11    1    3    3    0    0  0.69468754019E+01 -0.16824957039E+02 -0.54870783550E+01  0.19011740750E+02  0.51100000000E-03 0. -1.
        -12    1    3    3    0    0  0.56939598393E+01 -0.12810455095E+02 -0.10461393272E+02  0.17491989241E+02  0.00000000000E+00 0.  1.
</event>
<event>
 7    1  0.2647566E-010  0.4778728E+02  0.7816164E-02  0.1312668E+00
        -11   -1    0    0    0    0  0.00000000000E+00  0.00000000000E+00  0.45593999997E+02  0.45594000000E+02  0.51100000000E-03 0.  1.
         11   -1    0    0    0    0 -0.00000000000E+00 -0.00000000000E+00 -0.45593999997E+02  0.45594000000E+02  0.51100000000E-03 0. -1.
    9900012    2    1    2    0    0  0.37946615318E+01 -0.34621490886E+02  0.25895478605E+02  0.47787275358E+02  0.20000019666E+02 0.  0.
         12    1    1    2    0    0 -0.37946615318E+01  0.34621490886E+02 -0.25895478605E+02  0.43400724642E+02  0.00000000000E+00 0. -1.
         11    1    3    3    0    0 -0.50934232195E+01 -0.92195888337E+01  0.53990804788E+01  0.11836124730E+02  0.51100000000E-03 0. -1.
        -11    1    3    3    0    0 -0.63994036018E-01 -0.10506810126E+02  0.22344286406E+01  0.10741965643E+02  0.51100000000E-03 0.  1.
        -12    1    3    3    0    0  0.89520787873E+01 -0.14895091926E+02  0.18261969485E+02  0.25209184984E+02  0.00000000000E+00 0.  1.
</event>
<event>
 7    1  0.2647566E-010  0.4778726E+02  0.7816164E-02  0.1312668E+00
        -11   -1    0    0    0    0  0.00000000000E+00  0.00000000000E+00  0.45593999997E+02  0.45594000000E+02  0.51100000000E-03 0.  1.
         11   -1    0    0    0    0 -0.00000000000E+00 -0.00000000000E+00 -0.45593999997E+02  0.45594000000E+02  0.51100000000E-03 0. -1.
    9900012    2    1    2    0    0  0.24515318212E+02  0.14689958630E+02  0.32662339016E+02  0.47787261508E+02  0.19999956521E+02 0.  0.
         12    1    1    2    0    0 -0.24515318212E+02 -0.14689958630E+02 -0.32662339016E+02  0.43400738492E+02  0.00000000000E+00 0. -1.
         11    1    3    3    0    0  0.12460843572E+02  0.67288573717E+01  0.87270707988E+01  0.16634659871E+02  0.51100000000E-03 0. -1.
        -11    1    3    3    0    0  0.70937628744E+01 -0.31273193831E+01  0.83782632891E+01  0.11414766500E+02  0.51100000000E-03 0.  1.
         12    1    3    3    0    0  0.49607117657E+01  0.11088420642E+02  0.15557004929E+02  0.19737835137E+02  0.00000000000E+00 0. -1.
</event>
<event>
 7    1  0.2647566E-010  0.4778727E+02  0.7816164E-02  0.1312668E+00
        -11   -1    0    0    0    0  0.00000000000E+00  0.00000000000E+00  0.45593999997E+02  0.45594000000E+02  0.51100000000E-03 0.  1.
         11   -1    0    0    0    0 -0.00000000000E+00 -0.00000000000E+00 -0.45593999997E+02  0.45594000000E+02  0.51100000000E-03 0. -1.
    9900012    2    1    2    0    0  0.34806464849E+02 -0.13084251856E+02  0.22381591607E+02  0.47787270918E+02  0.19999999425E+02 0.  0.
         12    1    1    2    0    0 -0.34806464849E+02  0.13084251856E+02 -0.22381591607E+02  0.43400729082E+02  0.00000000000E+00 0. -1.
         11    1    3    3    0    0  0.15802429504E+02 -0.25253502625E+01  0.83120135579E+01  0.18032851738E+02  0.51100000000E-03 0. -1.
        -11    1    3    3    0    0  0.18530816242E+02 -0.10649192217E+02  0.67419079092E+01  0.22410929655E+02  0.51100000000E-03 0.  1.
         12    1    3    3    0    0  0.47321910302E+00  0.90290623430E-01  0.73276701403E+01  0.73434895248E+01  0.00000000000E+00 0. -1.
</event>
<event>
 7    1  0.2647566E-010  0.4778727E+02  0.7816164E-02  0.1312668E+00
        -11   -1    0    0    0    0  0.00000000000E+00  0.00000000000E+00  0.45593999997E+02  0.45594000000E+02  0.51100000000E-03 0.  1.
         11   -1    0    0    0    0 -0.00000000000E+00 -0.00000000000E+00 -0.45593999997E+02  0.45594000000E+02  0.51100000000E-03 0. -1.
    9900012    2    1    2    0    0  0.16877539992E+02  0.39839232104E+02 -0.34069944918E+01  0.47787269795E+02  0.19999994303E+02 0.  0.
         12    1    1    2    0    0 -0.16877539992E+02 -0.39839232104E+02  0.34069944918E+01  0.43400730205E+02  0.00000000000E+00 0. -1.
         11    1    3    3    0    0  0.28045535575E+01 -0.11683472346E+01 -0.23722689266E-01  0.30382756532E+01  0.51100000000E-03 0. -1.
        -11    1    3    3    0    0  0.58891950963E+01  0.10551838654E+02  0.32700633381E+01  0.12518675344E+02  0.51100000000E-03 0.  1.
        -12    1    3    3    0    0  0.81837913386E+01  0.30455740685E+02 -0.66533351407E+01  0.32230318798E+02  0.00000000000E+00 0.  1.
</event>
<event>
 7    1  0.2647566E-010  0.4778727E+02  0.7816164E-02  0.1312668E+00
        -11   -1    0    0    0    0  0.00000000000E+00  0.00000000000E+00  0.45593999997E+02  0.45594000000E+02  0.51100000000E-03 0.  1.
         11   -1    0    0    0    0 -0.00000000000E+00 -0.00000000000E+00 -0.45593999997E+02  0.45594000000E+02  0.51100000000E-03 0. -1.
    9900012    2    1    2    0    0 -0.81961763816E+01  0.36596700740E+02  0.21843249754E+02  0.47787269912E+02  0.19999994837E+02 0.  0.
         12    1    1    2    0    0  0.81961763816E+01 -0.36596700740E+02 -0.21843249754E+02  0.43400730088E+02  0.00000000000E+00 0. -1.
         11    1    3    3    0    0 -0.13995982323E+01  0.52421157276E+00  0.45509803474E+01  0.47901038996E+01  0.51100000000E-03 0. -1.
        -11    1    3    3    0    0 -0.25126025293E+01  0.63077959282E+00 -0.11278456873E+01  0.28254363416E+01  0.51100000000E-03 0.  1.
        -12    1    3    3    0    0 -0.42839756200E+01  0.35441709575E+02  0.18420115093E+02  0.40171729671E+02  0.00000000000E+00 0.  1.
</event>
<event>
 7    1  0.2647566E-010  0.4778727E+02  0.7816164E-02  0.1312668E+00
        -11   -1    0    0    0    0  0.00000000000E+00  0.00000000000E+00  0.45593999997E+02  0.45594000000E+02  0.51100000000E-03 0.  1.
         11   -1    0    0    0    0 -0.00000000000E+00 -0.00000000000E+00 -0.45593999997E+02  0.45594000000E+02  0.51100000000E-03 0. -1.
    9900012    2    1    2    0    0 -0.34140698550E+02 -0.25787945445E+02  0.72813305640E+01  0.47787271867E+02  0.20000003748E+02 0.  0.
         12    1    1    2    0    0  0.34140698550E+02  0.25787945445E+02 -0.72813305640E+01  0.43400728133E+02  0.00000000000E+00 0. -1.
         11    1    3    3    0    0 -0.97420459898E+01 -0.13971002321E+01  0.23766688286E+01  0.10124618714E+02  0.51100000000E-03 0. -1.
        -11    1    3    3    0    0 -0.23394811464E+02 -0.14812885447E+02  0.30789404356E+01  0.27860700873E+02  0.51100000000E-03 0.  1.
         12    1    3    3    0    0 -0.10038410964E+01 -0.95779597654E+01  0.18257212998E+01  0.98019522790E+01  0.00000000000E+00 0. -1.
</event>
<event>
 7    1  0.2647566E-010  0.4778727E+02  0.7816164E-02  0.1312668E+00
        -11   -1    0    0    0    0  0.00000000000E+00  0.00000000000E+00  0.45593999997E+02  0.45594000000E+02  0.51100000000E-03 0.  1.
         11   -1    0    0    0    0 -0.00000000000E+00 -0.00000000000E+00 -0.45593999997E+02  0.45594000000E+02  0.51100000000E-03 0. -1.
    9900012    2    1    2    0    0  0.32537313154E+02 -0.23550163787E+02  0.16441911869E+02  0.47787269274E+02  0.19999991927E+02 0.  0.
         12    1    1    2    0    0 -0.32537313154E+02  0.23550163787E+02 -0.16441911869E+02  0.43400730726E+02  0.00000000000E+00 0. -1.
         11    1    3    3    0    0  0.57131324055E+01 -0.17516117259E+01  0.88505234556E+00  0.60408065221E+01  0.51100000000E-03 0. -1.
        -11    1    3    3    0    0  0.29117493511E+02 -0.19457126674E+02  0.12276958053E+02  0.37109727917E+02  0.51100000000E-03 0.  1.
         12    1    3    3    0    0 -0.22933127629E+01 -0.23414253873E+01  0.32799014700E+01  0.46367348345E+01  0.00000000000E+00 0. -1.
</event>
<event>
 7    1  0.2647566E-010  0.4778727E+02  0.7816164E-02  0.1312668E+00
        -11   -1    0    0    0    0  0.00000000000E+00  0.00000000000E+00  0.45593999997E+02  0.45594000000E+02  0.51100000000E-03 0.  1.
         11   -1    0    0    0    0 -0.00000000000E+00 -0.00000000000E+00 -0.45593999997E+02  0.45594000000E+02  0.51100000000E-03 0. -1.
    9900012    2    1    2    0    0 -0.13620102578E+02  0.93839663200E+01  0.40125517616E+02  0.47787272102E+02  0.20000004822E+02 0.  0.
         12    1    1    2    0    0  0.13620102578E+02 -0.93839663200E+01 -0.40125517616E+02  0.43400727898E+02  0.00000000000E+00 0. -1.
         11    1    3    3    0    0 -0.12695298856E+02  0.80549201915E+01  0.33685032046E+02  0.36888124600E+02  0.51100000000E-03 0.  1.
        -11    1    3    3    0    0 -0.28623135335E+01 -0.36697106029E-01  0.76999653950E+01  0.82148434426E+01  0.51100000000E-03 0. -1.
        -12    1    3    3    0    0  0.19375098117E+01  0.13657432345E+01 -0.12594798249E+01  0.26843040592E+01  0.00000000000E+00 0.  1.
</event>
<event>
 7    1  0.2647566E-010  0.4778727E+02  0.7816164E-02  0.1312668E+00
        -11   -1    0    0    0    0  0.00000000000E+00  0.00000000000E+00  0.45593999997E+02  0.45594000000E+02  0.51100000000E-03 0.  1.
         11   -1    0    0    0    0 -0.00000000000E+00 -0.00000000000E+00 -0.45593999997E+02  0.45594000000E+02  0.51100000000E-03 0. -1.
    9900012    2    1    2    0    0 -0.84128119036E+01 -0.13291082283E+02  0.40449913040E+02  0.47787265705E+02  0.19999975656E+02 0.  0.
         12    1    1    2    0    0  0.84128119036E+01  0.13291082283E+02 -0.40449913040E+02  0.43400734295E+02  0.00000000000E+00 0. -1.
         11    1    3    3    0    0 -0.89480101459E+01 -0.95016990576E+01  0.10441681921E+02  0.16714601167E+02  0.51100000000E-03 0.  1.
        -11    1    3    3    0    0 -0.32757738569E+01 -0.20163761465E+01  0.13445687709E+02  0.13985098690E+02  0.51100000000E-03 0. -1.
        -12    1    3    3    0    0  0.38109720993E+01 -0.17730070792E+01  0.16562543410E+02  0.17087565849E+02  0.00000000000E+00 0.  1.
</event>
<event>
 7    1  0.2647566E-010  0.4778725E+02  0.7816164E-02  0.1312668E+00
        -11   -1    0    0    0    0  0.00000000000E+00  0.00000000000E+00  0.45593999997E+02  0.45594000000E+02  0.51100000000E-03 0.  1.
         11   -1    0    0    0    0 -0.00000000000E+00 -0.00000000000E+00 -0.45593999997E+02  0.45594000000E+02  0.51100000000E-03 0. -1.
    9900012    2    1    2    0    0 -0.28824467360E+02  0.32445182236E+02  0.29197044200E+00  0.47787250978E+02  0.19999908510E+02 0.  0.
         12    1    1    2    0    0  0.28824467360E+02 -0.32445182236E+02 -0.29197044200E+00  0.43400749022E+02  0.00000000000E+00 0. -1.
         11    1    3    3    0    0 -0.29315918437E+01  0.83442793593E+01  0.32881291290E+01  0.94357311425E+01  0.51100000000E-03 0. -1.
        -11    1    3    3    0    0 -0.14682226388E+02  0.13371289063E+02  0.55719775580E+01  0.20625374593E+02  0.51100000000E-03 0.  1.
         12    1    3    3    0    0 -0.11210649128E+02  0.10729613814E+02 -0.85681362451E+01  0.17726145243E+02  0.00000000000E+00 0. -1.
</event>
<event>
 7    1  0.2647566E-010  0.4778727E+02  0.7816164E-02  0.1312668E+00
        -11   -1    0    0    0    0  0.00000000000E+00  0.00000000000E+00  0.45593999997E+02  0.45594000000E+02  0.51100000000E-03 0.  1.
         11   -1    0    0    0    0 -0.00000000000E+00 -0.00000000000E+00 -0.45593999997E+02  0.45594000000E+02  0.51100000000E-03 0. -1.
    9900012    2    1    2    0    0 -0.12385967038E+01 -0.78512573234E+01  0.42666700317E+02  0.47787266373E+02  0.19999978703E+02 0.  0.
         12    1    1    2    0    0  0.12385967038E+01  0.78512573234E+01 -0.42666700317E+02  0.43400733627E+02  0.00000000000E+00 0. -1.
         11    1    3    3    0    0 -0.28418472037E+01 -0.10777850750E+02  0.23199740558E+02  0.25738417289E+02  0.51100000000E-03 0. -1.
        -11    1    3    3    0    0  0.40890013705E+01 -0.21568138637E+01  0.74783776388E+01  0.87919230331E+01  0.51100000000E-03 0.  1.
         12    1    3    3    0    0 -0.24857508706E+01  0.50834072905E+01  0.11988582121E+02  0.13256926052E+02  0.00000000000E+00 0. -1.
</event>
<event>
 7    1  0.2647566E-010  0.4778727E+02  0.7816164E-02  0.1312668E+00
        -11   -1    0    0    0    0  0.00000000000E+00  0.00000000000E+00  0.45593999997E+02  0.45594000000E+02  0.51100000000E-03 0. -1.
         11   -1    0    0    0    0 -0.00000000000E+00 -0.00000000000E+00 -0.45593999997E+02  0.45594000000E+02  0.51100000000E-03 0.  1.
    9900012    2    1    2    0    0  0.16872086031E+02  0.37417905705E+02  0.14101650727E+02  0.47787268352E+02  0.19999987722E+02 0.  0.
         12    1    1    2    0    0 -0.16872086031E+02 -0.37417905705E+02 -0.14101650727E+02  0.43400731648E+02  0.00000000000E+00 0. -1.
         11    1    3    3    0    0  0.10265765840E+02  0.14586687463E+02  0.14511323978E+02  0.22994258485E+02  0.51100000000E-03 0. -1.
        -11    1    3    3    0    0  0.34843171892E+01  0.11389566111E+02  0.33125525510E+01  0.12362673139E+02  0.51100000000E-03 0.  1.
         12    1    3    3    0    0  0.31220030017E+01  0.11441652131E+02 -0.37222258024E+01  0.12430336727E+02  0.00000000000E+00 0. -1.
</event>
<event>
 7    1  0.2647566E-010  0.4778728E+02  0.7816164E-02  0.1312668E+00
        -11   -1    0    0    0    0  0.00000000000E+00  0.00000000000E+00  0.45593999997E+02  0.45594000000E+02  0.51100000000E-03 0.  1.
         11   -1    0    0    0    0 -0.00000000000E+00 -0.00000000000E+00 -0.45593999997E+02  0.45594000000E+02  0.51100000000E-03 0. -1.
    9900012    2    1    2    0    0  0.17646817866E+02 -0.10264341176E+02  0.38299552857E+02  0.47787278466E+02  0.20000033839E+02 0.  0.
         12    1    1    2    0    0 -0.17646817866E+02  0.10264341176E+02 -0.38299552857E+02  0.43400721534E+02  0.00000000000E+00 0. -1.
         11    1    3    3    0    0  0.83910333968E+00 -0.91543891448E+00  0.63701639641E+00  0.13956765281E+01  0.51100000000E-03 0. -1.
        -11    1    3    3    0    0  0.10694037883E+02  0.10215995257E+01  0.30607872145E+02  0.32438371558E+02  0.51100000000E-03 0.  1.
        -12    1    3    3    0    0  0.61136766434E+01 -0.10370501787E+02  0.70546643156E+01  0.13953230380E+02  0.00000000000E+00 0.  1.
</event>
<event>
 7    1  0.2647566E-010  0.4778727E+02  0.7816164E-02  0.1312668E+00
        -11   -1    0    0    0    0  0.00000000000E+00  0.00000000000E+00  0.45593999997E+02  0.45594000000E+02  0.51100000000E-03 0.  1.
         11   -1    0    0    0    0 -0.00000000000E+00 -0.00000000000E+00 -0.45593999997E+02  0.45594000000E+02  0.51100000000E-03 0. -1.
    9900012    2    1    2    0    0  0.40407773536E+02 -0.68246523947E+01  0.14291943048E+02  0.47787266382E+02  0.19999978743E+02 0.  0.
         12    1    1    2    0    0 -0.40407773536E+02  0.68246523947E+01 -0.14291943048E+02  0.43400733618E+02  0.00000000000E+00 0. -1.
         11    1    3    3    0    0  0.35393403980E+01 -0.10829397897E+01  0.65930491152E+00  0.37595707559E+01  0.51100000000E-03 0. -1.
        -11    1    3    3    0    0  0.33671731197E+02 -0.91175228710E+01  0.64559306986E+01  0.35476664817E+02  0.51100000000E-03 0.  1.
         12    1    3    3    0    0  0.31967019414E+01  0.33758102660E+01  0.71767074377E+01  0.85510308092E+01  0.00000000000E+00 0. -1.
</event>
<event>
 7    1  0.2647566E-010  0.4778725E+02  0.7816164E-02  0.1312668E+00
        -11   -1    0    0    0    0  0.00000000000E+00  0.00000000000E+00  0.45593999997E+02  0.45594000000E+02  0.51100000000E-03 0.  1.
         11   -1    0    0    0    0 -0.00000000000E+00 -0.00000000000E+00 -0.45593999997E+02  0.45594000000E+02  0.51100000000E-03 0. -1.
    9900012    2    1    2    0    0 -0.22262132288E+02  0.36501909300E+02 -0.74587546259E+01  0.47787251883E+02  0.19999912636E+02 0.  0.
         12    1    1    2    0    0  0.22262132288E+02 -0.36501909300E+02  0.74587546259E+01  0.43400748117E+02  0.00000000000E+00 0. -1.
         11    1    3    3    0    0 -0.23847870477E+01 -0.15475894805E+01 -0.91357294171E+00  0.29861108894E+01  0.51100000000E-03 0. -1.
        -11    1    3    3    0    0 -0.86355406548E+00 -0.84468492466E-01  0.12109271819E+01  0.14896997856E+01  0.51100000000E-03 0.  1.
        -12    1    3    3    0    0 -0.19013791175E+02  0.38133967273E+02 -0.77561088662E+01  0.43311441208E+02  0.00000000000E+00 0.  1.
</event>
<event>
 7    1  0.2647566E-010  0.4778728E+02  0.7816164E-02  0.1312668E+00
        -11   -1    0    0    0    0  0.00000000000E+00  0.00000000000E+00  0.45593999997E+02  0.45594000000E+02  0.51100000000E-03 0.  1.
         11   -1    0    0    0    0 -0.00000000000E+00 -0.00000000000E+00 -0.45593999997E+02  0.45594000000E+02  0.51100000000E-03 0. -1.
    9900012    2    1    2    0    0  0.35625576691E+02  0.33995889602E+01  0.24553689070E+02  0.47787279193E+02  0.20000037151E+02 0.  0.
         12    1    1    2    0    0 -0.35625576691E+02 -0.33995889602E+01 -0.24553689070E+02  0.43400720807E+02  0.00000000000E+00 0. -1.
         11    1    3    3    0    0  0.11758376384E+02 -0.16192790226E+01  0.11040958073E+02  0.16210621061E+02  0.51100000000E-03 0.  1.
        -11    1    3    3    0    0  0.19457705008E+01 -0.33984276973E+01  0.55275996096E+01  0.67741930413E+01  0.51100000000E-03 0. -1.
         12    1    3    3    0    0  0.21921429806E+02  0.84172956800E+01  0.79851313869E+01  0.24802465091E+02  0.00000000000E+00 0. -1.
</event>
<event>
 7    1  0.2647566E-010  0.4778727E+02  0.7816164E-02  0.1312668E+00
        -11   -1    0    0    0    0  0.00000000000E+00  0.00000000000E+00  0.45593999997E+02  0.45594000000E+02  0.51100000000E-03 0.  1.
         11   -1    0    0    0    0 -0.00000000000E+00 -0.00000000000E+00 -0.45593999997E+02  0.45594000000E+02  0.51100000000E-03 0. -1.
    9900012    2    1    2    0    0  0.39093570697E+02 -0.84568610817E+01  0.16846289247E+02  0.47787271543E+02  0.20000002271E+02 0.  0.
         12    1    1    2    0    0 -0.39093570697E+02  0.84568610817E+01 -0.16846289247E+02  0.43400728457E+02  0.00000000000E+00 0. -1.
         11    1    3    3    0    0  0.13649284797E+02  0.69694345880E+00  0.90030928749E+01  0.16365952072E+02  0.51100000000E-03 0.  1.
        -11    1    3    3    0    0  0.97529395053E-01 -0.23636776978E+01  0.43468698247E+01  0.49489152121E+01  0.51100000000E-03 0. -1.
         12    1    3    3    0    0  0.25346756506E+02 -0.67901268427E+01  0.34963265477E+01  0.26472404259E+02  0.00000000000E+00 0. -1.
</event>
<event>
 7    1  0.2647566E-010  0.4778727E+02  0.7816164E-02  0.1312668E+00
        -11   -1    0    0    0    0  0.00000000000E+00  0.00000000000E+00  0.45593999997E+02  0.45594000000E+02  0.51100000000E-03 0.  1.
         11   -1    0    0    0    0 -0.00000000000E+00 -0.00000000000E+00 -0.45593999997E+02  0.45594000000E+02  0.51100000000E-03 0. -1.
    9900012    2    1    2    0    0  0.37074058975E+02 -0.22338656996E+02 -0.31814804123E+01  0.47787271171E+02  0.20000000578E+02 0.  0.
         12    1    1    2    0    0 -0.37074058975E+02  0.22338656996E+02  0.31814804123E+01  0.43400728829E+02  0.00000000000E+00 0. -1.
         11    1    3    3    0    0  0.87095066534E+01 -0.54491242310E+00  0.32834861571E+01  0.93238252504E+01  0.51100000000E-03 0. -1.
        -11    1    3    3    0    0 -0.15029748101E+00 -0.16802626077E+01 -0.29418512598E+01  0.33912181969E+01  0.51100000000E-03 0.  1.
        -12    1    3    3    0    0  0.28514849803E+02 -0.20113481965E+02 -0.35231153096E+01  0.35072227724E+02  0.00000000000E+00 0.  1.
</event>
<event>
 7    1  0.2647566E-010  0.4778727E+02  0.7816164E-02  0.1312668E+00
        -11   -1    0    0    0    0  0.00000000000E+00  0.00000000000E+00  0.45593999997E+02  0.45594000000E+02  0.51100000000E-03 0.  1.
         11   -1    0    0    0    0 -0.00000000000E+00 -0.00000000000E+00 -0.45593999997E+02  0.45594000000E+02  0.51100000000E-03 0. -1.
    9900012    2    1    2    0    0  0.11112292611E+02 -0.18554839760E+02  0.37627895670E+02  0.47787266617E+02  0.19999979815E+02 0.  0.
         12    1    1    2    0    0 -0.11112292611E+02  0.18554839760E+02 -0.37627895670E+02  0.43400733383E+02  0.00000000000E+00 0. -1.
         11    1    3    3    0    0  0.98176024966E+01 -0.13930523765E+02  0.16451283583E+02  0.23687328742E+02  0.51100000000E-03 0. -1.
        -11    1    3    3    0    0 -0.19212656020E+01 -0.61164827112E+01  0.70236581550E+01  0.95097001220E+01  0.51100000000E-03 0.  1.
        -12    1    3    3    0    0  0.32159557166E+01  0.14921667167E+01  0.14152953932E+02  0.14590237753E+02  0.00000000000E+00 0.  1.
</event>
<event>
 7    1  0.2647566E-010  0.4778727E+02  0.7816164E-02  0.1312668E+00
        -11   -1    0    0    0    0  0.00000000000E+00  0.00000000000E+00  0.45593999997E+02  0.45594000000E+02  0.51100000000E-03 0.  1.
         11   -1    0    0    0    0 -0.00000000000E+00 -0.00000000000E+00 -0.45593999997E+02  0.45594000000E+02  0.51100000000E-03 0. -1.
    9900012    2    1    2    0    0 -0.28769414741E+02  0.16016237592E+02  0.28274091548E+02  0.47787270237E+02  0.19999996316E+02 0.  0.
         12    1    1    2    0    0  0.28769414741E+02 -0.16016237592E+02 -0.28274091548E+02  0.43400729763E+02  0.00000000000E+00 0. -1.
         11    1    3    3    0    0 -0.18327820467E+02  0.91302377540E+01  0.22830032521E+02  0.30667256638E+02  0.51100000000E-03 0. -1.
        -11    1    3    3    0    0  0.78938405432E-01  0.26590605182E+01  0.51288429646E+01  0.57777040879E+01  0.51100000000E-03 0.  1.
        -12    1    3    3    0    0 -0.10520532679E+02  0.42269393197E+01  0.31521606240E+00  0.11342309511E+02  0.00000000000E+00 0.  1.
</event>
<event>
 7    1  0.2647566E-010  0.4778728E+02  0.7816164E-02  0.1312668E+00
        -11   -1    0    0    0    0  0.00000000000E+00  0.00000000000E+00  0.45593999997E+02  0.45594000000E+02  0.51100000000E-03 0.  1.
         11   -1    0    0    0    0 -0.00000000000E+00 -0.00000000000E+00 -0.45593999997E+02  0.45594000000E+02  0.51100000000E-03 0. -1.
    9900012    2    1    2    0    0  0.23683381854E+02 -0.76239109556E+01  0.35561154144E+02  0.47787282514E+02  0.20000052294E+02 0.  0.
         12    1    1    2    0    0 -0.23683381854E+02  0.76239109556E+01 -0.35561154144E+02  0.43400717486E+02  0.00000000000E+00 0. -1.
         11    1    3    3    0    0  0.99643029337E+01 -0.30547954197E+00  0.47367664875E+01  0.11037101419E+02  0.51100000000E-03 0. -1.
        -11    1    3    3    0    0 -0.78460516697E+00  0.23766641100E+01  0.49029120173E+01  0.55047873774E+01  0.51100000000E-03 0.  1.
        -12    1    3    3    0    0  0.14503684087E+02 -0.96950955237E+01  0.25921475639E+02  0.31245393718E+02  0.00000000000E+00 0.  1.
</event>
<event>
 7    1  0.2647566E-010  0.4778728E+02  0.7816164E-02  0.1312668E+00
        -11   -1    0    0    0    0  0.00000000000E+00  0.00000000000E+00  0.45593999997E+02  0.45594000000E+02  0.51100000000E-03 0.  1.
         11   -1    0    0    0    0 -0.00000000000E+00 -0.00000000000E+00 -0.45593999997E+02  0.45594000000E+02  0.51100000000E-03 0. -1.
    9900012    2    1    2    0    0 -0.26973018854E+02 -0.10967199512E+02  0.32183840352E+02  0.47787276607E+02  0.20000025364E+02 0.  0.
         12    1    1    2    0    0  0.26973018854E+02  0.10967199512E+02 -0.32183840352E+02  0.43400723393E+02  0.00000000000E+00 0. -1.
         11    1    3    3    0    0  0.57528635147E+00  0.14394352100E+01 -0.13231335987E+01  0.20380409444E+01  0.51100000000E-03 0. -1.
        -11    1    3    3    0    0 -0.27398184209E+01  0.40853368783E+00  0.57241635876E+01  0.63592101548E+01  0.51100000000E-03 0.  1.
        -12    1    3    3    0    0 -0.24808486784E+02 -0.12815168410E+02  0.27782810363E+02  0.39390025508E+02  0.00000000000E+00 0.  1.
</event>
<event>
 7    1  0.2647566E-010  0.4778727E+02  0.7816164E-02  0.1312668E+00
        -11   -1    0    0    0    0  0.00000000000E+00  0.00000000000E+00  0.45593999997E+02  0.45594000000E+02  0.51100000000E-03 0.  1.
         11   -1    0    0    0    0 -0.00000000000E+00 -0.00000000000E+00 -0.45593999997E+02  0.45594000000E+02  0.51100000000E-03 0. -1.
    9900012    2    1    2    0    0  0.27980596718E+02  0.21437269109E+02  0.25320996184E+02  0.47787272503E+02  0.20000006650E+02 0.  0.
         12    1    1    2    0    0 -0.27980596718E+02 -0.21437269109E+02 -0.25320996184E+02  0.43400727497E+02  0.00000000000E+00 0. -1.
         11    1    3    3    0    0  0.49641513280E+01  0.29094226152E+01  0.10386877359E+02  0.11874121437E+02  0.51100000000E-03 0. -1.
        -11    1    3    3    0    0  0.18328260446E+02  0.15853053801E+02  0.17544559167E+02  0.29917486566E+02  0.51100000000E-03 0.  1.
         12    1    3    3    0    0  0.46881849433E+01  0.26747926927E+01 -0.26104403427E+01  0.59956644999E+01  0.00000000000E+00 0. -1.
</event>
<event>
 7    1  0.2647566E-010  0.4778728E+02  0.7816164E-02  0.1312668E+00
        -11   -1    0    0    0    0  0.00000000000E+00  0.00000000000E+00  0.45593999997E+02  0.45594000000E+02  0.51100000000E-03 0. -1.
         11   -1    0    0    0    0 -0.00000000000E+00 -0.00000000000E+00 -0.45593999997E+02  0.45594000000E+02  0.51100000000E-03 0.  1.
    9900012    2    1    2    0    0  0.37630832743E+02 -0.42108757360E+01 -0.21208757442E+02  0.47787280655E+02  0.20000043819E+02 0.  0.
         12    1    1    2    0    0 -0.37630832743E+02  0.42108757360E+01  0.21208757442E+02  0.43400719345E+02  0.00000000000E+00 0. -1.
         11    1    3    3    0    0  0.43510806483E-01  0.13247347539E+01 -0.13508840201E+00  0.13323154641E+01  0.51100000000E-03 0. -1.
        -11    1    3    3    0    0  0.10650983588E+01  0.29911381203E+01  0.46000393853E+00  0.32082620924E+01  0.51100000000E-03 0.  1.
        -12    1    3    3    0    0  0.36522223578E+02 -0.85267486102E+01 -0.21533672979E+02  0.43246703099E+02  0.00000000000E+00 0.  1.
</event>
<event>
 7    1  0.2647566E-010  0.4778727E+02  0.7816164E-02  0.1312668E+00
        -11   -1    0    0    0    0  0.00000000000E+00  0.00000000000E+00  0.45593999997E+02  0.45594000000E+02  0.51100000000E-03 0. -1.
         11   -1    0    0    0    0 -0.00000000000E+00 -0.00000000000E+00 -0.45593999997E+02  0.45594000000E+02  0.51100000000E-03 0.  1.
    9900012    2    1    2    0    0 -0.29534036246E+02  0.57498013242E+01 -0.31277845554E+02  0.47787272647E+02  0.20000007309E+02 0.  0.
         12    1    1    2    0    0  0.29534036246E+02 -0.57498013242E+01  0.31277845554E+02  0.43400727353E+02  0.00000000000E+00 0. -1.
         11    1    3    3    0    0 -0.12426642063E+01  0.63095493146E-01  0.78974372953E+00  0.14737336226E+01  0.51100000000E-03 0. -1.
        -11    1    3    3    0    0 -0.20959825990E+01  0.40879810267E+01 -0.13240187925E+02  0.14014539182E+02  0.51100000000E-03 0.  1.
        -12    1    3    3    0    0 -0.26195389440E+02  0.15987248044E+01 -0.18827401358E+02  0.32298999843E+02  0.00000000000E+00 0.  1.
</event>
<event>
 7    1  0.2647566E-010  0.4778727E+02  0.7816164E-02  0.1312668E+00
        -11   -1    0    0    0    0  0.00000000000E+00  0.00000000000E+00  0.45593999997E+02  0.45594000000E+02  0.51100000000E-03 0. -1.
         11   -1    0    0    0    0 -0.00000000000E+00 -0.00000000000E+00 -0.45593999997E+02  0.45594000000E+02  0.51100000000E-03 0.  1.
    9900012    2    1    2    0    0  0.18321212950E+01  0.10316587646E+02 -0.42116913367E+02  0.47787273732E+02  0.20000012252E+02 0.  0.
         12    1    1    2    0    0 -0.18321212950E+01 -0.10316587646E+02  0.42116913367E+02  0.43400726268E+02  0.00000000000E+00 0. -1.
         11    1    3    3    0    0 -0.46278495130E+01  0.17426174671E+01 -0.25793111928E+01  0.55773249181E+01  0.51100000000E-03 0. -1.
        -11    1    3    3    0    0 -0.27095594448E+01  0.26437745126E+01 -0.12129412703E+02  0.12706451465E+02  0.51100000000E-03 0.  1.
         12    1    3    3    0    0  0.91695302529E+01  0.59301956662E+01 -0.27408189471E+02  0.29503497348E+02  0.00000000000E+00 0. -1.
</event>
<event>
 7    1  0.2647566E-010  0.4778727E+02  0.7816164E-02  0.1312668E+00
        -11   -1    0    0    0    0  0.00000000000E+00  0.00000000000E+00  0.45593999997E+02  0.45594000000E+02  0.51100000000E-03 0.  1.
         11   -1    0    0    0    0 -0.00000000000E+00 -0.00000000000E+00 -0.45593999997E+02  0.45594000000E+02  0.51100000000E-03 0. -1.
    9900012    2    1    2    0    0  0.20467766294E+02 -0.20511050405E+02  0.32310846070E+02  0.47787269366E+02  0.19999992350E+02 0.  0.
         12    1    1    2    0    0 -0.20467766294E+02  0.20511050405E+02 -0.32310846070E+02  0.43400730634E+02  0.00000000000E+00 0. -1.
         11    1    3    3    0    0  0.35633684113E+01  0.14294645665E+01  0.66366795283E+01  0.76672341039E+01  0.51100000000E-03 0. -1.
        -11    1    3    3    0    0  0.12592896293E+02 -0.10307354720E+02  0.21636222658E+02  0.27073025866E+02  0.51100000000E-03 0.  1.
        -12    1    3    3    0    0  0.43115015895E+01 -0.11633160251E+02  0.40379438835E+01  0.13047009397E+02  0.00000000000E+00 0.  1.
</event>
<event>
 7    1  0.2654037E-010  0.4778727E+02  0.7816164E-02  0.1312668E+00
        -11   -1    0    0    0    0  0.00000000000E+00  0.00000000000E+00  0.45593999997E+02  0.45594000000E+02  0.51100000000E-03 0. -1.
         11   -1    0    0    0    0 -0.00000000000E+00 -0.00000000000E+00 -0.45593999997E+02  0.45594000000E+02  0.51100000000E-03 0.  1.
    9900012    2    1    2    0    0 -0.23208536517E+02  0.25325910412E+02 -0.26525181758E+02  0.47787272210E+02  0.20000005313E+02 0.  0.
         12    1    1    2    0    0  0.23208536517E+02 -0.25325910412E+02  0.26525181758E+02  0.43400727790E+02  0.00000000000E+00 0. -1.
         11    1    3    3    0    0 -0.80491510038E+01  0.11604536657E+02 -0.70963638499E+01  0.15805457382E+02  0.51100000000E-03 0. -1.
        -11    1    3    3    0    0 -0.11980155041E+02  0.15570877325E+02 -0.20248966183E+02  0.28213418212E+02  0.51100000000E-03 0.  1.
         12    1    3    3    0    0 -0.31792304726E+01 -0.18495035710E+01  0.82014827502E+00  0.37683966153E+01  0.00000000000E+00 0. -1.
</event>
<event>
 7    1  0.2647566E-010  0.4778727E+02  0.7816164E-02  0.1312668E+00
        -11   -1    0    0    0    0  0.00000000000E+00  0.00000000000E+00  0.45593999997E+02  0.45594000000E+02  0.51100000000E-03 0. -1.
         11   -1    0    0    0    0 -0.00000000000E+00 -0.00000000000E+00 -0.45593999997E+02  0.45594000000E+02  0.51100000000E-03 0.  1.
    9900012    2    1    2    0    0 -0.21910748258E+02  0.20795649095E+01 -0.37406119065E+02  0.47787271631E+02  0.20000002675E+02 0.  0.
         12    1    1    2    0    0  0.21910748258E+02 -0.20795649095E+01  0.37406119065E+02  0.43400728369E+02  0.00000000000E+00 0. -1.
         11    1    3    3    0    0  0.26605229548E+00 -0.27998700297E+01 -0.40767522882E+01  0.49527735147E+01  0.51100000000E-03 0. -1.
        -11    1    3    3    0    0 -0.18131044289E+02 -0.26698404605E+01 -0.23366591913E+02  0.29696134984E+02  0.51100000000E-03 0.  1.
         12    1    3    3    0    0 -0.40457562645E+01  0.75492753997E+01 -0.99627748642E+01  0.13138363133E+02  0.00000000000E+00 0. -1.
</event>
<event>
 7    1  0.2647566E-010  0.4778727E+02  0.7816164E-02  0.1312668E+00
        -11   -1    0    0    0    0  0.00000000000E+00  0.00000000000E+00  0.45593999997E+02  0.45594000000E+02  0.51100000000E-03 0.  1.
         11   -1    0    0    0    0 -0.00000000000E+00 -0.00000000000E+00 -0.45593999997E+02  0.45594000000E+02  0.51100000000E-03 0. -1.
    9900012    2    1    2    0    0 -0.68714637447E+01  0.12813839569E+02  0.40892687779E+02  0.47787269450E+02  0.19999992730E+02 0.  0.
         12    1    1    2    0    0  0.68714637447E+01 -0.12813839569E+02 -0.40892687779E+02  0.43400730550E+02  0.00000000000E+00 0. -1.
         11    1    3    3    0    0 -0.16410621443E+01 -0.15766592346E+01  0.76032503933E+01  0.79365204030E+01  0.51100000000E-03 0. -1.
        -11    1    3    3    0    0 -0.36076876306E+01 -0.23196766529E+01  0.11964618404E+02  0.12710169300E+02  0.51100000000E-03 0.  1.
        -12    1    3    3    0    0 -0.16227139698E+01  0.16710175456E+02  0.21324818982E+02  0.27140579747E+02  0.00000000000E+00 0.  1.
</event>
<event>
 7    1  0.2647566E-010  0.4778728E+02  0.7816164E-02  0.1312668E+00
        -11   -1    0    0    0    0  0.00000000000E+00  0.00000000000E+00  0.45593999997E+02  0.45594000000E+02  0.51100000000E-03 0.  1.
         11   -1    0    0    0    0 -0.00000000000E+00 -0.00000000000E+00 -0.45593999997E+02  0.45594000000E+02  0.51100000000E-03 0. -1.
    9900012    2    1    2    0    0 -0.35908805869E+02  0.14480074945E+02  0.19608864229E+02  0.47787280355E+02  0.20000042452E+02 0.  0.
         12    1    1    2    0    0  0.35908805869E+02 -0.14480074945E+02 -0.19608864229E+02  0.43400719645E+02  0.00000000000E+00 0. -1.
         11    1    3    3    0    0 -0.11462064834E+02  0.65957205251E+01  0.18898252625E-01  0.13224326709E+02  0.51100000000E-03 0. -1.
        -11    1    3    3    0    0 -0.23110334134E+02  0.71596188988E+01  0.12347466662E+02  0.27162614377E+02  0.51100000000E-03 0.  1.
        -12    1    3    3    0    0 -0.13364069001E+01  0.72473552152E+00  0.72424993141E+01  0.74003392688E+01  0.00000000000E+00 0.  1.
</event>
<event>
 7    1  0.2647566E-010  0.4778727E+02  0.7816164E-02  0.1312668E+00
        -11   -1    0    0    0    0  0.00000000000E+00  0.00000000000E+00  0.45593999997E+02  0.45594000000E+02  0.51100000000E-03 0. -1.
         11   -1    0    0    0    0 -0.00000000000E+00 -0.00000000000E+00 -0.45593999997E+02  0.45594000000E+02  0.51100000000E-03 0.  1.
    9900012    2    1    2    0    0  0.26993811605E+02  0.12707786375E+02 -0.31519353364E+02  0.47787270329E+02  0.19999996736E+02 0.  0.
         12    1    1    2    0    0 -0.26993811605E+02 -0.12707786375E+02  0.31519353364E+02  0.43400729671E+02  0.00000000000E+00 0. -1.
         11    1    3    3    0    0  0.13364958342E+02  0.17418101848E+01 -0.19633731959E+02  0.23814689692E+02  0.51100000000E-03 0. -1.
        -11    1    3    3    0    0  0.75292419811E+01 -0.79356976763E+00 -0.42539609114E+01  0.86842052879E+01  0.51100000000E-03 0.  1.
        -12    1    3    3    0    0  0.60996112816E+01  0.11759545958E+02 -0.76316604937E+01  0.15288375349E+02  0.00000000000E+00 0.  1.
</event>
<event>
 7    1  0.2647566E-010  0.4778731E+02  0.7816164E-02  0.1312668E+00
        -11   -1    0    0    0    0  0.00000000000E+00  0.00000000000E+00  0.45593999997E+02  0.45594000000E+02  0.51100000000E-03 0.  1.
         11   -1    0    0    0    0 -0.00000000000E+00 -0.00000000000E+00 -0.45593999997E+02  0.45594000000E+02  0.51100000000E-03 0. -1.
    9900012    2    1    2    0    0 -0.22579985428E+01 -0.31210097613E+02  0.30074094783E+02  0.47787309597E+02  0.20000175777E+02 0.  0.
         12    1    1    2    0    0  0.22579985428E+01  0.31210097613E+02 -0.30074094783E+02  0.43400690403E+02  0.00000000000E+00 0. -1.
         11    1    3    3    0    0  0.38282690709E+01 -0.71664736490E+01  0.13832509232E+02  0.16042203731E+02  0.51100000000E-03 0. -1.
        -11    1    3    3    0    0  0.33020748102E+00 -0.19109917679E+02  0.12424677770E+02  0.22796284974E+02  0.51100000000E-03 0.  1.
         12    1    3    3    0    0 -0.64164750947E+01 -0.49337062852E+01  0.38169077816E+01  0.89488208923E+01  0.00000000000E+00 0. -1.
</event>
<event>
 7    1  0.2647566E-010  0.4778726E+02  0.7816164E-02  0.1312668E+00
        -11   -1    0    0    0    0  0.00000000000E+00  0.00000000000E+00  0.45593999997E+02  0.45594000000E+02  0.51100000000E-03 0.  1.
         11   -1    0    0    0    0 -0.00000000000E+00 -0.00000000000E+00 -0.45593999997E+02  0.45594000000E+02  0.51100000000E-03 0. -1.
    9900012    2    1    2    0    0 -0.18252116483E+02 -0.13245129460E+02  0.37081676355E+02  0.47787263465E+02  0.19999965441E+02 0.  0.
         12    1    1    2    0    0  0.18252116483E+02  0.13245129460E+02 -0.37081676355E+02  0.43400736535E+02  0.00000000000E+00 0. -1.
         11    1    3    3    0    0 -0.59397323663E+01  0.18463286898E+01  0.15251994531E+02  0.16471572106E+02  0.51100000000E-03 0. -1.
        -11    1    3    3    0    0  0.21539070932E+00 -0.37944972690E+01  0.10039351786E+02  0.10734672199E+02  0.51100000000E-03 0.  1.
        -12    1    3    3    0    0 -0.12527774826E+02 -0.11296960881E+02  0.11790330038E+02  0.20581019159E+02  0.00000000000E+00 0.  1.
</event>
<event>
 7    1  0.2647566E-010  0.4778727E+02  0.7816164E-02  0.1312668E+00
        -11   -1    0    0    0    0  0.00000000000E+00  0.00000000000E+00  0.45593999997E+02  0.45594000000E+02  0.51100000000E-03 0.  1.
         11   -1    0    0    0    0 -0.00000000000E+00 -0.00000000000E+00 -0.45593999997E+02  0.45594000000E+02  0.51100000000E-03 0. -1.
    9900012    2    1    2    0    0  0.15685569191E+02 -0.26949367158E+02  0.30188042436E+02  0.47787269854E+02  0.19999994573E+02 0.  0.
         12    1    1    2    0    0 -0.15685569191E+02  0.26949367158E+02 -0.30188042436E+02  0.43400730146E+02  0.00000000000E+00 0. -1.
         11    1    3    3    0    0  0.97508804032E+01 -0.22775638465E+02  0.21318819031E+02  0.32684880622E+02  0.51100000000E-03 0. -1.
        -11    1    3    3    0    0  0.47898516967E+01 -0.73411568782E+01  0.71997196296E+01  0.11343334016E+02  0.51100000000E-03 0.  1.
        -12    1    3    3    0    0  0.11448370909E+01  0.31674281844E+01  0.16695037754E+01  0.37590552170E+01  0.00000000000E+00 0.  1.
</event>
<event>
 7    1  0.2647566E-010  0.4778727E+02  0.7816164E-02  0.1312668E+00
        -11   -1    0    0    0    0  0.00000000000E+00  0.00000000000E+00  0.45593999997E+02  0.45594000000E+02  0.51100000000E-03 0. -1.
         11   -1    0    0    0    0 -0.00000000000E+00 -0.00000000000E+00 -0.45593999997E+02  0.45594000000E+02  0.51100000000E-03 0.  1.
    9900012    2    1    2    0    0  0.47868714135E+01  0.30756250429E+02 -0.30245037027E+02  0.47787270246E+02  0.19999996361E+02 0.  0.
         12    1    1    2    0    0 -0.47868714135E+01 -0.30756250429E+02  0.30245037027E+02  0.43400729754E+02  0.00000000000E+00 0. -1.
         11    1    3    3    0    0  0.54358371812E+01  0.41689642112E+01 -0.80382024251E+01  0.10561310853E+02  0.51100000000E-03 0.  1.
        -11    1    3    3    0    0  0.22645848387E+01 -0.38335507514E+00 -0.38098680704E+01  0.44486403069E+01  0.51100000000E-03 0. -1.
        -12    1    3    3    0    0 -0.29135506064E+01  0.26970641293E+02 -0.18396966532E+02  0.32777319086E+02  0.00000000000E+00 0.  1.
</event>
<event>
 7    1  0.2647566E-010  0.4778727E+02  0.7816164E-02  0.1312668E+00
        -11   -1    0    0    0    0  0.00000000000E+00  0.00000000000E+00  0.45593999997E+02  0.45594000000E+02  0.51100000000E-03 0.  1.
         11   -1    0    0    0    0 -0.00000000000E+00 -0.00000000000E+00 -0.45593999997E+02  0.45594000000E+02  0.51100000000E-03 0. -1.
    9900012    2    1    2    0    0  0.13212555185E+02  0.15358118076E+02  0.38382024523E+02  0.47787271760E+02  0.20000003262E+02 0.  0.
         12    1    1    2    0    0 -0.13212555185E+02 -0.15358118076E+02 -0.38382024523E+02  0.43400728240E+02  0.00000000000E+00 0. -1.
         11    1    3    3    0    0  0.37338583545E+00  0.20059970436E+01  0.56077421185E+01  0.59674293502E+01  0.51100000000E-03 0. -1.
        -11    1    3    3    0    0  0.11727453046E+02  0.47851214376E+01  0.30288903257E+02  0.32830598576E+02  0.51100000000E-03 0.  1.
         12    1    3    3    0    0  0.11117163031E+01  0.85669995945E+01  0.24853791473E+01  0.89892438334E+01  0.00000000000E+00 0. -1.
</event>
<event>
 7    1  0.2647566E-010  0.4778727E+02  0.7816164E-02  0.1312668E+00
        -11   -1    0    0    0    0  0.00000000000E+00  0.00000000000E+00  0.45593999997E+02  0.45594000000E+02  0.51100000000E-03 0. -1.
         11   -1    0    0    0    0 -0.00000000000E+00 -0.00000000000E+00 -0.45593999997E+02  0.45594000000E+02  0.51100000000E-03 0.  1.
    9900012    2    1    2    0    0  0.14778135290E+02 -0.16308577385E+02 -0.37406687020E+02  0.47787271748E+02  0.20000003209E+02 0.  0.
         12    1    1    2    0    0 -0.14778135290E+02  0.16308577385E+02  0.37406687020E+02  0.43400728252E+02  0.00000000000E+00 0. -1.
         11    1    3    3    0    0  0.63305698652E+01 -0.65525902699E+00 -0.39543082576E+01  0.74927987607E+01  0.51100000000E-03 0. -1.
        -11    1    3    3    0    0 -0.27013454448E+01 -0.17134651006E+01 -0.11706190522E+01  0.34064026611E+01  0.51100000000E-03 0.  1.
        -12    1    3    3    0    0  0.11148910870E+02 -0.13939853258E+02 -0.32281759710E+02  0.36888070326E+02  0.00000000000E+00 0.  1.
</event>
<event>
 7    1  0.2647566E-010  0.4778726E+02  0.7816164E-02  0.1312668E+00
        -11   -1    0    0    0    0  0.00000000000E+00  0.00000000000E+00  0.45593999997E+02  0.45594000000E+02  0.51100000000E-03 0. -1.
         11   -1    0    0    0    0 -0.00000000000E+00 -0.00000000000E+00 -0.45593999997E+02  0.45594000000E+02  0.51100000000E-03 0.  1.
    9900012    2    1    2    0    0  0.32910236523E+02 -0.17472564529E+02  0.22254209434E+02  0.47787262486E+02  0.19999960978E+02 0.  0.
         12    1    1    2    0    0 -0.32910236523E+02  0.17472564529E+02 -0.22254209434E+02  0.43400737514E+02  0.00000000000E+00 0. -1.
         11    1    3    3    0    0  0.64986821114E-02 -0.75729773748E-01 -0.87452012573E-01  0.11586780021E+00  0.51100000000E-03 0. -1.
        -11    1    3    3    0    0  0.14187276702E+02 -0.78010458415E+01 -0.10371301105E+01  0.16223771928E+02  0.51100000000E-03 0.  1.
         12    1    3    3    0    0  0.18716461140E+02 -0.95957889137E+01  0.23378791557E+02  0.31447622758E+02  0.00000000000E+00 0. -1.
</event>
<event>
 7    1  0.2647566E-010  0.4778731E+02  0.7816164E-02  0.1312668E+00
        -11   -1    0    0    0    0  0.00000000000E+00  0.00000000000E+00  0.45593999997E+02  0.45594000000E+02  0.51100000000E-03 0. -1.
         11   -1    0    0    0    0 -0.00000000000E+00 -0.00000000000E+00 -0.45593999997E+02  0.45594000000E+02  0.51100000000E-03 0.  1.
    9900012    2    1    2    0    0  0.22717426363E+02  0.14640914495E+01 -0.36951244320E+02  0.47787314739E+02  0.20000199219E+02 0.  0.
         12    1    1    2    0    0 -0.22717426363E+02 -0.14640914495E+01  0.36951244320E+02  0.43400685261E+02  0.00000000000E+00 0. -1.
         11    1    3    3    0    0  0.30607216049E+01 -0.38232615777E+01 -0.10157678550E+02  0.11276691874E+02  0.51100000000E-03 0. -1.
        -11    1    3    3    0    0  0.24813384111E+01 -0.64897714504E+00 -0.14130636333E+02  0.14361514373E+02  0.51100000000E-03 0.  1.
        -12    1    3    3    0    0  0.17175366347E+02  0.59363301722E+01 -0.12662929438E+02  0.22149108492E+02  0.00000000000E+00 0.  1.
</event>
<event>
 7    1  0.2647566E-010  0.4778727E+02  0.7816164E-02  0.1312668E+00
        -11   -1    0    0    0    0  0.00000000000E+00  0.00000000000E+00  0.45593999997E+02  0.45594000000E+02  0.51100000000E-03 0.  1.
         11   -1    0    0    0    0 -0.00000000000E+00 -0.00000000000E+00 -0.45593999997E+02  0.45594000000E+02  0.51100000000E-03 0. -1.
    9900012    2    1    2    0    0 -0.37289403048E+02 -0.22772740286E+01  0.22089320546E+02  0.47787266840E+02  0.19999980829E+02 0.  0.
         12    1    1    2    0    0  0.37289403048E+02  0.22772740286E+01 -0.22089320546E+02  0.43400733160E+02  0.00000000000E+00 0. -1.
         11    1    3    3    0    0 -0.17728410705E+02  0.11786628742E+01  0.79564475382E+00  0.17785354737E+02  0.51100000000E-03 0. -1.
        -11    1    3    3    0    0 -0.93963400837E+01 -0.40394464621E+01  0.67716553577E+01  0.12266362592E+02  0.51100000000E-03 0.  1.
         12    1    3    3    0    0 -0.10164652259E+02  0.58350955926E+00  0.14522020434E+02  0.17735549511E+02  0.00000000000E+00 0. -1.
</event>
<event>
 7    1  0.2647566E-010  0.4778728E+02  0.7816164E-02  0.1312668E+00
        -11   -1    0    0    0    0  0.00000000000E+00  0.00000000000E+00  0.45593999997E+02  0.45594000000E+02  0.51100000000E-03 0.  1.
         11   -1    0    0    0    0 -0.00000000000E+00 -0.00000000000E+00 -0.45593999997E+02  0.45594000000E+02  0.51100000000E-03 0. -1.
    9900012    2    1    2    0    0  0.39589186400E+02 -0.48436063623E+01 -0.17113114794E+02  0.47787275348E+02  0.20000019621E+02 0.  0.
         12    1    1    2    0    0 -0.39589186400E+02  0.48436063623E+01  0.17113114794E+02  0.43400724652E+02  0.00000000000E+00 0. -1.
         11    1    3    3    0    0  0.63821366104E+01  0.25919323128E+01  0.22334697864E+01  0.72414203286E+01  0.51100000000E-03 0. -1.
        -11    1    3    3    0    0  0.15218521289E+01 -0.26066922607E+01 -0.39974406287E+01  0.50090328693E+01  0.51100000000E-03 0.  1.
        -12    1    3    3    0    0  0.31685197660E+02 -0.48288464143E+01 -0.15349143952E+02  0.35536822150E+02  0.00000000000E+00 0.  1.
</event>
<event>
 7    1  0.2647566E-010  0.4778727E+02  0.7816164E-02  0.1312668E+00
        -11   -1    0    0    0    0  0.00000000000E+00  0.00000000000E+00  0.45593999997E+02  0.45594000000E+02  0.51100000000E-03 0. -1.
         11   -1    0    0    0    0 -0.00000000000E+00 -0.00000000000E+00 -0.45593999997E+02  0.45594000000E+02  0.51100000000E-03 0.  1.
    9900012    2    1    2    0    0  0.22205778428E+02  0.13748529381E+02 -0.34662728719E+02  0.47787269384E+02  0.19999992430E+02 0.  0.
         12    1    1    2    0    0 -0.22205778428E+02 -0.13748529381E+02  0.34662728719E+02  0.43400730616E+02  0.00000000000E+00 0. -1.
         11    1    3    3    0    0  0.40459915686E+01  0.35661145011E+01 -0.70380075620E+01  0.88668354621E+01  0.51100000000E-03 0. -1.
        -11    1    3    3    0    0  0.97354405238E+01 -0.19210457639E+00 -0.22660594193E+02  0.24664108251E+02  0.51100000000E-03 0.  1.
         12    1    3    3    0    0  0.84243463357E+01  0.10374519456E+02 -0.49641269644E+01  0.14256325671E+02  0.00000000000E+00 0. -1.
</event>
<event>
 7    1  0.2647566E-010  0.4778727E+02  0.7816164E-02  0.1312668E+00
        -11   -1    0    0    0    0  0.00000000000E+00  0.00000000000E+00  0.45593999997E+02  0.45594000000E+02  0.51100000000E-03 0.  1.
         11   -1    0    0    0    0 -0.00000000000E+00 -0.00000000000E+00 -0.45593999997E+02  0.45594000000E+02  0.51100000000E-03 0. -1.
    9900012    2    1    2    0    0 -0.28617851121E+02 -0.21514205725E+02  0.24531227537E+02  0.47787267573E+02  0.19999984171E+02 0.  0.
         12    1    1    2    0    0  0.28617851121E+02  0.21514205725E+02 -0.24531227537E+02  0.43400732427E+02  0.00000000000E+00 0. -1.
         11    1    3    3    0    0 -0.86772522985E+01 -0.51577208618E+01 -0.11705128610E+01  0.10162031911E+02  0.51100000000E-03 0. -1.
        -11    1    3    3    0    0 -0.83618050438E+01 -0.13669039542E+01  0.67707383006E+01  0.10845787542E+02  0.51100000000E-03 0.  1.
        -12    1    3    3    0    0 -0.11578793779E+02 -0.14989580909E+02  0.18931002097E+02  0.26779448120E+02  0.00000000000E+00 0.  1.
</event>
<event>
 7    1  0.2647566E-010  0.4778727E+02  0.7816164E-02  0.1312668E+00
        -11   -1    0    0    0    0  0.00000000000E+00  0.00000000000E+00  0.45593999997E+02  0.45594000000E+02  0.51100000000E-03 0.  1.
         11   -1    0    0    0    0 -0.00000000000E+00 -0.00000000000E+00 -0.45593999997E+02  0.45594000000E+02  0.51100000000E-03 0. -1.
    9900012    2    1    2    0    0  0.18934541309E+02 -0.33223352323E+02  0.20525969698E+02  0.47787269290E+02  0.19999992000E+02 0.  0.
         12    1    1    2    0    0 -0.18934541309E+02  0.33223352323E+02 -0.20525969698E+02  0.43400730710E+02  0.00000000000E+00 0. -1.
         11    1    3    3    0    0  0.14873854167E+01 -0.20447286136E+01 -0.20774077788E+01  0.32724385131E+01  0.51100000000E-03 0. -1.
        -11    1    3    3    0    0  0.19630213079E+02 -0.30030496414E+02  0.21329174268E+02  0.41738587130E+02  0.51100000000E-03 0.  1.
         12    1    3    3    0    0 -0.21830571869E+01 -0.11481272947E+01  0.12742032097E+01  0.27762436467E+01  0.00000000000E+00 0. -1.
</event>
<event>
 7    1  0.2647566E-010  0.4778727E+02  0.7816164E-02  0.1312668E+00
        -11   -1    0    0    0    0  0.00000000000E+00  0.00000000000E+00  0.45593999997E+02  0.45594000000E+02  0.51100000000E-03 0.  1.
         11   -1    0    0    0    0 -0.00000000000E+00 -0.00000000000E+00 -0.45593999997E+02  0.45594000000E+02  0.51100000000E-03 0. -1.
    9900012    2    1    2    0    0  0.35377413415E+02  0.25072667686E+02 -0.18502564828E+01  0.47787268510E+02  0.19999988446E+02 0.  0.
         12    1    1    2    0    0 -0.35377413415E+02 -0.25072667686E+02  0.18502564828E+01  0.43400731490E+02  0.00000000000E+00 0. -1.
         11    1    3    3    0    0  0.22181272192E+01  0.94553489054E+00 -0.32445642554E+01  0.40424401119E+01  0.51100000000E-03 0. -1.
        -11    1    3    3    0    0  0.51132476192E+01  0.98882115924E+01  0.47693772164E+01  0.12110697296E+02  0.51100000000E-03 0.  1.
        -12    1    3    3    0    0  0.28046038576E+02  0.14238921203E+02 -0.33750694438E+01  0.31634131102E+02  0.00000000000E+00 0.  1.
</event>
<event>
 7    1  0.2647566E-010  0.4778727E+02  0.7816164E-02  0.1312668E+00
        -11   -1    0    0    0    0  0.00000000000E+00  0.00000000000E+00  0.45593999997E+02  0.45594000000E+02  0.51100000000E-03 0. -1.
         11   -1    0    0    0    0 -0.00000000000E+00 -0.00000000000E+00 -0.45593999997E+02  0.45594000000E+02  0.51100000000E-03 0.  1.
    9900012    2    1    2    0    0  0.36834442890E+02  0.66237098373E+01 -0.21976656458E+02  0.47787272540E+02  0.20000006819E+02 0.  0.
         12    1    1    2    0    0 -0.36834442890E+02 -0.66237098373E+01  0.21976656458E+02  0.43400727460E+02  0.00000000000E+00 0. -1.
         11    1    3    3    0    0  0.60459727032E+01 -0.29219076578E+01  0.54229855989E+00  0.67368700654E+01  0.51100000000E-03 0. -1.
        -11    1    3    3    0    0  0.29928561997E+01 -0.17617646467E+00 -0.73251071535E+01  0.79148860668E+01  0.51100000000E-03 0.  1.
        -12    1    3    3    0    0  0.27795613987E+02  0.97217939597E+01 -0.15193847864E+02  0.33135516408E+02  0.00000000000E+00 0.  1.
</event>
<event>
 7    1  0.2647566E-010  0.4778727E+02  0.7816164E-02  0.1312668E+00
        -11   -1    0    0    0    0  0.00000000000E+00  0.00000000000E+00  0.45593999997E+02  0.45594000000E+02  0.51100000000E-03 0. -1.
         11   -1    0    0    0    0 -0.00000000000E+00 -0.00000000000E+00 -0.45593999997E+02  0.45594000000E+02  0.51100000000E-03 0.  1.
    9900012    2    1    2    0    0  0.14616298657E+02 -0.39283365513E+02 -0.11260747301E+02  0.47787269335E+02  0.19999992207E+02 0.  0.
         12    1    1    2    0    0 -0.14616298657E+02  0.39283365513E+02  0.11260747301E+02  0.43400730665E+02  0.00000000000E+00 0. -1.
         11    1    3    3    0    0  0.22842047632E+01 -0.97453254009E+01 -0.11509302837E+02  0.15252967273E+02  0.51100000000E-03 0. -1.
        -11    1    3    3    0    0  0.29550050519E+01 -0.31841964893E+01  0.13235776123E+01  0.45412575456E+01  0.51100000000E-03 0.  1.
         12    1    3    3    0    0  0.93770888423E+01 -0.26353843623E+02 -0.10750220764E+01  0.27993044517E+02  0.00000000000E+00 0. -1.
</event>
<event>
 7    1  0.2647566E-010  0.4778727E+02  0.7816164E-02  0.1312668E+00
        -11   -1    0    0    0    0  0.00000000000E+00  0.00000000000E+00  0.45593999997E+02  0.45594000000E+02  0.51100000000E-03 0.  1.
         11   -1    0    0    0    0 -0.00000000000E+00 -0.00000000000E+00 -0.45593999997E+02  0.45594000000E+02  0.51100000000E-03 0. -1.
    9900012    2    1    2    0    0  0.67042159492E+01  0.37162031421E+02  0.21392988279E+02  0.47787273758E+02  0.20000012373E+02 0.  0.
         12    1    1    2    0    0 -0.67042159492E+01 -0.37162031421E+02 -0.21392988279E+02  0.43400726242E+02  0.00000000000E+00 0. -1.
         11    1    3    3    0    0  0.46610531831E+01  0.15635944275E+02  0.14177711013E+02  0.21615171986E+02  0.51100000000E-03 0. -1.
        -11    1    3    3    0    0  0.43018337067E+00  0.72218893139E+01  0.91316726318E+01  0.11650244131E+02  0.51100000000E-03 0.  1.
        -12    1    3    3    0    0  0.16129793955E+01  0.14304197832E+02 -0.19163953666E+01  0.14521857641E+02  0.00000000000E+00 0.  1.
</event>
<event>
 7    1  0.2647566E-010  0.4778728E+02  0.7816164E-02  0.1312668E+00
        -11   -1    0    0    0    0  0.00000000000E+00  0.00000000000E+00  0.45593999997E+02  0.45594000000E+02  0.51100000000E-03 0.  1.
         11   -1    0    0    0    0 -0.00000000000E+00 -0.00000000000E+00 -0.45593999997E+02  0.45594000000E+02  0.51100000000E-03 0. -1.
    9900012    2    1    2    0    0  0.32904201353E+02  0.18344124939E+02  0.21550621623E+02  0.47787277900E+02  0.20000031257E+02 0.  0.
         12    1    1    2    0    0 -0.32904201353E+02 -0.18344124939E+02 -0.21550621623E+02  0.43400722100E+02  0.00000000000E+00 0. -1.
         11    1    3    3    0    0 -0.14896769679E+01 -0.22739398813E+00  0.67823349674E+00  0.16525272862E+01  0.51100000000E-03 0. -1.
        -11    1    3    3    0    0  0.12563956832E+02  0.68313038759E+01  0.14871470463E+02  0.20632022633E+02  0.51100000000E-03 0.  1.
         12    1    3    3    0    0  0.21829921489E+02  0.11740215052E+02  0.60009176635E+01  0.25502727981E+02  0.00000000000E+00 0. -1.
</event>
<event>
 7    1  0.2647566E-010  0.4778727E+02  0.7816164E-02  0.1312668E+00
        -11   -1    0    0    0    0  0.00000000000E+00  0.00000000000E+00  0.45593999997E+02  0.45594000000E+02  0.51100000000E-03 0.  1.
         11   -1    0    0    0    0 -0.00000000000E+00 -0.00000000000E+00 -0.45593999997E+02  0.45594000000E+02  0.51100000000E-03 0. -1.
    9900012    2    1    2    0    0 -0.18181653107E+02 -0.28485208672E+02  0.27233144083E+02  0.47787265450E+02  0.19999974495E+02 0.  0.
         12    1    1    2    0    0  0.18181653107E+02  0.28485208672E+02 -0.27233144083E+02  0.43400734550E+02  0.00000000000E+00 0. -1.
         11    1    3    3    0    0  0.13682037646E-01 -0.15868424836E+00 -0.91862513577E+00  0.93233056907E+00  0.51100000000E-03 0. -1.
        -11    1    3    3    0    0 -0.68649798418E+01 -0.24512883893E+02  0.18086891149E+02  0.31227312671E+02  0.51100000000E-03 0.  1.
        -12    1    3    3    0    0 -0.11330355303E+02 -0.38136405311E+01  0.10064878069E+02  0.15627622210E+02  0.00000000000E+00 0.  1.
</event>
<event>
 7    1  0.2647566E-010  0.4778727E+02  0.7816164E-02  0.1312668E+00
        -11   -1    0    0    0    0  0.00000000000E+00  0.00000000000E+00  0.45593999997E+02  0.45594000000E+02  0.51100000000E-03 0.  1.
         11   -1    0    0    0    0 -0.00000000000E+00 -0.00000000000E+00 -0.45593999997E+02  0.45594000000E+02  0.51100000000E-03 0. -1.
    9900012    2    1    2    0    0  0.26856810236E+02 -0.21686298200E+02  0.26306647083E+02  0.47787268827E+02  0.19999989888E+02 0.  0.
         12    1    1    2    0    0 -0.26856810236E+02  0.21686298200E+02 -0.26306647083E+02  0.43400731173E+02  0.00000000000E+00 0. -1.
         11    1    3    3    0    0  0.15119612487E+02 -0.65997349189E+01  0.55566896647E+01  0.17407928741E+02  0.51100000000E-03 0. -1.
        -11    1    3    3    0    0  0.10854393666E+02 -0.57328942263E+01  0.14926294667E+02  0.19325584359E+02  0.51100000000E-03 0.  1.
        -12    1    3    3    0    0  0.88280408274E+00 -0.93536690549E+01  0.58236627515E+01  0.11053755727E+02  0.00000000000E+00 0.  1.
</event>
<event>
 7    1  0.2647566E-010  0.4778727E+02  0.7816164E-02  0.1312668E+00
        -11   -1    0    0    0    0  0.00000000000E+00  0.00000000000E+00  0.45593999997E+02  0.45594000000E+02  0.51100000000E-03 0.  1.
         11   -1    0    0    0    0 -0.00000000000E+00 -0.00000000000E+00 -0.45593999997E+02  0.45594000000E+02  0.51100000000E-03 0. -1.
    9900012    2    1    2    0    0 -0.12692898269E+02  0.18722837143E+01  0.41460921480E+02  0.47787272785E+02  0.20000007936E+02 0.  0.
         12    1    1    2    0    0  0.12692898269E+02 -0.18722837143E+01 -0.41460921480E+02  0.43400727215E+02  0.00000000000E+00 0. -1.
         11    1    3    3    0    0 -0.66645714563E+01 -0.15441158148E+01  0.14536096379E+02  0.16065456873E+02  0.51100000000E-03 0. -1.
        -11    1    3    3    0    0  0.20690384700E+01 -0.10095761192E+01  0.20132070035E+02  0.20263277334E+02  0.51100000000E-03 0.  1.
        -12    1    3    3    0    0 -0.80973652828E+01  0.44259756483E+01  0.67927550664E+01  0.11458538578E+02  0.00000000000E+00 0.  1.
</event>
<event>
 7    1  0.2647566E-010  0.4778727E+02  0.7816164E-02  0.1312668E+00
        -11   -1    0    0    0    0  0.00000000000E+00  0.00000000000E+00  0.45593999997E+02  0.45594000000E+02  0.51100000000E-03 0. -1.
         11   -1    0    0    0    0 -0.00000000000E+00 -0.00000000000E+00 -0.45593999997E+02  0.45594000000E+02  0.51100000000E-03 0.  1.
    9900012    2    1    2    0    0 -0.39529849821E+02  0.93114715945E+01 -0.15307203666E+02  0.47787274036E+02  0.20000013639E+02 0.  0.
         12    1    1    2    0    0  0.39529849821E+02 -0.93114715945E+01  0.15307203666E+02  0.43400725964E+02  0.00000000000E+00 0. -1.
         11    1    3    3    0    0 -0.32156821719E+01  0.17554635043E+01 -0.59456473833E+01  0.69837659621E+01  0.51100000000E-03 0. -1.
        -11    1    3    3    0    0 -0.15499071472E+02  0.97727602935E+01 -0.74641690445E+01  0.19784890195E+02  0.51100000000E-03 0.  1.
         12    1    3    3    0    0 -0.20815096177E+02 -0.22167522033E+01 -0.18973872383E+01  0.21018617878E+02  0.00000000000E+00 0. -1.
</event>
<event>
 7    1  0.2647566E-010  0.4778727E+02  0.7816164E-02  0.1312668E+00
        -11   -1    0    0    0    0  0.00000000000E+00  0.00000000000E+00  0.45593999997E+02  0.45594000000E+02  0.51100000000E-03 0.  1.
         11   -1    0    0    0    0 -0.00000000000E+00 -0.00000000000E+00 -0.45593999997E+02  0.45594000000E+02  0.51100000000E-03 0. -1.
    9900012    2    1    2    0    0 -0.36886643677E+02  0.20973428992E+02  0.91166921836E+01  0.47787270953E+02  0.19999999583E+02 0.  0.
         12    1    1    2    0    0  0.36886643677E+02 -0.20973428992E+02 -0.91166921836E+01  0.43400729047E+02  0.00000000000E+00 0. -1.
         11    1    3    3    0    0 -0.22411356451E+02  0.14848616268E+02 -0.32898479070E+01  0.27084560225E+02  0.51100000000E-03 0. -1.
        -11    1    3    3    0    0 -0.37014847817E+01 -0.66719027840E+00  0.20253538557E+01  0.42717901351E+01  0.51100000000E-03 0.  1.
         12    1    3    3    0    0 -0.10773802445E+02  0.67920030022E+01  0.10381186235E+02  0.16430920593E+02  0.00000000000E+00 0. -1.
</event>
<event>
 7    1  0.2647566E-010  0.4778728E+02  0.7816164E-02  0.1312668E+00
        -11   -1    0    0    0    0  0.00000000000E+00  0.00000000000E+00  0.45593999997E+02  0.45594000000E+02  0.51100000000E-03 0.  1.
         11   -1    0    0    0    0 -0.00000000000E+00 -0.00000000000E+00 -0.45593999997E+02  0.45594000000E+02  0.51100000000E-03 0. -1.
    9900012    2    1    2    0    0  0.36331269652E+02  0.17539488737E+02  0.16000851535E+02  0.47787284919E+02  0.20000063259E+02 0.  0.
         12    1    1    2    0    0 -0.36331269652E+02 -0.17539488737E+02 -0.16000851535E+02  0.43400715081E+02  0.00000000000E+00 0. -1.
         11    1    3    3    0    0  0.29686349391E+01  0.27566462380E+01 -0.38691092027E+01  0.56019548522E+01  0.51100000000E-03 0. -1.
        -11    1    3    3    0    0  0.77824945526E+01  0.67832131559E+01  0.68397837334E+01  0.12383934914E+02  0.51100000000E-03 0.  1.
         12    1    3    3    0    0  0.25580140161E+02  0.79996293433E+01  0.13030177004E+02  0.29801395152E+02  0.00000000000E+00 0. -1.
</event>
<event>
 7    1  0.2647566E-010  0.4778727E+02  0.7816164E-02  0.1312668E+00
        -11   -1    0    0    0    0  0.00000000000E+00  0.00000000000E+00  0.45593999997E+02  0.45594000000E+02  0.51100000000E-03 0. -1.
         11   -1    0    0    0    0 -0.00000000000E+00 -0.00000000000E+00 -0.45593999997E+02  0.45594000000E+02  0.51100000000E-03 0.  1.
    9900012    2    1    2    0    0 -0.72092016333E+01  0.40891806381E+02  0.12629749726E+02  0.47787274252E+02  0.20000014626E+02 0.  0.
         12    1    1    2    0    0  0.72092016333E+01 -0.40891806381E+02 -0.12629749726E+02  0.43400725748E+02  0.00000000000E+00 0. -1.
         11    1    3    3    0    0  0.40620018771E+00  0.13786814192E+02 -0.11094458267E+01  0.13837344921E+02  0.51100000000E-03 0. -1.
        -11    1    3    3    0    0  0.29763633645E+01  0.16677435618E+01  0.23048845784E+01  0.41173535974E+01  0.51100000000E-03 0.  1.
         12    1    3    3    0    0 -0.10591765186E+02  0.25437248627E+02  0.11434310974E+02  0.29832575734E+02  0.00000000000E+00 0. -1.
</event>
<event>
 7    1  0.2647566E-010  0.4778728E+02  0.7816164E-02  0.1312668E+00
        -11   -1    0    0    0    0  0.00000000000E+00  0.00000000000E+00  0.45593999997E+02  0.45594000000E+02  0.51100000000E-03 0. -1.
         11   -1    0    0    0    0 -0.00000000000E+00 -0.00000000000E+00 -0.45593999997E+02  0.45594000000E+02  0.51100000000E-03 0.  1.
    9900012    2    1    2    0    0 -0.37912825938E+02 -0.95078259674E+00 -0.21102995625E+02  0.47787276705E+02  0.20000025809E+02 0.  0.
         12    1    1    2    0    0  0.37912825938E+02  0.95078259674E+00  0.21102995625E+02  0.43400723295E+02  0.00000000000E+00 0. -1.
         11    1    3    3    0    0 -0.12488860237E+02 -0.55713451724E+01 -0.16161102214E+00  0.13676170350E+02  0.51100000000E-03 0. -1.
        -11    1    3    3    0    0 -0.99087179726E+01  0.22414450823E+01 -0.37431443755E+01  0.10826721479E+02  0.51100000000E-03 0.  1.
        -12    1    3    3    0    0 -0.15515247728E+02  0.23791174933E+01 -0.17198240228E+02  0.23284384876E+02  0.00000000000E+00 0.  1.
</event>
<event>
 7    1  0.2647566E-010  0.4778724E+02  0.7816164E-02  0.1312668E+00
        -11   -1    0    0    0    0  0.00000000000E+00  0.00000000000E+00  0.45593999997E+02  0.45594000000E+02  0.51100000000E-03 0.  1.
         11   -1    0    0    0    0 -0.00000000000E+00 -0.00000000000E+00 -0.45593999997E+02  0.45594000000E+02  0.51100000000E-03 0. -1.
    9900012    2    1    2    0    0  0.45745734463E+00 -0.29978219261E+02  0.31380297194E+02  0.47787240222E+02  0.19999859467E+02 0.  0.
         12    1    1    2    0    0 -0.45745734463E+00  0.29978219261E+02 -0.31380297194E+02  0.43400759778E+02  0.00000000000E+00 0. -1.
         11    1    3    3    0    0 -0.38261710040E+00 -0.31270376201E+00  0.25018007263E+01  0.25501346285E+01  0.51100000000E-03 0.  1.
        -11    1    3    3    0    0  0.78565450592E+00 -0.24118715933E+02  0.11004656389E+02  0.26522295786E+02  0.51100000000E-03 0. -1.
         12    1    3    3    0    0  0.54419939103E-01 -0.55467995668E+01  0.17873840079E+02  0.18714809808E+02  0.00000000000E+00 0. -1.
</event>
<event>
 7    1  0.2647566E-010  0.4778727E+02  0.7816164E-02  0.1312668E+00
        -11   -1    0    0    0    0  0.00000000000E+00  0.00000000000E+00  0.45593999997E+02  0.45594000000E+02  0.51100000000E-03 0.  1.
         11   -1    0    0    0    0 -0.00000000000E+00 -0.00000000000E+00 -0.45593999997E+02  0.45594000000E+02  0.51100000000E-03 0. -1.
    9900012    2    1    2    0    0  0.16080107771E+02  0.11629977047E+02  0.38597885431E+02  0.47787274294E+02  0.20000014818E+02 0.  0.
         12    1    1    2    0    0 -0.16080107771E+02 -0.11629977047E+02 -0.38597885431E+02  0.43400725706E+02  0.00000000000E+00 0. -1.
         11    1    3    3    0    0  0.12339276243E+02  0.12411443828E+02  0.26504864593E+02  0.31761761970E+02  0.51100000000E-03 0.  1.
        -11    1    3    3    0    0 -0.27729350842E+01  0.11801014584E+01  0.66926200970E+01  0.73398210099E+01  0.51100000000E-03 0. -1.
        -12    1    3    3    0    0  0.65137666128E+01 -0.19615682398E+01  0.54004007411E+01  0.86856913144E+01  0.00000000000E+00 0.  1.
</event>
<event>
 7    1  0.2647566E-010  0.4778727E+02  0.7816164E-02  0.1312668E+00
        -11   -1    0    0    0    0  0.00000000000E+00  0.00000000000E+00  0.45593999997E+02  0.45594000000E+02  0.51100000000E-03 0.  1.
         11   -1    0    0    0    0 -0.00000000000E+00 -0.00000000000E+00 -0.45593999997E+02  0.45594000000E+02  0.51100000000E-03 0. -1.
    9900012    2    1    2    0    0  0.33770834052E+01 -0.35113767255E+02  0.25283239375E+02  0.47787268020E+02  0.19999986208E+02 0.  0.
         12    1    1    2    0    0 -0.33770834052E+01  0.35113767255E+02 -0.25283239375E+02  0.43400731980E+02  0.00000000000E+00 0. -1.
         11    1    3    3    0    0  0.96056153550E+00 -0.32180043786E+01  0.87293039868E+00  0.34699046653E+01  0.51100000000E-03 0. -1.
        -11    1    3    3    0    0 -0.36801679112E+01 -0.17482975294E+02  0.35101053676E+01  0.18207660501E+02  0.51100000000E-03 0.  1.
        -12    1    3    3    0    0  0.60966897808E+01 -0.14412787582E+02  0.20900203609E+02  0.26109702853E+02  0.00000000000E+00 0.  1.
</event>
<event>
 7    1  0.2647566E-010  0.4778727E+02  0.7816164E-02  0.1312668E+00
        -11   -1    0    0    0    0  0.00000000000E+00  0.00000000000E+00  0.45593999997E+02  0.45594000000E+02  0.51100000000E-03 0. -1.
         11   -1    0    0    0    0 -0.00000000000E+00 -0.00000000000E+00 -0.45593999997E+02  0.45594000000E+02  0.51100000000E-03 0.  1.
    9900012    2    1    2    0    0 -0.17687642067E+02  0.21885280363E+02 -0.33042470312E+02  0.47787273937E+02  0.20000013188E+02 0.  0.
         12    1    1    2    0    0  0.17687642067E+02 -0.21885280363E+02  0.33042470312E+02  0.43400726063E+02  0.00000000000E+00 0. -1.
         11    1    3    3    0    0 -0.34074713896E+01  0.62392186356E+01 -0.27484225962E+00  0.71143691907E+01  0.51100000000E-03 0. -1.
        -11    1    3    3    0    0 -0.45782126049E+01  0.83001045515E+00 -0.17803964606E+01  0.49818430153E+01  0.51100000000E-03 0.  1.
        -12    1    3    3    0    0 -0.97019580728E+01  0.14816051273E+02 -0.30987231592E+02  0.35691061731E+02  0.00000000000E+00 0.  1.
</event>
<event>
 7    1  0.2647566E-010  0.4778728E+02  0.7816164E-02  0.1312668E+00
        -11   -1    0    0    0    0  0.00000000000E+00  0.00000000000E+00  0.45593999997E+02  0.45594000000E+02  0.51100000000E-03 0.  1.
         11   -1    0    0    0    0 -0.00000000000E+00 -0.00000000000E+00 -0.45593999997E+02  0.45594000000E+02  0.51100000000E-03 0. -1.
    9900012    2    1    2    0    0  0.41385683505E+02 -0.72674639978E+01  0.10864255671E+02  0.47787275543E+02  0.20000020510E+02 0.  0.
         12    1    1    2    0    0 -0.41385683505E+02  0.72674639978E+01 -0.10864255671E+02  0.43400724457E+02  0.00000000000E+00 0. -1.
         11    1    3    3    0    0  0.33364260228E+02 -0.90922563914E+01  0.13491318340E+02  0.37119518554E+02  0.51100000000E-03 0. -1.
        -11    1    3    3    0    0  0.41838661825E+01 -0.13642243867E+01  0.98296213131E+00  0.45091084732E+01  0.51100000000E-03 0.  1.
         12    1    3    3    0    0  0.38375570940E+01  0.31890167804E+01 -0.36100248005E+01  0.61586485153E+01  0.00000000000E+00 0. -1.
</event>
<event>
 7    1  0.2647566E-010  0.4778727E+02  0.7816164E-02  0.1312668E+00
        -11   -1    0    0    0    0  0.00000000000E+00  0.00000000000E+00  0.45593999997E+02  0.45594000000E+02  0.51100000000E-03 0.  1.
         11   -1    0    0    0    0 -0.00000000000E+00 -0.00000000000E+00 -0.45593999997E+02  0.45594000000E+02  0.51100000000E-03 0. -1.
    9900012    2    1    2    0    0  0.24158587304E+02  0.16272623164E+02 -0.32174329055E+02  0.47787273563E+02  0.20000011482E+02 0.  0.
         12    1    1    2    0    0 -0.24158587304E+02 -0.16272623164E+02  0.32174329055E+02  0.43400726437E+02  0.00000000000E+00 0. -1.
         11    1    3    3    0    0  0.16408578765E+02  0.13562076108E+02 -0.21871778741E+02  0.30521239670E+02  0.51100000000E-03 0. -1.
        -11    1    3    3    0    0  0.84560763363E+01  0.60508612742E+01 -0.83289168224E+01  0.13322499948E+02  0.51100000000E-03 0.  1.
         12    1    3    3    0    0 -0.70606779823E+00 -0.33403142182E+01 -0.19736334915E+01  0.39435339444E+01  0.00000000000E+00 0. -1.
</event>
<event>
 7    1  0.2647566E-010  0.4778726E+02  0.7816164E-02  0.1312668E+00
        -11   -1    0    0    0    0  0.00000000000E+00  0.00000000000E+00  0.45593999997E+02  0.45594000000E+02  0.51100000000E-03 0.  1.
         11   -1    0    0    0    0 -0.00000000000E+00 -0.00000000000E+00 -0.45593999997E+02  0.45594000000E+02  0.51100000000E-03 0. -1.
    9900012    2    1    2    0    0 -0.28835770487E+02  0.12402090072E+02  0.29971827424E+02  0.47787263406E+02  0.19999965175E+02 0.  0.
         12    1    1    2    0    0  0.28835770487E+02 -0.12402090072E+02 -0.29971827424E+02  0.43400736594E+02  0.00000000000E+00 0. -1.
         11    1    3    3    0    0 -0.11382103342E+02 -0.10482910409E+01  0.42598908955E+01  0.12198272882E+02  0.51100000000E-03 0. -1.
        -11    1    3    3    0    0 -0.15206112102E+02  0.54557266232E+01  0.18771169056E+02  0.24765855250E+02  0.51100000000E-03 0.  1.
         12    1    3    3    0    0 -0.22475550428E+01  0.79946544895E+01  0.69407674723E+01  0.10823135275E+02  0.00000000000E+00 0. -1.
</event>
<event>
 7    1  0.2647566E-010  0.4778728E+02  0.7816164E-02  0.1312668E+00
        -11   -1    0    0    0    0  0.00000000000E+00  0.00000000000E+00  0.45593999997E+02  0.45594000000E+02  0.51100000000E-03 0.  1.
         11   -1    0    0    0    0 -0.00000000000E+00 -0.00000000000E+00 -0.45593999997E+02  0.45594000000E+02  0.51100000000E-03 0. -1.
    9900012    2    1    2    0    0 -0.32257890498E+01  0.25247592481E+02  0.35153608598E+02  0.47787276060E+02  0.20000022868E+02 0.  0.
         12    1    1    2    0    0  0.32257890498E+01 -0.25247592481E+02 -0.35153608598E+02  0.43400723940E+02  0.00000000000E+00 0. -1.
         11    1    3    3    0    0 -0.20010351466E+00  0.76939548922E+01  0.13314415751E+02  0.15378902768E+02  0.51100000000E-03 0. -1.
        -11    1    3    3    0    0 -0.24333852524E+00  0.10085208134E+02  0.22247661414E+02  0.24428038713E+02  0.51100000000E-03 0.  1.
         12    1    3    3    0    0 -0.27823470099E+01  0.74684294551E+01 -0.40846856753E+00  0.79803345782E+01  0.00000000000E+00 0. -1.
</event>
<event>
 7    1  0.2647566E-010  0.4778727E+02  0.7816164E-02  0.1312668E+00
        -11   -1    0    0    0    0  0.00000000000E+00  0.00000000000E+00  0.45593999997E+02  0.45594000000E+02  0.51100000000E-03 0.  1.
         11   -1    0    0    0    0 -0.00000000000E+00 -0.00000000000E+00 -0.45593999997E+02  0.45594000000E+02  0.51100000000E-03 0. -1.
    9900012    2    1    2    0    0 -0.34399128517E+02  0.51791680156E+01  0.25951875818E+02  0.47787266336E+02  0.19999978533E+02 0.  0.
         12    1    1    2    0    0  0.34399128517E+02 -0.51791680156E+01 -0.25951875818E+02  0.43400733664E+02  0.00000000000E+00 0. -1.
         11    1    3    3    0    0 -0.58235975604E+01  0.10009491787E+01 -0.24842350529E+01  0.64099619237E+01  0.51100000000E-03 0.  1.
        -11    1    3    3    0    0 -0.17310751697E+00 -0.11158734472E+01  0.14948477843E+01  0.18734219818E+01  0.51100000000E-03 0. -1.
        -12    1    3    3    0    0 -0.28402423440E+02  0.52940922840E+01  0.26941263087E+02  0.39503882431E+02  0.00000000000E+00 0.  1.
</event>
<event>
 7    1  0.2906289E-010  0.4778727E+02  0.7816164E-02  0.1312668E+00
        -11   -1    0    0    0    0  0.00000000000E+00  0.00000000000E+00  0.45593999997E+02  0.45594000000E+02  0.51100000000E-03 0. -1.
         11   -1    0    0    0    0 -0.00000000000E+00 -0.00000000000E+00 -0.45593999997E+02  0.45594000000E+02  0.51100000000E-03 0.  1.
    9900012    2    1    2    0    0 -0.30818913582E+00 -0.12297415661E+02 -0.41620932297E+02  0.47787269387E+02  0.19999992444E+02 0.  0.
         12    1    1    2    0    0  0.30818913582E+00  0.12297415661E+02  0.41620932297E+02  0.43400730613E+02  0.00000000000E+00 0. -1.
         11    1    3    3    0    0  0.49040959737E+01 -0.27654575107E+01 -0.61674669763E+01  0.83507821028E+01  0.51100000000E-03 0. -1.
        -11    1    3    3    0    0 -0.30662918425E+01 -0.11119689256E+02 -0.15583558464E+02  0.19388061519E+02  0.51100000000E-03 0.  1.
        -12    1    3    3    0    0 -0.21459932670E+01  0.15877311063E+01 -0.19869906856E+02  0.20048425765E+02  0.00000000000E+00 0.  1.
</event>
<event>
 7    1  0.2647566E-010  0.4778727E+02  0.7816164E-02  0.1312668E+00
        -11   -1    0    0    0    0  0.00000000000E+00  0.00000000000E+00  0.45593999997E+02  0.45594000000E+02  0.51100000000E-03 0. -1.
         11   -1    0    0    0    0 -0.00000000000E+00 -0.00000000000E+00 -0.45593999997E+02  0.45594000000E+02  0.51100000000E-03 0.  1.
    9900012    2    1    2    0    0  0.93854997820E+01 -0.18062280259E+02 -0.38331315636E+02  0.47787270366E+02  0.19999996908E+02 0.  0.
         12    1    1    2    0    0 -0.93854997820E+01  0.18062280259E+02  0.38331315636E+02  0.43400729634E+02  0.00000000000E+00 0. -1.
         11    1    3    3    0    0  0.10246549867E+02 -0.27425176889E+01 -0.75585527350E+01  0.13024780504E+02  0.51100000000E-03 0.  1.
        -11    1    3    3    0    0 -0.77235837050E+00 -0.19998661126E+01 -0.88868805715E+01  0.91418077247E+01  0.51100000000E-03 0. -1.
        -12    1    3    3    0    0 -0.88691714772E-01 -0.13319896458E+02 -0.21885882330E+02  0.25620682138E+02  0.00000000000E+00 0.  1.
</event>
<event>
 7    1  0.2647566E-010  0.4778728E+02  0.7816164E-02  0.1312668E+00
        -11   -1    0    0    0    0  0.00000000000E+00  0.00000000000E+00  0.45593999997E+02  0.45594000000E+02  0.51100000000E-03 0. -1.
         11   -1    0    0    0    0 -0.00000000000E+00 -0.00000000000E+00 -0.45593999997E+02  0.45594000000E+02  0.51100000000E-03 0.  1.
    9900012    2    1    2    0    0 -0.22765544551E+02 -0.34222255833E+02 -0.13935207431E+02  0.47787276283E+02  0.20000023887E+02 0.  0.
         12    1    1    2    0    0  0.22765544551E+02  0.34222255833E+02  0.13935207431E+02  0.43400723717E+02  0.00000000000E+00 0. -1.
         11    1    3    3    0    0 -0.23806747692E+01 -0.10370657423E+02 -0.31532666247E+01  0.11097803314E+02  0.51100000000E-03 0. -1.
        -11    1    3    3    0    0 -0.22480247475E+02 -0.23549542309E+02 -0.11382031472E+02  0.34489028838E+02  0.51100000000E-03 0.  1.
         12    1    3    3    0    0  0.20953776933E+01 -0.30205610120E+00  0.60009066646E+00  0.22004441310E+01  0.00000000000E+00 0. -1.
</event>
<event>
 7    1  0.2647566E-010  0.4778727E+02  0.7816164E-02  0.1312668E+00
        -11   -1    0    0    0    0  0.00000000000E+00  0.00000000000E+00  0.45593999997E+02  0.45594000000E+02  0.51100000000E-03 0.  1.
         11   -1    0    0    0    0 -0.00000000000E+00 -0.00000000000E+00 -0.45593999997E+02  0.45594000000E+02  0.51100000000E-03 0. -1.
    9900012    2    1    2    0    0 -0.43879371059E+01  0.12068220162E+01  0.43161475307E+02  0.47787270028E+02  0.19999995365E+02 0.  0.
         12    1    1    2    0    0  0.43879371059E+01 -0.12068220162E+01 -0.43161475307E+02  0.43400729972E+02  0.00000000000E+00 0. -1.
         11    1    3    3    0    0 -0.27684969772E+01 -0.66766401050E+00 -0.64193821687E+00  0.29193210990E+01  0.51100000000E-03 0. -1.
        -11    1    3    3    0    0 -0.34551536498E+01  0.95558574284E+00  0.58635432074E+01  0.68725810335E+01  0.51100000000E-03 0.  1.
        -12    1    3    3    0    0  0.18357135211E+01  0.91890028386E+00  0.37939870317E+02  0.37995367895E+02  0.00000000000E+00 0.  1.
</event>
<event>
 7    1  0.2647566E-010  0.4778728E+02  0.7816164E-02  0.1312668E+00
        -11   -1    0    0    0    0  0.00000000000E+00  0.00000000000E+00  0.45593999997E+02  0.45594000000E+02  0.51100000000E-03 0.  1.
         11   -1    0    0    0    0 -0.00000000000E+00 -0.00000000000E+00 -0.45593999997E+02  0.45594000000E+02  0.51100000000E-03 0. -1.
    9900012    2    1    2    0    0  0.13995780965E+02 -0.40032748508E+02  0.92260232470E+01  0.47787281770E+02  0.20000048902E+02 0.  0.
         12    1    1    2    0    0 -0.13995780965E+02  0.40032748508E+02 -0.92260232470E+01  0.43400718230E+02  0.00000000000E+00 0. -1.
         11    1    3    3    0    0 -0.64176188267E+00 -0.22637674343E+01 -0.11181307495E+01  0.26051329994E+01  0.51100000000E-03 0. -1.
        -11    1    3    3    0    0  0.15524270408E+02 -0.17924779733E+02  0.25727253856E+01  0.23852035895E+02  0.51100000000E-03 0.  1.
         12    1    3    3    0    0 -0.88672755991E+00 -0.19844201341E+02  0.77714286108E+01  0.21330112875E+02  0.00000000000E+00 0. -1.
</event>
<event>
 7    1  0.2647566E-010  0.4778727E+02  0.7816164E-02  0.1312668E+00
        -11   -1    0    0    0    0  0.00000000000E+00  0.00000000000E+00  0.45593999997E+02  0.45594000000E+02  0.51100000000E-03 0. -1.
         11   -1    0    0    0    0 -0.00000000000E+00 -0.00000000000E+00 -0.45593999997E+02  0.45594000000E+02  0.51100000000E-03 0.  1.
    9900012    2    1    2    0    0  0.21317009560E+02  0.26311651618E+02 -0.27145996759E+02  0.47787273653E+02  0.20000011892E+02 0.  0.
         12    1    1    2    0    0 -0.21317009560E+02 -0.26311651618E+02  0.27145996759E+02  0.43400726347E+02  0.00000000000E+00 0. -1.
         11    1    3    3    0    0  0.30818361321E+01  0.98166925339E+01 -0.87752132053E+01  0.13522926211E+02  0.51100000000E-03 0. -1.
        -11    1    3    3    0    0  0.44395197183E+01  0.13967573723E+02 -0.71732560016E+01  0.16317415634E+02  0.51100000000E-03 0.  1.
        -12    1    3    3    0    0  0.13795653709E+02  0.25273853610E+01 -0.11197527552E+02  0.17946931808E+02  0.00000000000E+00 0.  1.
</event>
<event>
 7    1  0.2647566E-010  0.4778733E+02  0.7816164E-02  0.1312667E+00
        -11   -1    0    0    0    0  0.00000000000E+00  0.00000000000E+00  0.45593999997E+02  0.45594000000E+02  0.51100000000E-03 0.  1.
         11   -1    0    0    0    0 -0.00000000000E+00 -0.00000000000E+00 -0.45593999997E+02  0.45594000000E+02  0.51100000000E-03 0. -1.
    9900012    2    1    2    0    0 -0.13598213201E+01  0.31584244178E+02  0.29735574264E+02  0.47787332135E+02  0.20000278534E+02 0.  0.
         12    1    1    2    0    0  0.13598213201E+01 -0.31584244178E+02 -0.29735574264E+02  0.43400667865E+02  0.00000000000E+00 0. -1.
         11    1    3    3    0    0 -0.75070933711E+01  0.68768382219E+01  0.68703053158E+01  0.12282037706E+02  0.51100000000E-03 0. -1.
        -11    1    3    3    0    0  0.17382704460E+00  0.31499491935E+01 -0.45869109419E+00  0.31879136664E+01  0.51100000000E-03 0.  1.
        -12    1    3    3    0    0  0.59734450065E+01  0.21557456763E+02  0.23323960042E+02  0.32317380763E+02  0.00000000000E+00 0.  1.
</event>
<event>
 7    1  0.2647566E-010  0.4778727E+02  0.7816164E-02  0.1312668E+00
        -11   -1    0    0    0    0  0.00000000000E+00  0.00000000000E+00  0.45593999997E+02  0.45594000000E+02  0.51100000000E-03 0.  1.
         11   -1    0    0    0    0 -0.00000000000E+00 -0.00000000000E+00 -0.45593999997E+02  0.45594000000E+02  0.51100000000E-03 0. -1.
    9900012    2    1    2    0    0 -0.11999201842E+02  0.18419407633E+02  0.37421489177E+02  0.47787271035E+02  0.19999999959E+02 0.  0.
         12    1    1    2    0    0  0.11999201842E+02 -0.18419407633E+02 -0.37421489177E+02  0.43400728965E+02  0.00000000000E+00 0. -1.
         11    1    3    3    0    0 -0.71026269874E+00  0.33278828118E+01  0.82087455564E+01  0.88861004372E+01  0.51100000000E-03 0. -1.
        -11    1    3    3    0    0 -0.17782873653E+01  0.75633872534E+01  0.24808654943E+02  0.25996855445E+02  0.51100000000E-03 0.  1.
         12    1    3    3    0    0 -0.95106517778E+01  0.75281375681E+01  0.44040886779E+01  0.12904315153E+02  0.00000000000E+00 0. -1.
</event>
<event>
 7    1  0.2647566E-010  0.4778727E+02  0.7816164E-02  0.1312668E+00
        -11   -1    0    0    0    0  0.00000000000E+00  0.00000000000E+00  0.45593999997E+02  0.45594000000E+02  0.51100000000E-03 0.  1.
         11   -1    0    0    0    0 -0.00000000000E+00 -0.00000000000E+00 -0.45593999997E+02  0.45594000000E+02  0.51100000000E-03 0. -1.
    9900012    2    1    2    0    0  0.79729021576E+01 -0.19787732541E+02  0.37795528572E+02  0.47787268347E+02  0.19999987702E+02 0.  0.
         12    1    1    2    0    0 -0.79729021576E+01  0.19787732541E+02 -0.37795528572E+02  0.43400731653E+02  0.00000000000E+00 0. -1.
         11    1    3    3    0    0  0.16915125385E+01 -0.13116772230E+02  0.12948809958E+02  0.18508987222E+02  0.51100000000E-03 0. -1.
        -11    1    3    3    0    0 -0.25524265236E-01 -0.62634936517E+01  0.20920348596E+02  0.21837879701E+02  0.51100000000E-03 0.  1.
         12    1    3    3    0    0  0.63069138844E+01 -0.40746665893E+00  0.39263700190E+01  0.74404014239E+01  0.00000000000E+00 0. -1.
</event>
<event>
 7    1  0.2647566E-010  0.4778727E+02  0.7816164E-02  0.1312668E+00
        -11   -1    0    0    0    0  0.00000000000E+00  0.00000000000E+00  0.45593999997E+02  0.45594000000E+02  0.51100000000E-03 0.  1.
         11   -1    0    0    0    0 -0.00000000000E+00 -0.00000000000E+00 -0.45593999997E+02  0.45594000000E+02  0.51100000000E-03 0. -1.
    9900012    2    1    2    0    0 -0.26544194550E+02  0.26328511789E+02  0.22041740293E+02  0.47787272904E+02  0.20000008478E+02 0.  0.
         12    1    1    2    0    0  0.26544194550E+02 -0.26328511789E+02 -0.22041740293E+02  0.43400727096E+02  0.00000000000E+00 0. -1.
         11    1    3    3    0    0 -0.41154962663E+01  0.11557210775E+02 -0.13031950861E-01  0.12268113160E+02  0.51100000000E-03 0. -1.
        -11    1    3    3    0    0 -0.16644887702E+01 -0.70750147750E+00  0.65661165385E+00  0.19241154674E+01  0.51100000000E-03 0.  1.
        -12    1    3    3    0    0 -0.20764209513E+02  0.15478802491E+02  0.21398160590E+02  0.33595044276E+02  0.00000000000E+00 0.  1.
</event>
<event>
 7    1  0.2647566E-010  0.4778727E+02  0.7816164E-02  0.1312668E+00
        -11   -1    0    0    0    0  0.00000000000E+00  0.00000000000E+00  0.45593999997E+02  0.45594000000E+02  0.51100000000E-03 0.  1.
         11   -1    0    0    0    0 -0.00000000000E+00 -0.00000000000E+00 -0.45593999997E+02  0.45594000000E+02  0.51100000000E-03 0. -1.
    9900012    2    1    2    0    0 -0.33389593970E+02  0.33350626333E+01  0.27525190162E+02  0.47787265885E+02  0.19999976478E+02 0.  0.
         12    1    1    2    0    0  0.33389593970E+02 -0.33350626333E+01 -0.27525190162E+02  0.43400734115E+02  0.00000000000E+00 0. -1.
         11    1    3    3    0    0 -0.82697991826E+01  0.24377125229E+01  0.14410342006E+02  0.16792557216E+02  0.51100000000E-03 0. -1.
        -11    1    3    3    0    0 -0.51681897386E+01 -0.44107876574E+01  0.62659459318E+01  0.92426896310E+01  0.51100000000E-03 0.  1.
         12    1    3    3    0    0 -0.19951605048E+02  0.53081377678E+01  0.68489022242E+01  0.21752019038E+02  0.00000000000E+00 0. -1.
</event>
<event>
 7    1  0.2647566E-010  0.4778727E+02  0.7816164E-02  0.1312668E+00
        -11   -1    0    0    0    0  0.00000000000E+00  0.00000000000E+00  0.45593999997E+02  0.45594000000E+02  0.51100000000E-03 0. -1.
         11   -1    0    0    0    0 -0.00000000000E+00 -0.00000000000E+00 -0.45593999997E+02  0.45594000000E+02  0.51100000000E-03 0.  1.
    9900012    2    1    2    0    0 -0.26325554342E+02 -0.32798325575E+02 -0.10717199663E+02  0.47787270276E+02  0.19999996495E+02 0.  0.
         12    1    1    2    0    0  0.26325554342E+02  0.32798325575E+02  0.10717199663E+02  0.43400729724E+02  0.00000000000E+00 0. -1.
         11    1    3    3    0    0 -0.39045500500E+01 -0.10045607634E+02 -0.61307610954E+01  0.12399434491E+02  0.51100000000E-03 0. -1.
        -11    1    3    3    0    0 -0.78873076893E+01 -0.14839591898E+02 -0.78049791832E+01  0.18529457915E+02  0.51100000000E-03 0.  1.
         12    1    3    3    0    0 -0.14533696603E+02 -0.79131260433E+01  0.32185406157E+01  0.16858377870E+02  0.00000000000E+00 0. -1.
</event>
<event>
 7    1  0.2647566E-010  0.4778727E+02  0.7816164E-02  0.1312668E+00
        -11   -1    0    0    0    0  0.00000000000E+00  0.00000000000E+00  0.45593999997E+02  0.45594000000E+02  0.51100000000E-03 0.  1.
         11   -1    0    0    0    0 -0.00000000000E+00 -0.00000000000E+00 -0.45593999997E+02  0.45594000000E+02  0.51100000000E-03 0. -1.
    9900012    2    1    2    0    0 -0.10602130978E+02  0.21621789603E+02  0.36107011250E+02  0.47787271570E+02  0.20000002395E+02 0.  0.
         12    1    1    2    0    0  0.10602130978E+02 -0.21621789603E+02 -0.36107011250E+02  0.43400728430E+02  0.00000000000E+00 0. -1.
         11    1    3    3    0    0 -0.14858283292E+01  0.95034466013E+00  0.99632908606E+00  0.20257128882E+01  0.51100000000E-03 0. -1.
        -11    1    3    3    0    0 -0.36321199835E+00  0.17290947145E+02  0.12673075610E+02  0.21440979964E+02  0.51100000000E-03 0.  1.
        -12    1    3    3    0    0 -0.87530906507E+01  0.33804977971E+01  0.22437606554E+02  0.24320578718E+02  0.00000000000E+00 0.  1.
</event>
<event>
 7    1  0.2647566E-010  0.4778727E+02  0.7816164E-02  0.1312668E+00
        -11   -1    0    0    0    0  0.00000000000E+00  0.00000000000E+00  0.45593999997E+02  0.45594000000E+02  0.51100000000E-03 0.  1.
         11   -1    0    0    0    0 -0.00000000000E+00 -0.00000000000E+00 -0.45593999997E+02  0.45594000000E+02  0.51100000000E-03 0. -1.
    9900012    2    1    2    0    0 -0.55510587626E+01 -0.15667368868E+02  0.40091676810E+02  0.47787271319E+02  0.20000001250E+02 0.  0.
         12    1    1    2    0    0  0.55510587626E+01  0.15667368868E+02 -0.40091676810E+02  0.43400728681E+02  0.00000000000E+00 0. -1.
         11    1    3    3    0    0 -0.15512644257E+01  0.21156747651E+01  0.50525030957E+01  0.56930034975E+01  0.51100000000E-03 0. -1.
        -11    1    3    3    0    0 -0.36366100304E+01 -0.12361993705E+02  0.34262918548E+02  0.36605893085E+02  0.51100000000E-03 0.  1.
        -12    1    3    3    0    0 -0.36318430647E+00 -0.54210499277E+01  0.77625516678E+00  0.54883747360E+01  0.00000000000E+00 0.  1.
</event>
<event>
 7    1  0.2647566E-010  0.4778727E+02  0.7816164E-02  0.1312668E+00
        -11   -1    0    0    0    0  0.00000000000E+00  0.00000000000E+00  0.45593999997E+02  0.45594000000E+02  0.51100000000E-03 0.  1.
         11   -1    0    0    0    0 -0.00000000000E+00 -0.00000000000E+00 -0.45593999997E+02  0.45594000000E+02  0.51100000000E-03 0. -1.
    9900012    2    1    2    0    0  0.17955051806E+02 -0.26034941434E+02  0.29722408463E+02  0.47787266992E+02  0.19999981522E+02 0.  0.
         12    1    1    2    0    0 -0.17955051806E+02  0.26034941434E+02 -0.29722408463E+02  0.43400733008E+02  0.00000000000E+00 0. -1.
         11    1    3    3    0    0 -0.10828262112E+01  0.91135445541E+00 -0.63382220674E+00  0.15507451105E+01  0.51100000000E-03 0. -1.
        -11    1    3    3    0    0  0.89074940273E+01 -0.41598197325E+01  0.69866009746E+01  0.12060685863E+02  0.51100000000E-03 0.  1.
         12    1    3    3    0    0  0.10130383990E+02 -0.22786476157E+02  0.23369629695E+02  0.34175836018E+02  0.00000000000E+00 0. -1.
</event>
<event>
 7    1  0.2647566E-010  0.4778727E+02  0.7816164E-02  0.1312668E+00
        -11   -1    0    0    0    0  0.00000000000E+00  0.00000000000E+00  0.45593999997E+02  0.45594000000E+02  0.51100000000E-03 0. -1.
         11   -1    0    0    0    0 -0.00000000000E+00 -0.00000000000E+00 -0.45593999997E+02  0.45594000000E+02  0.51100000000E-03 0.  1.
    9900012    2    1    2    0    0 -0.42561628603E+02 -0.40026449514E+01 -0.74906545406E+01  0.47787270728E+02  0.19999998556E+02 0.  0.
         12    1    1    2    0    0  0.42561628603E+02  0.40026449514E+01  0.74906545406E+01  0.43400729272E+02  0.00000000000E+00 0. -1.
         11    1    3    3    0    0 -0.54215860200E+01 -0.86644865001E+00  0.14920665727E+01  0.56895158980E+01  0.51100000000E-03 0. -1.
        -11    1    3    3    0    0 -0.18832639994E+02 -0.35890569977E+01 -0.13236638530E+02  0.23297172771E+02  0.51100000000E-03 0.  1.
        -12    1    3    3    0    0 -0.18307402589E+02  0.45286069630E+00  0.42539174172E+01  0.18800582059E+02  0.00000000000E+00 0.  1.
</event>
<event>
 7    1  0.2647566E-010  0.4778727E+02  0.7816164E-02  0.1312668E+00
        -11   -1    0    0    0    0  0.00000000000E+00  0.00000000000E+00  0.45593999997E+02  0.45594000000E+02  0.51100000000E-03 0. -1.
         11   -1    0    0    0    0 -0.00000000000E+00 -0.00000000000E+00 -0.45593999997E+02  0.45594000000E+02  0.51100000000E-03 0.  1.
    9900012    2    1    2    0    0  0.29639508898E+00  0.41501023912E+02 -0.12696480028E+02  0.47787269120E+02  0.19999991227E+02 0.  0.
         12    1    1    2    0    0 -0.29639508898E+00 -0.41501023912E+02  0.12696480028E+02  0.43400730880E+02  0.00000000000E+00 0. -1.
         11    1    3    3    0    0  0.71251831858E+00  0.46685427588E+01  0.17995656552E+01  0.50538510715E+01  0.51100000000E-03 0. -1.
        -11    1    3    3    0    0  0.24695686977E+01  0.13917571166E+02 -0.13607499510E+02  0.19620438320E+02  0.51100000000E-03 0.  1.
        -12    1    3    3    0    0 -0.28856919273E+01  0.22914909987E+02 -0.88854617358E+00  0.23112979728E+02  0.00000000000E+00 0.  1.
</event>
<event>
 7    1  0.2647566E-010  0.4778727E+02  0.7816164E-02  0.1312668E+00
        -11   -1    0    0    0    0  0.00000000000E+00  0.00000000000E+00  0.45593999997E+02  0.45594000000E+02  0.51100000000E-03 0. -1.
         11   -1    0    0    0    0 -0.00000000000E+00 -0.00000000000E+00 -0.45593999997E+02  0.45594000000E+02  0.51100000000E-03 0.  1.
    9900012    2    1    2    0    0 -0.20614744122E+02  0.74891408418E+00 -0.38185004752E+02  0.47787272639E+02  0.20000007271E+02 0.  0.
         12    1    1    2    0    0  0.20614744122E+02 -0.74891408418E+00  0.38185004752E+02  0.43400727361E+02  0.00000000000E+00 0. -1.
         11    1    3    3    0    0  0.16250607935E+01 -0.13752626992E+01 -0.35973105926E+00  0.21590684960E+01  0.51100000000E-03 0.  1.
        -11    1    3    3    0    0 -0.35358649798E+01 -0.12016011943E+01 -0.52815158062E+00  0.37716217916E+01  0.51100000000E-03 0. -1.
        -12    1    3    3    0    0 -0.18703939936E+02  0.33257779777E+01 -0.37297122112E+02  0.41856582351E+02  0.00000000000E+00 0.  1.
</event>
<event>
 7    1  0.2647566E-010  0.4778727E+02  0.7816164E-02  0.1312668E+00
        -11   -1    0    0    0    0  0.00000000000E+00  0.00000000000E+00  0.45593999997E+02  0.45594000000E+02  0.51100000000E-03 0. -1.
         11   -1    0    0    0    0 -0.00000000000E+00 -0.00000000000E+00 -0.45593999997E+02  0.45594000000E+02  0.51100000000E-03 0.  1.
    9900012    2    1    2    0    0  0.37586584824E+02 -0.17017545016E+02  0.13463856355E+02  0.47787266999E+02  0.19999981553E+02 0.  0.
         12    1    1    2    0    0 -0.37586584824E+02  0.17017545016E+02 -0.13463856355E+02  0.43400733001E+02  0.00000000000E+00 0. -1.
         11    1    3    3    0    0  0.60348072648E+01 -0.19043343743E+01  0.71482276318E+01  0.95468605662E+01  0.51100000000E-03 0. -1.
        -11    1    3    3    0    0  0.91632268802E+01 -0.75148558992E+01  0.83701216269E+01  0.14508505173E+02  0.51100000000E-03 0.  1.
        -12    1    3    3    0    0  0.22388550679E+02 -0.75983547428E+01 -0.20544929033E+01  0.23731901259E+02  0.00000000000E+00 0.  1.
</event>
<event>
 7    1  0.2647566E-010  0.4778728E+02  0.7816164E-02  0.1312668E+00
        -11   -1    0    0    0    0  0.00000000000E+00  0.00000000000E+00  0.45593999997E+02  0.45594000000E+02  0.51100000000E-03 0.  1.
         11   -1    0    0    0    0 -0.00000000000E+00 -0.00000000000E+00 -0.45593999997E+02  0.45594000000E+02  0.51100000000E-03 0. -1.
    9900012    2    1    2    0    0 -0.34156870830E+02  0.62438834109E+01  0.26037374298E+02  0.47787276904E+02  0.20000026715E+02 0.  0.
         12    1    1    2    0    0  0.34156870830E+02 -0.62438834109E+01 -0.26037374298E+02  0.43400723096E+02  0.00000000000E+00 0. -1.
         11    1    3    3    0    0 -0.14544542520E+01  0.23276721720E+01 -0.25012636244E+00  0.27560947680E+01  0.51100000000E-03 0. -1.
        -11    1    3    3    0    0 -0.18916721606E+02  0.56458402505E+01  0.63641694519E+01  0.20741757918E+02  0.51100000000E-03 0.  1.
        -12    1    3    3    0    0 -0.13785694972E+02 -0.17296290116E+01  0.19923331209E+02  0.24289424218E+02  0.00000000000E+00 0.  1.
</event>
<event>
 7    1  0.2647566E-010  0.4778727E+02  0.7816164E-02  0.1312668E+00
        -11   -1    0    0    0    0  0.00000000000E+00  0.00000000000E+00  0.45593999997E+02  0.45594000000E+02  0.51100000000E-03 0. -1.
         11   -1    0    0    0    0 -0.00000000000E+00 -0.00000000000E+00 -0.45593999997E+02  0.45594000000E+02  0.51100000000E-03 0.  1.
    9900012    2    1    2    0    0 -0.15368004136E+01  0.42628075329E+02 -0.80067896172E+01  0.47787271414E+02  0.20000001687E+02 0.  0.
         12    1    1    2    0    0  0.15368004136E+01 -0.42628075329E+02  0.80067896172E+01  0.43400728586E+02  0.00000000000E+00 0. -1.
         11    1    3    3    0    0  0.53412009804E+01  0.10493813558E+02 -0.32864779372E+01  0.12224953513E+02  0.51100000000E-03 0. -1.
        -11    1    3    3    0    0 -0.24930071381E+01  0.26791258020E+02 -0.77714717245E+01  0.28006827095E+02  0.51100000000E-03 0.  1.
        -12    1    3    3    0    0 -0.43849942558E+01  0.53430037508E+01  0.30511600445E+01  0.75554908062E+01  0.00000000000E+00 0.  1.
</event>
<event>
 7    1  0.2647566E-010  0.4778727E+02  0.7816164E-02  0.1312668E+00
        -11   -1    0    0    0    0  0.00000000000E+00  0.00000000000E+00  0.45593999997E+02  0.45594000000E+02  0.51100000000E-03 0.  1.
         11   -1    0    0    0    0 -0.00000000000E+00 -0.00000000000E+00 -0.45593999997E+02  0.45594000000E+02  0.51100000000E-03 0. -1.
    9900012    2    1    2    0    0  0.39569946736E+02 -0.83354136723E+01  0.15759557965E+02  0.47787268750E+02  0.19999989537E+02 0.  0.
         12    1    1    2    0    0 -0.39569946736E+02  0.83354136723E+01 -0.15759557965E+02  0.43400731250E+02  0.00000000000E+00 0. -1.
         11    1    3    3    0    0  0.29607729376E+01 -0.19642281077E+01 -0.31471537210E+01  0.47464666071E+01  0.51100000000E-03 0. -1.
        -11    1    3    3    0    0  0.69907084186E+00  0.13097287412E+01 -0.42038401247E+00  0.15429881388E+01  0.51100000000E-03 0.  1.
        -12    1    3    3    0    0  0.35910102957E+02 -0.76809143058E+01  0.19327095699E+02  0.41497814004E+02  0.00000000000E+00 0.  1.
</event>
<event>
 7    1  0.2647566E-010  0.4778728E+02  0.7816164E-02  0.1312668E+00
        -11   -1    0    0    0    0  0.00000000000E+00  0.00000000000E+00  0.45593999997E+02  0.45594000000E+02  0.51100000000E-03 0. -1.
         11   -1    0    0    0    0 -0.00000000000E+00 -0.00000000000E+00 -0.45593999997E+02  0.45594000000E+02  0.51100000000E-03 0.  1.
    9900012    2    1    2    0    0 -0.82924670673E+01  0.42366714372E+02 -0.44630608831E+01  0.47787281006E+02  0.20000045417E+02 0.  0.
         12    1    1    2    0    0  0.82924670673E+01 -0.42366714372E+02  0.44630608831E+01  0.43400718994E+02  0.00000000000E+00 0. -1.
         11    1    3    3    0    0  0.16412450641E+01  0.15559907627E+02 -0.73581314078E+01  0.17290069659E+02  0.51100000000E-03 0. -1.
        -11    1    3    3    0    0 -0.40585503075E+01  0.21886333613E+02 -0.12588111354E+00  0.22259813026E+02  0.51100000000E-03 0.  1.
         12    1    3    3    0    0 -0.58751618240E+01  0.49204731321E+01  0.30209516382E+01  0.82373983212E+01  0.00000000000E+00 0. -1.
</event>
<event>
 7    1  0.2647566E-010  0.4778727E+02  0.7816164E-02  0.1312668E+00
        -11   -1    0    0    0    0  0.00000000000E+00  0.00000000000E+00  0.45593999997E+02  0.45594000000E+02  0.51100000000E-03 0. -1.
         11   -1    0    0    0    0 -0.00000000000E+00 -0.00000000000E+00 -0.45593999997E+02  0.45594000000E+02  0.51100000000E-03 0.  1.
    9900012    2    1    2    0    0 -0.37216741861E+02 -0.21427770256E+02 -0.62760252436E+01  0.47787266069E+02  0.19999977316E+02 0.  0.
         12    1    1    2    0    0  0.37216741861E+02  0.21427770256E+02  0.62760252436E+01  0.43400733931E+02  0.00000000000E+00 0. -1.
         11    1    3    3    0    0 -0.28481269282E+00 -0.28863240168E+01  0.20838117181E+01  0.35713101430E+01  0.51100000000E-03 0.  1.
        -11    1    3    3    0    0  0.19773374425E+00  0.67173172348E+00 -0.17571988066E+01  0.18915787187E+01  0.51100000000E-03 0. -1.
        -12    1    3    3    0    0 -0.37129662912E+02 -0.19213177962E+02 -0.66026381550E+01  0.42324377207E+02  0.00000000000E+00 0.  1.
</event>
<event>
 7    1  0.2647566E-010  0.4778727E+02  0.7816164E-02  0.1312668E+00
        -11   -1    0    0    0    0  0.00000000000E+00  0.00000000000E+00  0.45593999997E+02  0.45594000000E+02  0.51100000000E-03 0.  1.
         11   -1    0    0    0    0 -0.00000000000E+00 -0.00000000000E+00 -0.45593999997E+02  0.45594000000E+02  0.51100000000E-03 0. -1.
    9900012    2    1    2    0    0  0.25026194314E+02  0.35195660068E+02  0.43103173375E+01  0.47787265847E+02  0.19999976302E+02 0.  0.
         12    1    1    2    0    0 -0.25026194314E+02 -0.35195660068E+02 -0.43103173375E+01  0.43400734153E+02  0.00000000000E+00 0. -1.
         11    1    3    3    0    0  0.18885391062E+01  0.67880276909E+01 -0.38166532950E+01  0.80131605826E+01  0.51100000000E-03 0. -1.
        -11    1    3    3    0    0  0.50792268270E+01  0.17616415392E+00  0.29129980235E+01  0.58579123171E+01  0.51100000000E-03 0.  1.
        -12    1    3    3    0    0  0.18058428381E+02  0.28231468224E+02  0.52139726091E+01  0.33916192947E+02  0.00000000000E+00 0.  1.
</event>
<event>
 7    1  0.2647566E-010  0.4778727E+02  0.7816164E-02  0.1312668E+00
        -11   -1    0    0    0    0  0.00000000000E+00  0.00000000000E+00  0.45593999997E+02  0.45594000000E+02  0.51100000000E-03 0. -1.
         11   -1    0    0    0    0 -0.00000000000E+00 -0.00000000000E+00 -0.45593999997E+02  0.45594000000E+02  0.51100000000E-03 0.  1.
    9900012    2    1    2    0    0  0.24730061649E+02  0.18380353983E+02 -0.30564848603E+02  0.47787270377E+02  0.19999996957E+02 0.  0.
         12    1    1    2    0    0 -0.24730061649E+02 -0.18380353983E+02  0.30564848603E+02  0.43400729623E+02  0.00000000000E+00 0. -1.
         11    1    3    3    0    0  0.78590118152E+00  0.69204539838E+01 -0.42697210213E+01  0.81695068315E+01  0.51100000000E-03 0. -1.
        -11    1    3    3    0    0  0.66129548152E+01  0.90005033707E+01 -0.15312381210E+02  0.18952816437E+02  0.51100000000E-03 0.  1.
        -12    1    3    3    0    0  0.17331205652E+02  0.24593966283E+01 -0.10982746371E+02  0.20664947108E+02  0.00000000000E+00 0.  1.
</event>
<event>
 7    1  0.2647566E-010  0.4778727E+02  0.7816164E-02  0.1312668E+00
        -11   -1    0    0    0    0  0.00000000000E+00  0.00000000000E+00  0.45593999997E+02  0.45594000000E+02  0.51100000000E-03 0.  1.
         11   -1    0    0    0    0 -0.00000000000E+00 -0.00000000000E+00 -0.45593999997E+02  0.45594000000E+02  0.51100000000E-03 0. -1.
    9900012    2    1    2    0    0  0.17675597434E+00 -0.25238106757E+02  0.35307648621E+02  0.47787270438E+02  0.19999997237E+02 0.  0.
         12    1    1    2    0    0 -0.17675597434E+00  0.25238106757E+02 -0.35307648621E+02  0.43400729562E+02  0.00000000000E+00 0. -1.
         11    1    3    3    0    0  0.90650067750E+01 -0.73417476757E+01  0.10496838516E+02  0.15692648784E+02  0.51100000000E-03 0. -1.
        -11    1    3    3    0    0 -0.38589354731E+01 -0.53022064329E+01  0.58816336948E+01  0.88089949043E+01  0.51100000000E-03 0.  1.
         12    1    3    3    0    0 -0.50293153275E+01 -0.12594152648E+02  0.18929176410E+02  0.23285626750E+02  0.00000000000E+00 0. -1.
</event>
<event>
 7    1  0.2647566E-010  0.4778727E+02  0.7816164E-02  0.1312668E+00
        -11   -1    0    0    0    0  0.00000000000E+00  0.00000000000E+00  0.45593999997E+02  0.45594000000E+02  0.51100000000E-03 0.  1.
         11   -1    0    0    0    0 -0.00000000000E+00 -0.00000000000E+00 -0.45593999997E+02  0.45594000000E+02  0.51100000000E-03 0. -1.
    9900012    2    1    2    0    0 -0.33958167270E+02 -0.27182524481E+01  0.26890100350E+02  0.47787268237E+02  0.19999987199E+02 0.  0.
         12    1    1    2    0    0  0.33958167270E+02  0.27182524481E+01 -0.26890100350E+02  0.43400731763E+02  0.00000000000E+00 0. -1.
         11    1    3    3    0    0 -0.15678046297E+01  0.23405856100E+01 -0.32327773453E+00  0.28356412166E+01  0.51100000000E-03 0. -1.
        -11    1    3    3    0    0 -0.64703725911E+01 -0.70649228370E+01  0.95096985934E+01  0.13498637848E+02  0.51100000000E-03 0.  1.
        -12    1    3    3    0    0 -0.25919990050E+02  0.20060847788E+01  0.17703679491E+02  0.31452989172E+02  0.00000000000E+00 0.  1.
</event>
<event>
 7    1  0.2647566E-010  0.4778727E+02  0.7816164E-02  0.1312668E+00
        -11   -1    0    0    0    0  0.00000000000E+00  0.00000000000E+00  0.45593999997E+02  0.45594000000E+02  0.51100000000E-03 0. -1.
         11   -1    0    0    0    0 -0.00000000000E+00 -0.00000000000E+00 -0.45593999997E+02  0.45594000000E+02  0.51100000000E-03 0.  1.
    9900012    2    1    2    0    0  0.28499168448E+02  0.19634318201E+02 -0.26189968223E+02  0.47787268567E+02  0.19999988703E+02 0.  0.
         12    1    1    2    0    0 -0.28499168448E+02 -0.19634318201E+02  0.26189968223E+02  0.43400731433E+02  0.00000000000E+00 0. -1.
         11    1    3    3    0    0  0.20320124389E+01  0.24185033282E+01 -0.42819347350E+01  0.53210147750E+01  0.51100000000E-03 0. -1.
        -11    1    3    3    0    0  0.22312911690E+02  0.20950825887E+02 -0.16896389386E+02  0.34961280125E+02  0.51100000000E-03 0.  1.
        -12    1    3    3    0    0  0.41542443192E+01 -0.37350110140E+01 -0.50116441021E+01  0.75049736671E+01  0.00000000000E+00 0.  1.
</event>
<event>
 7    1  0.2647566E-010  0.4778727E+02  0.7816164E-02  0.1312668E+00
        -11   -1    0    0    0    0  0.00000000000E+00  0.00000000000E+00  0.45593999997E+02  0.45594000000E+02  0.51100000000E-03 0.  1.
         11   -1    0    0    0    0 -0.00000000000E+00 -0.00000000000E+00 -0.45593999997E+02  0.45594000000E+02  0.51100000000E-03 0. -1.
    9900012    2    1    2    0    0 -0.83048779904E+01 -0.34009422990E+02  0.25651727394E+02  0.47787274558E+02  0.20000016021E+02 0.  0.
         12    1    1    2    0    0  0.83048779904E+01  0.34009422990E+02 -0.25651727394E+02  0.43400725442E+02  0.00000000000E+00 0. -1.
         11    1    3    3    0    0 -0.10805726302E+01 -0.29311433168E+01  0.53718582336E+01  0.62141853445E+01  0.51100000000E-03 0.  1.
        -11    1    3    3    0    0 -0.88175921238E+01 -0.32710789644E+02  0.18066334086E+02  0.38394506347E+02  0.51100000000E-03 0. -1.
         12    1    3    3    0    0  0.15932867636E+01  0.16325099712E+01  0.22135350745E+01  0.31785828671E+01  0.00000000000E+00 0. -1.
</event>
<event>
 7    1  0.2647566E-010  0.4778727E+02  0.7816164E-02  0.1312668E+00
        -11   -1    0    0    0    0  0.00000000000E+00  0.00000000000E+00  0.45593999997E+02  0.45594000000E+02  0.51100000000E-03 0.  1.
         11   -1    0    0    0    0 -0.00000000000E+00 -0.00000000000E+00 -0.45593999997E+02  0.45594000000E+02  0.51100000000E-03 0. -1.
    9900012    2    1    2    0    0 -0.31377788897E+02  0.27406981590E+02  0.12162038435E+02  0.47787268960E+02  0.19999990495E+02 0.  0.
         12    1    1    2    0    0  0.31377788897E+02 -0.27406981590E+02 -0.12162038435E+02  0.43400731040E+02  0.00000000000E+00 0. -1.
         11    1    3    3    0    0  0.10895740978E+01  0.99259022433E+00  0.36084178806E+01  0.38978310546E+01  0.51100000000E-03 0.  1.
        -11    1    3    3    0    0 -0.11109618791E+01  0.48499227270E+01  0.60347951280E+00  0.50120030465E+01  0.51100000000E-03 0. -1.
        -12    1    3    3    0    0 -0.31356401116E+02  0.21564468639E+02  0.79501410414E+01  0.38877434859E+02  0.00000000000E+00 0.  1.
</event>
<event>
 7    1  0.2647566E-010  0.4778728E+02  0.7816164E-02  0.1312668E+00
        -11   -1    0    0    0    0  0.00000000000E+00  0.00000000000E+00  0.45593999997E+02  0.45594000000E+02  0.51100000000E-03 0. -1.
         11   -1    0    0    0    0 -0.00000000000E+00 -0.00000000000E+00 -0.45593999997E+02  0.45594000000E+02  0.51100000000E-03 0.  1.
    9900012    2    1    2    0    0  0.42999626233E+02  0.11973054246E+01 -0.57637679220E+01  0.47787280915E+02  0.20000045004E+02 0.  0.
         12    1    1    2    0    0 -0.42999626233E+02 -0.11973054246E+01  0.57637679220E+01  0.43400719085E+02  0.00000000000E+00 0. -1.
         11    1    3    3    0    0  0.11413524942E+01  0.58990306402E-01 -0.22916941513E+01  0.25608646423E+01  0.51100000000E-03 0. -1.
        -11    1    3    3    0    0  0.26432616013E+02  0.51551333434E+01  0.46615955464E+01  0.27331100643E+02  0.51100000000E-03 0.  1.
        -12    1    3    3    0    0  0.15425657726E+02 -0.40168182252E+01 -0.81336693172E+01  0.17895315630E+02  0.00000000000E+00 0.  1.
</event>
<event>
 7    1  0.2647566E-010  0.4778727E+02  0.7816164E-02  0.1312668E+00
        -11   -1    0    0    0    0  0.00000000000E+00  0.00000000000E+00  0.45593999997E+02  0.45594000000E+02  0.51100000000E-03 0.  1.
         11   -1    0    0    0    0 -0.00000000000E+00 -0.00000000000E+00 -0.45593999997E+02  0.45594000000E+02  0.51100000000E-03 0. -1.
    9900012    2    1    2    0    0  0.26903038029E+02  0.61626900935E+01  0.33494342273E+02  0.47787272257E+02  0.20000005528E+02 0.  0.
         12    1    1    2    0    0 -0.26903038029E+02 -0.61626900935E+01 -0.33494342273E+02  0.43400727743E+02  0.00000000000E+00 0. -1.
         11    1    3    3    0    0  0.24241652610E+01 -0.14660189574E+01 -0.10015457514E+00  0.28347521931E+01  0.51100000000E-03 0. -1.
        -11    1    3    3    0    0  0.14094885669E+02 -0.22966072072E+01  0.23118922785E+02  0.27173972799E+02  0.51100000000E-03 0.  1.
         12    1    3    3    0    0  0.10383987099E+02  0.99253162582E+01  0.10475574063E+02  0.17778547265E+02  0.00000000000E+00 0. -1.
</event>
<event>
 7    1  0.2647566E-010  0.4778726E+02  0.7816164E-02  0.1312668E+00
        -11   -1    0    0    0    0  0.00000000000E+00  0.00000000000E+00  0.45593999997E+02  0.45594000000E+02  0.51100000000E-03 0.  1.
         11   -1    0    0    0    0 -0.00000000000E+00 -0.00000000000E+00 -0.45593999997E+02  0.45594000000E+02  0.51100000000E-03 0. -1.
    9900012    2    1    2    0    0 -0.98004005702E+01  0.28306550558E+02  0.31405664885E+02  0.47787257579E+02  0.19999938606E+02 0.  0.
         12    1    1    2    0    0  0.98004005702E+01 -0.28306550558E+02 -0.31405664885E+02  0.43400742421E+02  0.00000000000E+00 0. -1.
         11    1    3    3    0    0 -0.50656362935E+01  0.26504723262E+02  0.25378157292E+02  0.37043378546E+02  0.51100000000E-03 0. -1.
        -11    1    3    3    0    0  0.19855815678E+00  0.72116901555E+00  0.56283458456E+01  0.56778329765E+01  0.51100000000E-03 0.  1.
         12    1    3    3    0    0 -0.49333224335E+01  0.10806582798E+01  0.39916174716E+00  0.50660460569E+01  0.00000000000E+00 0. -1.
</event>
<event>
 7    1  0.2647566E-010  0.4778727E+02  0.7816164E-02  0.1312668E+00
        -11   -1    0    0    0    0  0.00000000000E+00  0.00000000000E+00  0.45593999997E+02  0.45594000000E+02  0.51100000000E-03 0.  1.
         11   -1    0    0    0    0 -0.00000000000E+00 -0.00000000000E+00 -0.45593999997E+02  0.45594000000E+02  0.51100000000E-03 0. -1.
    9900012    2    1    2    0    0 -0.15419260516E+02  0.34894874291E+02  0.20693412075E+02  0.47787272472E+02  0.20000006511E+02 0.  0.
         12    1    1    2    0    0  0.15419260516E+02 -0.34894874291E+02 -0.20693412075E+02  0.43400727528E+02  0.00000000000E+00 0. -1.
         11    1    3    3    0    0 -0.11128812789E+01 -0.16195562880E+01 -0.49946962209E+00  0.20275446914E+01  0.51100000000E-03 0. -1.
        -11    1    3    3    0    0  0.97863966954E+00  0.50480747891E+01  0.62752616941E+00  0.51802108098E+01  0.51100000000E-03 0.  1.
        -12    1    3    3    0    0 -0.15285018906E+02  0.31466355790E+02  0.20565355528E+02  0.40579516971E+02  0.00000000000E+00 0.  1.
</event>
<event>
 7    1  0.2647566E-010  0.4778727E+02  0.7816164E-02  0.1312668E+00
        -11   -1    0    0    0    0  0.00000000000E+00  0.00000000000E+00  0.45593999997E+02  0.45594000000E+02  0.51100000000E-03 0.  1.
         11   -1    0    0    0    0 -0.00000000000E+00 -0.00000000000E+00 -0.45593999997E+02  0.45594000000E+02  0.51100000000E-03 0. -1.
    9900012    2    1    2    0    0 -0.17176660644E+02  0.13740511422E+02  0.37413686236E+02  0.47787271403E+02  0.20000001633E+02 0.  0.
         12    1    1    2    0    0  0.17176660644E+02 -0.13740511422E+02 -0.37413686236E+02  0.43400728597E+02  0.00000000000E+00 0. -1.
         11    1    3    3    0    0  0.59125426724E+00  0.96958626232E+00  0.86897478555E+01  0.87636406351E+01  0.51100000000E-03 0. -1.
        -11    1    3    3    0    0 -0.11786341758E+01  0.10329282326E+01  0.13603708596E+02  0.13693684934E+02  0.51100000000E-03 0.  1.
        -12    1    3    3    0    0 -0.16589280736E+02  0.11737996927E+02  0.15120229785E+02  0.25329945834E+02  0.00000000000E+00 0.  1.
</event>
<event>
 7    1  0.2647566E-010  0.4778726E+02  0.7816164E-02  0.1312668E+00
        -11   -1    0    0    0    0  0.00000000000E+00  0.00000000000E+00  0.45593999997E+02  0.45594000000E+02  0.51100000000E-03 0.  1.
         11   -1    0    0    0    0 -0.00000000000E+00 -0.00000000000E+00 -0.45593999997E+02  0.45594000000E+02  0.51100000000E-03 0. -1.
    9900012    2    1    2    0    0 -0.32411130866E+02  0.22941858985E+02  0.17516108162E+02  0.47787258729E+02  0.19999943849E+02 0.  0.
         12    1    1    2    0    0  0.32411130866E+02 -0.22941858985E+02 -0.17516108162E+02  0.43400741271E+02  0.00000000000E+00 0. -1.
         11    1    3    3    0    0 -0.12046673315E+02  0.16176478602E+01 -0.31804818643E+00  0.12158958733E+02  0.51100000000E-03 0. -1.
        -11    1    3    3    0    0 -0.76976912944E+00  0.13804238860E+01  0.42691410561E+01  0.45523269035E+01  0.51100000000E-03 0.  1.
         12    1    3    3    0    0 -0.19594688422E+02  0.19943787239E+02  0.13565015292E+02  0.31075973093E+02  0.00000000000E+00 0. -1.
</event>
<event>
 7    1  0.2647566E-010  0.4778727E+02  0.7816164E-02  0.1312668E+00
        -11   -1    0    0    0    0  0.00000000000E+00  0.00000000000E+00  0.45593999997E+02  0.45594000000E+02  0.51100000000E-03 0.  1.
         11   -1    0    0    0    0 -0.00000000000E+00 -0.00000000000E+00 -0.45593999997E+02  0.45594000000E+02  0.51100000000E-03 0. -1.
    9900012    2    1    2    0    0  0.18918775917E+02 -0.21678711296E+02  0.32492100165E+02  0.47787272140E+02  0.20000004995E+02 0.  0.
         12    1    1    2    0    0 -0.18918775917E+02  0.21678711296E+02 -0.32492100165E+02  0.43400727860E+02  0.00000000000E+00 0. -1.
         11    1    3    3    0    0  0.34789239317E+01 -0.65940165565E+01  0.41168989794E+01  0.85166204293E+01  0.51100000000E-03 0. -1.
        -11    1    3    3    0    0  0.25361831968E+00 -0.19294952729E+01  0.15018968025E+02  0.15144526240E+02  0.51100000000E-03 0.  1.
         12    1    3    3    0    0  0.15186233666E+02 -0.13155199467E+02  0.13356233161E+02  0.24126125470E+02  0.00000000000E+00 0. -1.
</event>
<event>
 7    1  0.2647566E-010  0.4778727E+02  0.7816164E-02  0.1312668E+00
        -11   -1    0    0    0    0  0.00000000000E+00  0.00000000000E+00  0.45593999997E+02  0.45594000000E+02  0.51100000000E-03 0.  1.
         11   -1    0    0    0    0 -0.00000000000E+00 -0.00000000000E+00 -0.45593999997E+02  0.45594000000E+02  0.51100000000E-03 0. -1.
    9900012    2    1    2    0    0  0.26849758587E+02 -0.32616651923E+02  0.99432298931E+01  0.47787270287E+02  0.19999996549E+02 0.  0.
         12    1    1    2    0    0 -0.26849758587E+02  0.32616651923E+02 -0.99432298931E+01  0.43400729713E+02  0.00000000000E+00 0. -1.
         11    1    3    3    0    0  0.96647174280E+01 -0.45373708148E+01  0.46545887666E+00  0.10686961640E+02  0.51100000000E-03 0. -1.
        -11    1    3    3    0    0  0.10414206875E+02 -0.10706538079E+02  0.10763806495E+02  0.18410464225E+02  0.51100000000E-03 0.  1.
        -12    1    3    3    0    0  0.67708342848E+01 -0.17372743029E+02 -0.12860354783E+01  0.18689844422E+02  0.00000000000E+00 0.  1.
</event>
<event>
 7    1  0.2647566E-010  0.4778727E+02  0.7816164E-02  0.1312668E+00
        -11   -1    0    0    0    0  0.00000000000E+00  0.00000000000E+00  0.45593999997E+02  0.45594000000E+02  0.51100000000E-03 0. -1.
         11   -1    0    0    0    0 -0.00000000000E+00 -0.00000000000E+00 -0.45593999997E+02  0.45594000000E+02  0.51100000000E-03 0.  1.
    9900012    2    1    2    0    0 -0.38299205719E+02 -0.18414111005E+02  0.88155894568E+01  0.47787271201E+02  0.20000000715E+02 0.  0.
         12    1    1    2    0    0  0.38299205719E+02  0.18414111005E+02 -0.88155894568E+01  0.43400728799E+02  0.00000000000E+00 0. -1.
         11    1    3    3    0    0 -0.12332639140E+02 -0.34118480978E+01  0.40348574027E+01  0.13416958304E+02  0.51100000000E-03 0. -1.
        -11    1    3    3    0    0 -0.13743946682E+02 -0.14289004545E+02  0.85045726418E+01  0.21573119324E+02  0.51100000000E-03 0.  1.
         12    1    3    3    0    0 -0.12222619897E+02 -0.71325836179E+00 -0.37238405877E+01  0.12797193573E+02  0.00000000000E+00 0. -1.
</event>
<event>
 7    1  0.2647566E-010  0.4778727E+02  0.7816164E-02  0.1312668E+00
        -11   -1    0    0    0    0  0.00000000000E+00  0.00000000000E+00  0.45593999997E+02  0.45594000000E+02  0.51100000000E-03 0. -1.
         11   -1    0    0    0    0 -0.00000000000E+00 -0.00000000000E+00 -0.45593999997E+02  0.45594000000E+02  0.51100000000E-03 0.  1.
    9900012    2    1    2    0    0  0.55511733606E+01 -0.41677264279E+02 -0.10761680666E+02  0.47787266662E+02  0.19999980020E+02 0.  0.
         12    1    1    2    0    0 -0.55511733606E+01  0.41677264279E+02  0.10761680666E+02  0.43400733338E+02  0.00000000000E+00 0. -1.
         11    1    3    3    0    0 -0.16624563755E+01 -0.48561050425E+01 -0.60912745548E+01  0.79654970559E+01  0.51100000000E-03 0. -1.
        -11    1    3    3    0    0 -0.16267967727E+01 -0.93215422745E+01  0.30150384625E+01  0.99311668653E+01  0.51100000000E-03 0.  1.
        -12    1    3    3    0    0  0.88404265089E+01 -0.27499616962E+02 -0.76854445739E+01  0.29890602741E+02  0.00000000000E+00 0.  1.
</event>
<event>
 7    1  0.2647566E-010  0.4778727E+02  0.7816164E-02  0.1312668E+00
        -11   -1    0    0    0    0  0.00000000000E+00  0.00000000000E+00  0.45593999997E+02  0.45594000000E+02  0.51100000000E-03 0.  1.
         11   -1    0    0    0    0 -0.00000000000E+00 -0.00000000000E+00 -0.45593999997E+02  0.45594000000E+02  0.51100000000E-03 0. -1.
    9900012    2    1    2    0    0  0.76422068821E+01 -0.40294892583E+02  0.14196531316E+02  0.47787271945E+02  0.20000004107E+02 0.  0.
         12    1    1    2    0    0 -0.76422068821E+01  0.40294892583E+02 -0.14196531316E+02  0.43400728055E+02  0.00000000000E+00 0. -1.
         11    1    3    3    0    0 -0.14157477982E+01 -0.35195201913E+01  0.17452701459E+01  0.41758031980E+01  0.51100000000E-03 0. -1.
        -11    1    3    3    0    0  0.12352323067E+02 -0.14027155606E+02  0.72305935063E+01  0.20040520509E+02  0.51100000000E-03 0.  1.
        -12    1    3    3    0    0 -0.32943683870E+01 -0.22748216786E+02  0.52206676638E+01  0.23570948239E+02  0.00000000000E+00 0.  1.
</event>
<event>
 7    1  0.2647566E-010  0.4778728E+02  0.7816164E-02  0.1312668E+00
        -11   -1    0    0    0    0  0.00000000000E+00  0.00000000000E+00  0.45593999997E+02  0.45594000000E+02  0.51100000000E-03 0.  1.
         11   -1    0    0    0    0 -0.00000000000E+00 -0.00000000000E+00 -0.45593999997E+02  0.45594000000E+02  0.51100000000E-03 0. -1.
    9900012    2    1    2    0    0  0.13465724110E+02  0.12961291000E+02  0.39170168934E+02  0.47787275069E+02  0.20000018352E+02 0.  0.
         12    1    1    2    0    0 -0.13465724110E+02 -0.12961291000E+02 -0.39170168934E+02  0.43400724931E+02  0.00000000000E+00 0. -1.
         11    1    3    3    0    0  0.12264114086E+01 -0.26546898334E+01  0.11400982571E+02  0.11770041075E+02  0.51100000000E-03 0. -1.
        -11    1    3    3    0    0  0.72625803793E+01  0.33196630218E+01  0.43275988234E+01  0.90825848844E+01  0.51100000000E-03 0.  1.
         12    1    3    3    0    0  0.49767323220E+01  0.12296317811E+02  0.23441587540E+02  0.26934649110E+02  0.00000000000E+00 0. -1.
</event>
<event>
 7    1  0.2647566E-010  0.4778727E+02  0.7816164E-02  0.1312668E+00
        -11   -1    0    0    0    0  0.00000000000E+00  0.00000000000E+00  0.45593999997E+02  0.45594000000E+02  0.51100000000E-03 0.  1.
         11   -1    0    0    0    0 -0.00000000000E+00 -0.00000000000E+00 -0.45593999997E+02  0.45594000000E+02  0.51100000000E-03 0. -1.
    9900012    2    1    2    0    0 -0.58052490542E+01  0.50197035927E+01  0.42716798340E+02  0.47787271882E+02  0.20000003819E+02 0.  0.
         12    1    1    2    0    0  0.58052490542E+01 -0.50197035927E+01 -0.42716798340E+02  0.43400728118E+02  0.00000000000E+00 0. -1.
         11    1    3    3    0    0 -0.17533898458E+01  0.64118404159E+01  0.26562669937E+02  0.27381773279E+02  0.51100000000E-03 0. -1.
        -11    1    3    3    0    0 -0.46473045622E+01 -0.16075655426E+01  0.17892206290E+02  0.18555666328E+02  0.51100000000E-03 0.  1.
         12    1    3    3    0    0  0.59544535381E+00  0.21542871937E+00 -0.17380778875E+01  0.18498322750E+01  0.00000000000E+00 0. -1.
</event>
<event>
 7    1  0.2647566E-010  0.4778725E+02  0.7816164E-02  0.1312668E+00
        -11   -1    0    0    0    0  0.00000000000E+00  0.00000000000E+00  0.45593999997E+02  0.45594000000E+02  0.51100000000E-03 0.  1.
         11   -1    0    0    0    0 -0.00000000000E+00 -0.00000000000E+00 -0.45593999997E+02  0.45594000000E+02  0.51100000000E-03 0. -1.
    9900012    2    1    2    0    0  0.11294766616E+02  0.50554716985E+01  0.41599228004E+02  0.47787247501E+02  0.19999892655E+02 0.  0.
         12    1    1    2    0    0 -0.11294766616E+02 -0.50554716985E+01 -0.41599228004E+02  0.43400752499E+02  0.00000000000E+00 0. -1.
         11    1    3    3    0    0  0.45076614091E+01  0.56790343590E+01  0.69720947442E+01  0.10058854210E+02  0.51100000000E-03 0.  1.
        -11    1    3    3    0    0 -0.38496054245E+01 -0.60762302624E+00  0.56765548283E+01  0.68856330607E+01  0.51100000000E-03 0. -1.
        -12    1    3    3    0    0  0.10636710631E+02 -0.15939634277E-01  0.28950578431E+02  0.30842760230E+02  0.00000000000E+00 0.  1.
</event>
<event>
 7    1  0.2647566E-010  0.4778727E+02  0.7816164E-02  0.1312668E+00
        -11   -1    0    0    0    0  0.00000000000E+00  0.00000000000E+00  0.45593999997E+02  0.45594000000E+02  0.51100000000E-03 0. -1.
         11   -1    0    0    0    0 -0.00000000000E+00 -0.00000000000E+00 -0.45593999997E+02  0.45594000000E+02  0.51100000000E-03 0.  1.
    9900012    2    1    2    0    0 -0.26930376097E+02  0.33643178102E+02 -0.51492295880E+01  0.47787272416E+02  0.20000006253E+02 0.  0.
         12    1    1    2    0    0  0.26930376097E+02 -0.33643178102E+02  0.51492295880E+01  0.43400727584E+02  0.00000000000E+00 0. -1.
         11    1    3    3    0    0 -0.18103465857E+01  0.11846265098E+01  0.13406213863E+01  0.25451838226E+01  0.51100000000E-03 0. -1.
        -11    1    3    3    0    0 -0.12926350188E+02  0.24423263515E+02 -0.11318612877E+02  0.29861301506E+02  0.51100000000E-03 0.  1.
         12    1    3    3    0    0 -0.12193679323E+02  0.80352880766E+01  0.48287619025E+01  0.15380787087E+02  0.00000000000E+00 0. -1.
</event>
<event>
 7    1  0.2647566E-010  0.4778727E+02  0.7816164E-02  0.1312668E+00
        -11   -1    0    0    0    0  0.00000000000E+00  0.00000000000E+00  0.45593999997E+02  0.45594000000E+02  0.51100000000E-03 0.  1.
         11   -1    0    0    0    0 -0.00000000000E+00 -0.00000000000E+00 -0.45593999997E+02  0.45594000000E+02  0.51100000000E-03 0. -1.
    9900012    2    1    2    0    0 -0.12240795239E+02 -0.35227620579E+01  0.41489473319E+02  0.47787270549E+02  0.19999997740E+02 0.  0.
         12    1    1    2    0    0  0.12240795239E+02  0.35227620579E+01 -0.41489473319E+02  0.43400729451E+02  0.00000000000E+00 0. -1.
         11    1    3    3    0    0 -0.53712346963E+01 -0.17976821772E+01  0.43994772525E+01  0.71719748835E+01  0.51100000000E-03 0. -1.
        -11    1    3    3    0    0  0.11174771652E+01  0.22276391651E+01  0.23241189577E-01  0.24923225872E+01  0.51100000000E-03 0.  1.
        -12    1    3    3    0    0 -0.79870377078E+01 -0.39527190458E+01  0.37066754877E+02  0.38122973078E+02  0.00000000000E+00 0.  1.
</event>
<event>
 7    1  0.2647566E-010  0.4778727E+02  0.7816164E-02  0.1312668E+00
        -11   -1    0    0    0    0  0.00000000000E+00  0.00000000000E+00  0.45593999997E+02  0.45594000000E+02  0.51100000000E-03 0.  1.
         11   -1    0    0    0    0 -0.00000000000E+00 -0.00000000000E+00 -0.45593999997E+02  0.45594000000E+02  0.51100000000E-03 0. -1.
    9900012    2    1    2    0    0 -0.21689621513E+02 -0.28140819800E+02  0.24925446237E+02  0.47787270853E+02  0.19999999125E+02 0.  0.
         12    1    1    2    0    0  0.21689621513E+02  0.28140819800E+02 -0.24925446237E+02  0.43400729147E+02  0.00000000000E+00 0. -1.
         11    1    3    3    0    0 -0.70054563088E+01 -0.37942739888E+01  0.23802803504E+01  0.83149665065E+01  0.51100000000E-03 0. -1.
        -11    1    3    3    0    0 -0.30171350365E+01 -0.85923198524E+01 -0.61708607413E+00  0.91275330598E+01  0.51100000000E-03 0.  1.
        -12    1    3    3    0    0 -0.11667030167E+02 -0.15754225959E+02  0.23162251961E+02  0.30344771286E+02  0.00000000000E+00 0.  1.
</event>
<event>
 7    1  0.2647566E-010  0.4778730E+02  0.7816164E-02  0.1312668E+00
        -11   -1    0    0    0    0  0.00000000000E+00  0.00000000000E+00  0.45593999997E+02  0.45594000000E+02  0.51100000000E-03 0.  1.
         11   -1    0    0    0    0 -0.00000000000E+00 -0.00000000000E+00 -0.45593999997E+02  0.45594000000E+02  0.51100000000E-03 0. -1.
    9900012    2    1    2    0    0 -0.20875372992E+02 -0.91316685339E+01  0.36938496814E+02  0.47787295920E+02  0.20000113418E+02 0.  0.
         12    1    1    2    0    0  0.20875372992E+02  0.91316685339E+01 -0.36938496814E+02  0.43400704080E+02  0.00000000000E+00 0. -1.
         11    1    3    3    0    0 -0.28303184934E+01  0.30901560703E+01  0.72396535800E+01  0.83649477902E+01  0.51100000000E-03 0. -1.
        -11    1    3    3    0    0 -0.16536550710E+02 -0.39838821597E+01  0.15917512761E+02  0.23295837379E+02  0.51100000000E-03 0.  1.
         12    1    3    3    0    0 -0.15085037886E+01 -0.82379424445E+01  0.13781330473E+02  0.16126510751E+02  0.00000000000E+00 0. -1.
</event>
<event>
 7    1  0.2647566E-010  0.4778727E+02  0.7816164E-02  0.1312668E+00
        -11   -1    0    0    0    0  0.00000000000E+00  0.00000000000E+00  0.45593999997E+02  0.45594000000E+02  0.51100000000E-03 0.  1.
         11   -1    0    0    0    0 -0.00000000000E+00 -0.00000000000E+00 -0.45593999997E+02  0.45594000000E+02  0.51100000000E-03 0. -1.
    9900012    2    1    2    0    0 -0.31892574392E+02 -0.13769794457E+02 -0.26016911914E+02  0.47787271362E+02  0.20000001450E+02 0.  0.
         12    1    1    2    0    0  0.31892574392E+02  0.13769794457E+02  0.26016911914E+02  0.43400728638E+02  0.00000000000E+00 0. -1.
         11    1    3    3    0    0 -0.85592863201E+01 -0.47275454184E+01 -0.84570262261E+00  0.98145953141E+01  0.51100000000E-03 0. -1.
        -11    1    3    3    0    0  0.17506164809E+01 -0.49435777433E-01 -0.20173946360E+01  0.26715133048E+01  0.51100000000E-03 0.  1.
        -12    1    3    3    0    0 -0.25083904553E+02 -0.89928132617E+01 -0.23153814655E+02  0.35301162744E+02  0.00000000000E+00 0.  1.
</event>
<event>
 7    1  0.2647566E-010  0.4778727E+02  0.7816164E-02  0.1312668E+00
        -11   -1    0    0    0    0  0.00000000000E+00  0.00000000000E+00  0.45593999997E+02  0.45594000000E+02  0.51100000000E-03 0. -1.
         11   -1    0    0    0    0 -0.00000000000E+00 -0.00000000000E+00 -0.45593999997E+02  0.45594000000E+02  0.51100000000E-03 0.  1.
    9900012    2    1    2    0    0  0.38580493043E+02  0.10172491234E+02 -0.17078924173E+02  0.47787266455E+02  0.19999979075E+02 0.  0.
         12    1    1    2    0    0 -0.38580493043E+02 -0.10172491234E+02  0.17078924173E+02  0.43400733545E+02  0.00000000000E+00 0. -1.
         11    1    3    3    0    0  0.72912276031E+01  0.28190444599E-01 -0.43999240931E+01  0.85159924230E+01  0.51100000000E-03 0. -1.
        -11    1    3    3    0    0  0.33463038816E+02  0.10232119944E+02 -0.11968446907E+02  0.36982630612E+02  0.51100000000E-03 0.  1.
         12    1    3    3    0    0 -0.21737733759E+01 -0.87819155518E-01 -0.71055317207E+00  0.22886434201E+01  0.00000000000E+00 0. -1.
</event>
<event>
 7    1  0.2647566E-010  0.4778727E+02  0.7816164E-02  0.1312668E+00
        -11   -1    0    0    0    0  0.00000000000E+00  0.00000000000E+00  0.45593999997E+02  0.45594000000E+02  0.51100000000E-03 0.  1.
         11   -1    0    0    0    0 -0.00000000000E+00 -0.00000000000E+00 -0.45593999997E+02  0.45594000000E+02  0.51100000000E-03 0. -1.
    9900012    2    1    2    0    0 -0.36993510338E+02  0.11458988528E+01  0.22666942179E+02  0.47787272367E+02  0.20000006031E+02 0.  0.
         12    1    1    2    0    0  0.36993510338E+02 -0.11458988528E+01 -0.22666942179E+02  0.43400727633E+02  0.00000000000E+00 0. -1.
         11    1    3    3    0    0 -0.27019558867E+02  0.66741160524E+01  0.10559796914E+02  0.29767594756E+02  0.51100000000E-03 0. -1.
        -11    1    3    3    0    0 -0.57212614541E+01 -0.24447678238E+01  0.18421311232E+01  0.64886955295E+01  0.51100000000E-03 0.  1.
         12    1    3    3    0    0 -0.42526900170E+01 -0.30834493757E+01  0.10265014142E+02  0.11530982082E+02  0.00000000000E+00 0. -1.
</event>
<event>
 7    1  0.2647566E-010  0.4778727E+02  0.7816164E-02  0.1312668E+00
        -11   -1    0    0    0    0  0.00000000000E+00  0.00000000000E+00  0.45593999997E+02  0.45594000000E+02  0.51100000000E-03 0.  1.
         11   -1    0    0    0    0 -0.00000000000E+00 -0.00000000000E+00 -0.45593999997E+02  0.45594000000E+02  0.51100000000E-03 0. -1.
    9900012    2    1    2    0    0  0.30068948202E+02  0.17507142875E+02  0.25941892102E+02  0.47787268860E+02  0.19999990042E+02 0.  0.
         12    1    1    2    0    0 -0.30068948202E+02 -0.17507142875E+02 -0.25941892102E+02  0.43400731140E+02  0.00000000000E+00 0. -1.
         11    1    3    3    0    0  0.50377395304E+01 -0.90719408562E+00 -0.66050845001E+00  0.51612103580E+01  0.51100000000E-03 0. -1.
        -11    1    3    3    0    0  0.10824452822E+02  0.12244743766E+01  0.10400288873E+02  0.15061013422E+02  0.51100000000E-03 0.  1.
         12    1    3    3    0    0  0.14206755850E+02  0.17189862584E+02  0.16202111678E+02  0.27565045080E+02  0.00000000000E+00 0. -1.
</event>
<event>
 7    1  0.2647566E-010  0.4778728E+02  0.7816164E-02  0.1312668E+00
        -11   -1    0    0    0    0  0.00000000000E+00  0.00000000000E+00  0.45593999997E+02  0.45594000000E+02  0.51100000000E-03 0.  1.
         11   -1    0    0    0    0 -0.00000000000E+00 -0.00000000000E+00 -0.45593999997E+02  0.45594000000E+02  0.51100000000E-03 0. -1.
    9900012    2    1    2    0    0  0.22157934068E+02 -0.37312083935E+02  0.67606122142E+00  0.47787277557E+02  0.20000029694E+02 0.  0.
         12    1    1    2    0    0 -0.22157934068E+02  0.37312083935E+02 -0.67606122142E+00  0.43400722443E+02  0.00000000000E+00 0. -1.
         11    1    3    3    0    0 -0.13630898428E+00 -0.18909516916E+01 -0.26067136559E+01  0.32232335913E+01  0.51100000000E-03 0. -1.
        -11    1    3    3    0    0  0.16036432900E+02 -0.27790254891E+02 -0.39516747022E+01  0.32327715358E+02  0.51100000000E-03 0.  1.
        -12    1    3    3    0    0  0.62578101527E+01 -0.76308773530E+01  0.72344495796E+01  0.12236328608E+02  0.00000000000E+00 0.  1.
</event>
<event>
 7    1  0.2647566E-010  0.4778727E+02  0.7816164E-02  0.1312668E+00
        -11   -1    0    0    0    0  0.00000000000E+00  0.00000000000E+00  0.45593999997E+02  0.45594000000E+02  0.51100000000E-03 0.  1.
         11   -1    0    0    0    0 -0.00000000000E+00 -0.00000000000E+00 -0.45593999997E+02  0.45594000000E+02  0.51100000000E-03 0. -1.
    9900012    2    1    2    0    0 -0.67689206178E+01  0.19181503990E+02  0.38338946228E+02  0.47787272132E+02  0.20000004957E+02 0.  0.
         12    1    1    2    0    0  0.67689206178E+01 -0.19181503990E+02 -0.38338946228E+02  0.43400727868E+02  0.00000000000E+00 0. -1.
         11    1    3    3    0    0  0.51854579928E+01  0.45702315394E+01  0.61212311957E+01  0.92328469353E+01  0.51100000000E-03 0. -1.
        -11    1    3    3    0    0 -0.21954272228E+01 -0.51053542238E+00  0.84265443739E+01  0.87227975704E+01  0.51100000000E-03 0.  1.
        -12    1    3    3    0    0 -0.97589513877E+01  0.15121807873E+02  0.23791170658E+02  0.29831627626E+02  0.00000000000E+00 0.  1.
</event>
<event>
 7    1  0.2647566E-010  0.4778727E+02  0.7816164E-02  0.1312668E+00
        -11   -1    0    0    0    0  0.00000000000E+00  0.00000000000E+00  0.45593999997E+02  0.45594000000E+02  0.51100000000E-03 0.  1.
         11   -1    0    0    0    0 -0.00000000000E+00 -0.00000000000E+00 -0.45593999997E+02  0.45594000000E+02  0.51100000000E-03 0. -1.
    9900012    2    1    2    0    0 -0.30010208027E+02 -0.96735482469E+01  0.29823365278E+02  0.47787271457E+02  0.20000001883E+02 0.  0.
         12    1    1    2    0    0  0.30010208027E+02  0.96735482469E+01 -0.29823365278E+02  0.43400728543E+02  0.00000000000E+00 0. -1.
         11    1    3    3    0    0  0.63530334654E+00 -0.15980993436E+01  0.73254823575E+01  0.75246411133E+01  0.51100000000E-03 0. -1.
        -11    1    3    3    0    0 -0.35717972828E+01 -0.17875340180E+00 -0.82033428537E+00  0.36691466595E+01  0.51100000000E-03 0.  1.
        -12    1    3    3    0    0 -0.27073714090E+02 -0.78966955015E+01  0.23318217206E+02  0.36593483685E+02  0.00000000000E+00 0.  1.
</event>
<event>
 7    1  0.2647566E-010  0.4778727E+02  0.7816164E-02  0.1312668E+00
        -11   -1    0    0    0    0  0.00000000000E+00  0.00000000000E+00  0.45593999997E+02  0.45594000000E+02  0.51100000000E-03 0. -1.
         11   -1    0    0    0    0 -0.00000000000E+00 -0.00000000000E+00 -0.45593999997E+02  0.45594000000E+02  0.51100000000E-03 0.  1.
    9900012    2    1    2    0    0  0.19911864582E+01  0.29977499009E+01 -0.43251265922E+02  0.47787270377E+02  0.19999996956E+02 0.  0.
         12    1    1    2    0    0 -0.19911864582E+01 -0.29977499009E+01  0.43251265922E+02  0.43400729623E+02  0.00000000000E+00 0. -1.
         11    1    3    3    0    0 -0.63861878256E+00 -0.29457474969E+01 -0.53874184023E+01  0.61732924414E+01  0.51100000000E-03 0. -1.
        -11    1    3    3    0    0 -0.28646990070E+01  0.98925463951E+01 -0.25842861756E+02  0.27819462227E+02  0.51100000000E-03 0.  1.
         12    1    3    3    0    0  0.54945042477E+01 -0.39490489973E+01 -0.12020985763E+02  0.13794515708E+02  0.00000000000E+00 0. -1.
</event>
<event>
 7    1  0.2647566E-010  0.4778727E+02  0.7816164E-02  0.1312668E+00
        -11   -1    0    0    0    0  0.00000000000E+00  0.00000000000E+00  0.45593999997E+02  0.45594000000E+02  0.51100000000E-03 0. -1.
         11   -1    0    0    0    0 -0.00000000000E+00 -0.00000000000E+00 -0.45593999997E+02  0.45594000000E+02  0.51100000000E-03 0.  1.
    9900012    2    1    2    0    0 -0.37792308436E+02 -0.21198166359E+02 -0.24499368632E+01  0.47787273917E+02  0.20000013096E+02 0.  0.
         12    1    1    2    0    0  0.37792308436E+02  0.21198166359E+02  0.24499368632E+01  0.43400726083E+02  0.00000000000E+00 0. -1.
         11    1    3    3    0    0 -0.20669037498E+01 -0.21336962669E+01  0.38158172156E+01  0.48358259020E+01  0.51100000000E-03 0. -1.
        -11    1    3    3    0    0 -0.22830152754E+02 -0.15150390269E+02  0.14219073086E+01  0.27436691141E+02  0.51100000000E-03 0.  1.
        -12    1    3    3    0    0 -0.12895251932E+02 -0.39140798225E+01 -0.76876613874E+01  0.15514756874E+02  0.00000000000E+00 0.  1.
</event>
<event>
 7    1  0.2647566E-010  0.4778727E+02  0.7816164E-02  0.1312668E+00
        -11   -1    0    0    0    0  0.00000000000E+00  0.00000000000E+00  0.45593999997E+02  0.45594000000E+02  0.51100000000E-03 0. -1.
         11   -1    0    0    0    0 -0.00000000000E+00 -0.00000000000E+00 -0.45593999997E+02  0.45594000000E+02  0.51100000000E-03 0.  1.
    9900012    2    1    2    0    0  0.50786122246E+01  0.39652789214E+02 -0.16896380854E+02  0.47787266359E+02  0.19999978638E+02 0.  0.
         12    1    1    2    0    0 -0.50786122246E+01 -0.39652789214E+02  0.16896380854E+02  0.43400733641E+02  0.00000000000E+00 0. -1.
         11    1    3    3    0    0 -0.50726947007E+01  0.13093905567E+02 -0.11338003697E+02  0.18048072546E+02  0.51100000000E-03 0. -1.
        -11    1    3    3    0    0  0.17041982626E+01  0.31261951242E+01 -0.30793387688E+01  0.47074106669E+01  0.51100000000E-03 0.  1.
        -12    1    3    3    0    0  0.84471086627E+01  0.23432688523E+02 -0.24790383885E+01  0.25031783147E+02  0.00000000000E+00 0.  1.
</event>
<event>
 7    1  0.2647566E-010  0.4778727E+02  0.7816164E-02  0.1312668E+00
        -11   -1    0    0    0    0  0.00000000000E+00  0.00000000000E+00  0.45593999997E+02  0.45594000000E+02  0.51100000000E-03 0. -1.
         11   -1    0    0    0    0 -0.00000000000E+00 -0.00000000000E+00 -0.45593999997E+02  0.45594000000E+02  0.51100000000E-03 0.  1.
    9900012    2    1    2    0    0 -0.24334491604E+02 -0.35878955136E+02 -0.20387247070E+01  0.47787270724E+02  0.19999998540E+02 0.  0.
         12    1    1    2    0    0  0.24334491604E+02  0.35878955136E+02  0.20387247070E+01  0.43400729276E+02  0.00000000000E+00 0. -1.
         11    1    3    3    0    0 -0.88530525135E+01 -0.20068106870E+02  0.51313209838E+00  0.21940117524E+02  0.51100000000E-03 0. -1.
        -11    1    3    3    0    0 -0.11995593196E+02 -0.11038959894E+02  0.42399989088E+01  0.16844301193E+02  0.51100000000E-03 0.  1.
         12    1    3    3    0    0 -0.34858458945E+01 -0.47718883716E+01 -0.67918557142E+01  0.90028520077E+01  0.00000000000E+00 0. -1.
</event>
<event>
 7    1  0.2647566E-010  0.4778727E+02  0.7816164E-02  0.1312668E+00
        -11   -1    0    0    0    0  0.00000000000E+00  0.00000000000E+00  0.45593999997E+02  0.45594000000E+02  0.51100000000E-03 0.  1.
         11   -1    0    0    0    0 -0.00000000000E+00 -0.00000000000E+00 -0.45593999997E+02  0.45594000000E+02  0.51100000000E-03 0. -1.
    9900012    2    1    2    0    0  0.80890265915E+01 -0.93685133715E+00  0.42629954651E+02  0.47787273333E+02  0.20000010436E+02 0.  0.
         12    1    1    2    0    0 -0.80890265915E+01  0.93685133715E+00 -0.42629954651E+02  0.43400726667E+02  0.00000000000E+00 0. -1.
         11    1    3    3    0    0  0.24165667606E+01 -0.18628155708E+00  0.16285335734E+02  0.16464709410E+02  0.51100000000E-03 0.  1.
        -11    1    3    3    0    0 -0.11825328917E+01  0.65844411558E+01  0.81708316851E+01  0.10560101328E+02  0.51100000000E-03 0. -1.
         12    1    3    3    0    0  0.68549927226E+01 -0.73350109359E+01  0.18173787233E+02  0.20762462596E+02  0.00000000000E+00 0. -1.
</event>
<event>
 7    1  0.2647566E-010  0.4778727E+02  0.7816164E-02  0.1312668E+00
        -11   -1    0    0    0    0  0.00000000000E+00  0.00000000000E+00  0.45593999997E+02  0.45594000000E+02  0.51100000000E-03 0.  1.
         11   -1    0    0    0    0 -0.00000000000E+00 -0.00000000000E+00 -0.45593999997E+02  0.45594000000E+02  0.51100000000E-03 0. -1.
    9900012    2    1    2    0    0  0.29969874467E+02  0.84808545938E+01  0.30224244174E+02  0.47787271825E+02  0.20000003559E+02 0.  0.
         12    1    1    2    0    0 -0.29969874467E+02 -0.84808545938E+01 -0.30224244174E+02  0.43400728175E+02  0.00000000000E+00 0. -1.
         11    1    3    3    0    0  0.57047189958E+01  0.31246074291E+01  0.15445186423E+01  0.66852470788E+01  0.51100000000E-03 0. -1.
        -11    1    3    3    0    0  0.23205253572E+02 -0.72699705114E+00  0.21641837006E+02  0.31739272634E+02  0.51100000000E-03 0.  1.
        -12    1    3    3    0    0  0.10599018997E+01  0.60832442159E+01  0.70378885253E+01  0.93627521126E+01  0.00000000000E+00 0.  1.
</event>
<event>
 7    1  0.2647566E-010  0.4778727E+02  0.7816164E-02  0.1312668E+00
        -11   -1    0    0    0    0  0.00000000000E+00  0.00000000000E+00  0.45593999997E+02  0.45594000000E+02  0.51100000000E-03 0. -1.
         11   -1    0    0    0    0 -0.00000000000E+00 -0.00000000000E+00 -0.45593999997E+02  0.45594000000E+02  0.51100000000E-03 0.  1.
    9900012    2    1    2    0    0  0.35272844679E+02 -0.24563140625E+02 -0.60084593070E+01  0.47787273827E+02  0.20000012685E+02 0.  0.
         12    1    1    2    0    0 -0.35272844679E+02  0.24563140625E+02  0.60084593070E+01  0.43400726173E+02  0.00000000000E+00 0. -1.
         11    1    3    3    0    0 -0.54276460539E+00  0.61144086559E+00  0.23088730439E+01  0.24493567203E+01  0.51100000000E-03 0. -1.
        -11    1    3    3    0    0  0.12223425225E+02 -0.75408786807E+01  0.11277931678E+01  0.14406557299E+02  0.51100000000E-03 0.  1.
         12    1    3    3    0    0  0.23592184060E+02 -0.17633702810E+02 -0.94451255188E+01  0.30931359808E+02  0.00000000000E+00 0. -1.
</event>
<event>
 7    1  0.2647566E-010  0.4778727E+02  0.7816164E-02  0.1312668E+00
        -11   -1    0    0    0    0  0.00000000000E+00  0.00000000000E+00  0.45593999997E+02  0.45594000000E+02  0.51100000000E-03 0.  1.
         11   -1    0    0    0    0 -0.00000000000E+00 -0.00000000000E+00 -0.45593999997E+02  0.45594000000E+02  0.51100000000E-03 0. -1.
    9900012    2    1    2    0    0 -0.42916791139E+02 -0.10548856585E+01  0.63764785787E+01  0.47787271613E+02  0.20000002594E+02 0.  0.
         12    1    1    2    0    0  0.42916791139E+02  0.10548856585E+01 -0.63764785787E+01  0.43400728387E+02  0.00000000000E+00 0. -1.
         11    1    3    3    0    0 -0.14837130267E+02 -0.46811683716E+01 -0.46370905393E+01  0.16234419633E+02  0.51100000000E-03 0. -1.
        -11    1    3    3    0    0 -0.12781808185E+01  0.34894359359E+00 -0.13181741559E+01  0.18689813276E+01  0.51100000000E-03 0.  1.
        -12    1    3    3    0    0 -0.26801480053E+02  0.32773391195E+01  0.12331743274E+02  0.29683870653E+02  0.00000000000E+00 0.  1.
</event>
<event>
 7    1  0.2647566E-010  0.4778729E+02  0.7816164E-02  0.1312668E+00
        -11   -1    0    0    0    0  0.00000000000E+00  0.00000000000E+00  0.45593999997E+02  0.45594000000E+02  0.51100000000E-03 0.  1.
         11   -1    0    0    0    0 -0.00000000000E+00 -0.00000000000E+00 -0.45593999997E+02  0.45594000000E+02  0.51100000000E-03 0. -1.
    9900012    2    1    2    0    0 -0.12583284307E+02 -0.40885596623E+02  0.73246774256E+01  0.47787286243E+02  0.20000069298E+02 0.  0.
         12    1    1    2    0    0  0.12583284307E+02  0.40885596623E+02 -0.73246774256E+01  0.43400713757E+02  0.00000000000E+00 0. -1.
         11    1    3    3    0    0 -0.46326005327E+01 -0.15368947406E+02 -0.32444505280E+01  0.16376568369E+02  0.51100000000E-03 0. -1.
        -11    1    3    3    0    0 -0.93126708125E+01 -0.20191428100E+02  0.35844701478E+01  0.22522611591E+02  0.51100000000E-03 0.  1.
         12    1    3    3    0    0  0.13619870379E+01 -0.53252211182E+01  0.69846578058E+01  0.88881062838E+01  0.00000000000E+00 0. -1.
</event>
<event>
 7    1  0.2647566E-010  0.4778727E+02  0.7816164E-02  0.1312668E+00
        -11   -1    0    0    0    0  0.00000000000E+00  0.00000000000E+00  0.45593999997E+02  0.45594000000E+02  0.51100000000E-03 0.  1.
         11   -1    0    0    0    0 -0.00000000000E+00 -0.00000000000E+00 -0.45593999997E+02  0.45594000000E+02  0.51100000000E-03 0. -1.
    9900012    2    1    2    0    0  0.36752034092E+02  0.21902699083E+02 -0.72926580290E+01  0.47787273069E+02  0.20000009232E+02 0.  0.
         12    1    1    2    0    0 -0.36752034092E+02 -0.21902699083E+02  0.72926580290E+01  0.43400726931E+02  0.00000000000E+00 0. -1.
         11    1    3    3    0    0  0.47960236988E+01  0.54904036619E+01 -0.84211608511E+01  0.11138326895E+02  0.51100000000E-03 0. -1.
        -11    1    3    3    0    0  0.36412402183E+01 -0.31315934221E+00 -0.66379662933E+00  0.37144751079E+01  0.51100000000E-03 0.  1.
         12    1    3    3    0    0  0.28314770175E+02  0.16725454763E+02  0.17922994514E+01  0.32934471066E+02  0.00000000000E+00 0. -1.
</event>
<event>
 7    1  0.2647566E-010  0.4778730E+02  0.7816164E-02  0.1312668E+00
        -11   -1    0    0    0    0  0.00000000000E+00  0.00000000000E+00  0.45593999997E+02  0.45594000000E+02  0.51100000000E-03 0.  1.
         11   -1    0    0    0    0 -0.00000000000E+00 -0.00000000000E+00 -0.45593999997E+02  0.45594000000E+02  0.51100000000E-03 0. -1.
    9900012    2    1    2    0    0  0.17903549866E+02  0.45550634534E+01  0.39272575240E+02  0.47787298775E+02  0.20000126432E+02 0.  0.
         12    1    1    2    0    0 -0.17903549866E+02 -0.45550634534E+01 -0.39272575240E+02  0.43400701225E+02  0.00000000000E+00 0. -1.
         11    1    3    3    0    0  0.87736868314E+01  0.49216683727E+01  0.91952903149E+01  0.13629151273E+02  0.51100000000E-03 0. -1.
        -11    1    3    3    0    0  0.11526148194E+02 -0.34054752982E+01  0.19629698566E+02  0.23016829066E+02  0.51100000000E-03 0.  1.
         12    1    3    3    0    0 -0.23962851595E+01  0.30388703789E+01  0.10447586360E+02  0.11141318436E+02  0.00000000000E+00 0. -1.
</event>
<event>
 7    1  0.2647566E-010  0.4778727E+02  0.7816164E-02  0.1312668E+00
        -11   -1    0    0    0    0  0.00000000000E+00  0.00000000000E+00  0.45593999997E+02  0.45594000000E+02  0.51100000000E-03 0. -1.
         11   -1    0    0    0    0 -0.00000000000E+00 -0.00000000000E+00 -0.45593999997E+02  0.45594000000E+02  0.51100000000E-03 0.  1.
    9900012    2    1    2    0    0  0.36940597614E+02  0.12802862575E+02 -0.18844152633E+02  0.47787272695E+02  0.20000007524E+02 0.  0.
         12    1    1    2    0    0 -0.36940597614E+02 -0.12802862575E+02  0.18844152633E+02  0.43400727305E+02  0.00000000000E+00 0. -1.
         11    1    3    3    0    0  0.16350499991E+01 -0.22996029937E+01 -0.27475322338E+01  0.39383367130E+01  0.51100000000E-03 0. -1.
        -11    1    3    3    0    0  0.33598086645E+01 -0.24393145127E+01 -0.29990582077E+01  0.51218082694E+01  0.51100000000E-03 0.  1.
        -12    1    3    3    0    0  0.31945738950E+02  0.17541780081E+02 -0.13097562192E+02  0.38727127712E+02  0.00000000000E+00 0.  1.
</event>
<event>
 7    1  0.2647566E-010  0.4778727E+02  0.7816164E-02  0.1312668E+00
        -11   -1    0    0    0    0  0.00000000000E+00  0.00000000000E+00  0.45593999997E+02  0.45594000000E+02  0.51100000000E-03 0. -1.
         11   -1    0    0    0    0 -0.00000000000E+00 -0.00000000000E+00 -0.45593999997E+02  0.45594000000E+02  0.51100000000E-03 0.  1.
    9900012    2    1    2    0    0  0.31078976361E+02  0.26359099803E+02 -0.14930451318E+02  0.47787270852E+02  0.19999999121E+02 0.  0.
         12    1    1    2    0    0 -0.31078976361E+02 -0.26359099803E+02  0.14930451318E+02  0.43400729148E+02  0.00000000000E+00 0. -1.
         11    1    3    3    0    0  0.15498112118E+02  0.24054812970E+01 -0.46184093185E+01  0.16349542024E+02  0.51100000000E-03 0. -1.
        -11    1    3    3    0    0 -0.50906160485E-01  0.25058016563E+01  0.84952754684E+00  0.26463806778E+01  0.51100000000E-03 0.  1.
        -12    1    3    3    0    0  0.15631770403E+02  0.21447816850E+02 -0.11161569546E+02  0.28791348150E+02  0.00000000000E+00 0.  1.
</event>
<event>
 7    1  0.2647566E-010  0.4778727E+02  0.7816164E-02  0.1312668E+00
        -11   -1    0    0    0    0  0.00000000000E+00  0.00000000000E+00  0.45593999997E+02  0.45594000000E+02  0.51100000000E-03 0.  1.
         11   -1    0    0    0    0 -0.00000000000E+00 -0.00000000000E+00 -0.45593999997E+02  0.45594000000E+02  0.51100000000E-03 0. -1.
    9900012    2    1    2    0    0 -0.12576143858E+02 -0.17083946351E+02  0.37862945045E+02  0.47787271611E+02  0.20000002581E+02 0.  0.
         12    1    1    2    0    0  0.12576143858E+02  0.17083946351E+02 -0.37862945045E+02  0.43400728389E+02  0.00000000000E+00 0. -1.
         11    1    3    3    0    0 -0.62437696581E+01 -0.13542411441E+02  0.30705800931E+02  0.34135432885E+02  0.51100000000E-03 0. -1.
        -11    1    3    3    0    0 -0.30580110920E+01 -0.65052289890E+01  0.48259756383E+01  0.86579141345E+01  0.51100000000E-03 0.  1.
         12    1    3    3    0    0 -0.32743631079E+01  0.29636940794E+01  0.23311684760E+01  0.49939245911E+01  0.00000000000E+00 0. -1.
</event>
<event>
 7    1  0.2647566E-010  0.4778727E+02  0.7816164E-02  0.1312668E+00
        -11   -1    0    0    0    0  0.00000000000E+00  0.00000000000E+00  0.45593999997E+02  0.45594000000E+02  0.51100000000E-03 0. -1.
         11   -1    0    0    0    0 -0.00000000000E+00 -0.00000000000E+00 -0.45593999997E+02  0.45594000000E+02  0.51100000000E-03 0.  1.
    9900012    2    1    2    0    0 -0.68251909618E+01  0.33843069838E+02 -0.26299932881E+02  0.47787273310E+02  0.20000010328E+02 0.  0.
         12    1    1    2    0    0  0.68251909618E+01 -0.33843069838E+02  0.26299932881E+02  0.43400726690E+02  0.00000000000E+00 0. -1.
         11    1    3    3    0    0  0.23793784917E+01 -0.11721584481E+01 -0.27886184991E+01  0.38486089472E+01  0.51100000000E-03 0. -1.
        -11    1    3    3    0    0  0.84391500487E+00  0.10945277024E+02 -0.58571502348E+01  0.12442567693E+02  0.51100000000E-03 0.  1.
        -12    1    3    3    0    0 -0.10048484458E+02  0.24069951262E+02 -0.17654164147E+02  0.31496096669E+02  0.00000000000E+00 0.  1.
</event>
<event>
 7    1  0.2647566E-010  0.4778728E+02  0.7816164E-02  0.1312668E+00
        -11   -1    0    0    0    0  0.00000000000E+00  0.00000000000E+00  0.45593999997E+02  0.45594000000E+02  0.51100000000E-03 0.  1.
         11   -1    0    0    0    0 -0.00000000000E+00 -0.00000000000E+00 -0.45593999997E+02  0.45594000000E+02  0.51100000000E-03 0. -1.
    9900012    2    1    2    0    0  0.34091025122E+02 -0.69501528825E+00  0.26850360322E+02  0.47787275472E+02  0.20000020187E+02 0.  0.
         12    1    1    2    0    0 -0.34091025122E+02  0.69501528825E+00 -0.26850360322E+02  0.43400724528E+02  0.00000000000E+00 0. -1.
         11    1    3    3    0    0  0.54690606998E+01  0.96414767556E+00  0.12221348787E+00  0.55547405049E+01  0.51100000000E-03 0. -1.
        -11    1    3    3    0    0  0.15888877207E+02 -0.87281834998E+01  0.15236386293E+02  0.23680901031E+02  0.51100000000E-03 0.  1.
        -12    1    3    3    0    0  0.12733087215E+02  0.70690205360E+01  0.11491760541E+02  0.18551633937E+02  0.00000000000E+00 0.  1.
</event>
<event>
 7    1  0.2647566E-010  0.4778727E+02  0.7816164E-02  0.1312668E+00
        -11   -1    0    0    0    0  0.00000000000E+00  0.00000000000E+00  0.45593999997E+02  0.45594000000E+02  0.51100000000E-03 0.  1.
         11   -1    0    0    0    0 -0.00000000000E+00 -0.00000000000E+00 -0.45593999997E+02  0.45594000000E+02  0.51100000000E-03 0. -1.
    9900012    2    1    2    0    0 -0.30267004313E+02 -0.63480404975E+01  0.30450518855E+02  0.47787271126E+02  0.20000000373E+02 0.  0.
         12    1    1    2    0    0  0.30267004313E+02  0.63480404975E+01 -0.30450518855E+02  0.43400728874E+02  0.00000000000E+00 0. -1.
         11    1    3    3    0    0 -0.66464449998E+00 -0.26058960761E+01  0.60386966036E+01  0.66104692422E+01  0.51100000000E-03 0. -1.
        -11    1    3    3    0    0 -0.99015854947E+01  0.29076868861E+01  0.15346983700E+02  0.18493943530E+02  0.51100000000E-03 0.  1.
         12    1    3    3    0    0 -0.19700774318E+02 -0.66498313075E+01  0.90648385519E+01  0.22682858354E+02  0.00000000000E+00 0. -1.
</event>
<event>
 7    1  0.2647566E-010  0.4778728E+02  0.7816164E-02  0.1312668E+00
        -11   -1    0    0    0    0  0.00000000000E+00  0.00000000000E+00  0.45593999997E+02  0.45594000000E+02  0.51100000000E-03 0. -1.
         11   -1    0    0    0    0 -0.00000000000E+00 -0.00000000000E+00 -0.45593999997E+02  0.45594000000E+02  0.51100000000E-03 0.  1.
    9900012    2    1    2    0    0  0.72679300806E+01  0.36094374516E+02  0.22978163044E+02  0.47787278160E+02  0.20000032442E+02 0.  0.
         12    1    1    2    0    0 -0.72679300806E+01 -0.36094374516E+02 -0.22978163044E+02  0.43400721840E+02  0.00000000000E+00 0. -1.
         11    1    3    3    0    0 -0.48064196291E+00  0.28869287268E+02  0.19701166813E+02  0.34954294989E+02  0.51100000000E-03 0. -1.
        -11    1    3    3    0    0  0.47668495331E+01  0.76270930740E+01  0.97946453631E+00  0.90473617298E+01  0.51100000000E-03 0.  1.
         12    1    3    3    0    0  0.29817225104E+01 -0.40200582611E+00  0.22975316940E+01  0.37856214415E+01  0.00000000000E+00 0. -1.
</event>
<event>
 7    1  0.2647566E-010  0.4778727E+02  0.7816164E-02  0.1312668E+00
        -11   -1    0    0    0    0  0.00000000000E+00  0.00000000000E+00  0.45593999997E+02  0.45594000000E+02  0.51100000000E-03 0.  1.
         11   -1    0    0    0    0 -0.00000000000E+00 -0.00000000000E+00 -0.45593999997E+02  0.45594000000E+02  0.51100000000E-03 0. -1.
    9900012    2    1    2    0    0  0.20043460920E+02  0.31358916351E+02  0.22327141658E+02  0.47787271723E+02  0.20000003092E+02 0.  0.
         12    1    1    2    0    0 -0.20043460920E+02 -0.31358916351E+02 -0.22327141658E+02  0.43400728277E+02  0.00000000000E+00 0. -1.
         11    1    3    3    0    0 -0.73319235538E-01 -0.11557941291E+01  0.17203841227E+01  0.20738750131E+01  0.51100000000E-03 0. -1.
        -11    1    3    3    0    0  0.46564381519E+01  0.18018755129E+02  0.14689732671E+02  0.23709622496E+02  0.51100000000E-03 0.  1.
         12    1    3    3    0    0  0.15460342004E+02  0.14495955351E+02  0.59170248646E+01  0.22003774214E+02  0.00000000000E+00 0. -1.
</event>
<event>
 7    1  0.2647566E-010  0.4778727E+02  0.7816164E-02  0.1312668E+00
        -11   -1    0    0    0    0  0.00000000000E+00  0.00000000000E+00  0.45593999997E+02  0.45594000000E+02  0.51100000000E-03 0.  1.
         11   -1    0    0    0    0 -0.00000000000E+00 -0.00000000000E+00 -0.45593999997E+02  0.45594000000E+02  0.51100000000E-03 0. -1.
    9900012    2    1    2    0    0 -0.40748738932E+02 -0.10944044333E+02 -0.10168163841E+02  0.47787269744E+02  0.19999994069E+02 0.  0.
         12    1    1    2    0    0  0.40748738932E+02  0.10944044333E+02  0.10168163841E+02  0.43400730256E+02  0.00000000000E+00 0. -1.
         11    1    3    3    0    0 -0.20055094525E+02 -0.49196022280E+01 -0.56259136369E+01  0.21402341157E+02  0.51100000000E-03 0. -1.
        -11    1    3    3    0    0 -0.18779434715E+02 -0.91630765568E+01 -0.47310516758E+00  0.20901027941E+02  0.51100000000E-03 0.  1.
         12    1    3    3    0    0 -0.19142096917E+01  0.31386344522E+01 -0.40691450367E+01  0.54839006463E+01  0.00000000000E+00 0. -1.
</event>
<event>
 7    1  0.2647566E-010  0.4778727E+02  0.7816164E-02  0.1312668E+00
        -11   -1    0    0    0    0  0.00000000000E+00  0.00000000000E+00  0.45593999997E+02  0.45594000000E+02  0.51100000000E-03 0. -1.
         11   -1    0    0    0    0 -0.00000000000E+00 -0.00000000000E+00 -0.45593999997E+02  0.45594000000E+02  0.51100000000E-03 0.  1.
    9900012    2    1    2    0    0 -0.83990869217E+00 -0.33735162452E+02 -0.27292061578E+02  0.47787271234E+02  0.20000000864E+02 0.  0.
         12    1    1    2    0    0  0.83990869217E+00  0.33735162452E+02  0.27292061578E+02  0.43400728766E+02  0.00000000000E+00 0. -1.
         11    1    3    3    0    0 -0.50401973686E+01 -0.34438037992E+01 -0.50364191983E+01  0.79138418435E+01  0.51100000000E-03 0. -1.
        -11    1    3    3    0    0 -0.44877022082E+01 -0.11782442932E+02 -0.76733075875E+01  0.14759575948E+02  0.51100000000E-03 0.  1.
        -12    1    3    3    0    0  0.86879908846E+01 -0.18508915720E+02 -0.14582334792E+02  0.25113853443E+02  0.00000000000E+00 0.  1.
</event>
<event>
 7    1  0.2647566E-010  0.4778729E+02  0.7816164E-02  0.1312668E+00
        -11   -1    0    0    0    0  0.00000000000E+00  0.00000000000E+00  0.45593999997E+02  0.45594000000E+02  0.51100000000E-03 0.  1.
         11   -1    0    0    0    0 -0.00000000000E+00 -0.00000000000E+00 -0.45593999997E+02  0.45594000000E+02  0.51100000000E-03 0. -1.
    9900012    2    1    2    0    0  0.38867885581E+02 -0.49140347986E+01  0.18675142042E+02  0.47787294962E+02  0.20000109048E+02 0.  0.
         12    1    1    2    0    0 -0.38867885581E+02  0.49140347986E+01 -0.18675142042E+02  0.43400705038E+02  0.00000000000E+00 0. -1.
         11    1    3    3    0    0  0.17260843440E+02 -0.20510686301E+01 -0.12375756642E+01  0.17426278793E+02  0.51100000000E-03 0. -1.
        -11    1    3    3    0    0  0.10654080454E+01 -0.20069663038E+01  0.12448777931E+01  0.25908934808E+01  0.51100000000E-03 0.  1.
        -12    1    3    3    0    0  0.20541634095E+02 -0.85599986470E+00  0.18667839913E+02  0.27770122688E+02  0.00000000000E+00 0.  1.
</event>
<event>
 7    1  0.2647566E-010  0.4778725E+02  0.7816164E-02  0.1312668E+00
        -11   -1    0    0    0    0  0.00000000000E+00  0.00000000000E+00  0.45593999997E+02  0.45594000000E+02  0.51100000000E-03 0.  1.
         11   -1    0    0    0    0 -0.00000000000E+00 -0.00000000000E+00 -0.45593999997E+02  0.45594000000E+02  0.51100000000E-03 0. -1.
    9900012    2    1    2    0    0  0.31700569436E+02  0.28964001527E+02  0.63075691361E+01  0.47787252132E+02  0.19999913772E+02 0.  0.
         12    1    1    2    0    0 -0.31700569436E+02 -0.28964001527E+02 -0.63075691361E+01  0.43400747868E+02  0.00000000000E+00 0. -1.
         11    1    3    3    0    0  0.96101180995E+01  0.10249196427E+02 -0.36524949393E+01  0.14516925185E+02  0.51100000000E-03 0. -1.
        -11    1    3    3    0    0  0.10949035828E+02  0.48449952523E+01 -0.15619804820E+01  0.12074566155E+02  0.51100000000E-03 0.  1.
        -12    1    3    3    0    0  0.11141415509E+02  0.13869809848E+02  0.11522044557E+02  0.21195760792E+02  0.00000000000E+00 0.  1.
</event>
<event>
 7    1  0.2647566E-010  0.4778727E+02  0.7816164E-02  0.1312668E+00
        -11   -1    0    0    0    0  0.00000000000E+00  0.00000000000E+00  0.45593999997E+02  0.45594000000E+02  0.51100000000E-03 0.  1.
         11   -1    0    0    0    0 -0.00000000000E+00 -0.00000000000E+00 -0.45593999997E+02  0.45594000000E+02  0.51100000000E-03 0. -1.
    9900012    2    1    2    0    0  0.12558934225E+01 -0.72551482973E+01  0.42771586529E+02  0.47787273517E+02  0.20000011272E+02 0.  0.
         12    1    1    2    0    0 -0.12558934225E+01  0.72551482973E+01 -0.42771586529E+02  0.43400726483E+02  0.00000000000E+00 0. -1.
         11    1    3    3    0    0  0.38714708092E+01  0.11594561535E+01  0.12521294113E+01  0.42308927098E+01  0.51100000000E-03 0. -1.
        -11    1    3    3    0    0 -0.35255008444E+01 -0.29176268538E+01  0.57170077793E+01  0.73229694026E+01  0.51100000000E-03 0.  1.
        -12    1    3    3    0    0  0.90992345772E+00 -0.54969775970E+01  0.35802449338E+02  0.36233411404E+02  0.00000000000E+00 0.  1.
</event>
<event>
 7    1  0.2647566E-010  0.4778727E+02  0.7816164E-02  0.1312668E+00
        -11   -1    0    0    0    0  0.00000000000E+00  0.00000000000E+00  0.45593999997E+02  0.45594000000E+02  0.51100000000E-03 0.  1.
         11   -1    0    0    0    0 -0.00000000000E+00 -0.00000000000E+00 -0.45593999997E+02  0.45594000000E+02  0.51100000000E-03 0. -1.
    9900012    2    1    2    0    0 -0.89634065085E+00  0.53824298256E+00  0.43388136283E+02  0.47787268414E+02  0.19999988009E+02 0.  0.
         12    1    1    2    0    0  0.89634065085E+00 -0.53824298256E+00 -0.43388136283E+02  0.43400731586E+02  0.00000000000E+00 0. -1.
         11    1    3    3    0    0  0.58567112081E+00  0.42357349905E+01  0.86951309191E+01  0.96896730354E+01  0.51100000000E-03 0. -1.
        -11    1    3    3    0    0  0.31038130079E+01  0.41488015740E+01  0.21237798637E+02  0.21860702205E+02  0.51100000000E-03 0.  1.
        -12    1    3    3    0    0 -0.45858247796E+01 -0.78462935820E+01  0.13455206726E+02  0.16236893174E+02  0.00000000000E+00 0.  1.
</event>
<event>
 7    1  0.2647566E-010  0.4778728E+02  0.7816164E-02  0.1312668E+00
        -11   -1    0    0    0    0  0.00000000000E+00  0.00000000000E+00  0.45593999997E+02  0.45594000000E+02  0.51100000000E-03 0.  1.
         11   -1    0    0    0    0 -0.00000000000E+00 -0.00000000000E+00 -0.45593999997E+02  0.45594000000E+02  0.51100000000E-03 0. -1.
    9900012    2    1    2    0    0 -0.31445719155E+02  0.19360758970E+02  0.22802425591E+02  0.47787275882E+02  0.20000022058E+02 0.  0.
         12    1    1    2    0    0  0.31445719155E+02 -0.19360758970E+02 -0.22802425591E+02  0.43400724118E+02  0.00000000000E+00 0. -1.
         11    1    3    3    0    0 -0.32627824259E+01 -0.10074249170E+01  0.50546042654E+01  0.60999736609E+01  0.51100000000E-03 0.  1.
        -11    1    3    3    0    0 -0.94286614871E+01 -0.40738368393E+00  0.68085702661E+01  0.11637106523E+02  0.51100000000E-03 0. -1.
        -12    1    3    3    0    0 -0.18754275242E+02  0.20775567571E+02  0.10939251060E+02  0.30050195698E+02  0.00000000000E+00 0.  1.
</event>
<event>
 7    1  0.2647566E-010  0.4778727E+02  0.7816164E-02  0.1312668E+00
        -11   -1    0    0    0    0  0.00000000000E+00  0.00000000000E+00  0.45593999997E+02  0.45594000000E+02  0.51100000000E-03 0.  1.
         11   -1    0    0    0    0 -0.00000000000E+00 -0.00000000000E+00 -0.45593999997E+02  0.45594000000E+02  0.51100000000E-03 0. -1.
    9900012    2    1    2    0    0 -0.28948571938E+02  0.62381629068E+01  0.31728359937E+02  0.47787270536E+02  0.19999997683E+02 0.  0.
         12    1    1    2    0    0  0.28948571938E+02 -0.62381629068E+01 -0.31728359937E+02  0.43400729464E+02  0.00000000000E+00 0. -1.
         11    1    3    3    0    0 -0.20688463045E+01 -0.31460263615E+01  0.40598010877E-01  0.37655352022E+01  0.51100000000E-03 0. -1.
        -11    1    3    3    0    0 -0.17438167427E+02  0.27758706542E+00  0.18035694270E+02  0.25088902046E+02  0.51100000000E-03 0.  1.
        -12    1    3    3    0    0 -0.94415582057E+01  0.91066022029E+01  0.13652067657E+02  0.18932833289E+02  0.00000000000E+00 0.  1.
</event>
<event>
 7    1  0.2647566E-010  0.4778727E+02  0.7816164E-02  0.1312668E+00
        -11   -1    0    0    0    0  0.00000000000E+00  0.00000000000E+00  0.45593999997E+02  0.45594000000E+02  0.51100000000E-03 0.  1.
         11   -1    0    0    0    0 -0.00000000000E+00 -0.00000000000E+00 -0.45593999997E+02  0.45594000000E+02  0.51100000000E-03 0. -1.
    9900012    2    1    2    0    0  0.33200968997E+02  0.83510663553E+01  0.26675433203E+02  0.47787269727E+02  0.19999993994E+02 0.  0.
         12    1    1    2    0    0 -0.33200968997E+02 -0.83510663553E+01 -0.26675433203E+02  0.43400730273E+02  0.00000000000E+00 0. -1.
         11    1    3    3    0    0 -0.80474331743E+00  0.29868927322E+01  0.11899749257E+01  0.33143899266E+01  0.51100000000E-03 0.  1.
        -11    1    3    3    0    0  0.21754811484E+01  0.63881496799E+00 -0.12920885475E+01  0.26096543576E+01  0.51100000000E-03 0. -1.
        -12    1    3    3    0    0  0.31830231166E+02  0.47253586551E+01  0.26777546825E+02  0.41863225443E+02  0.00000000000E+00 0.  1.
</event>
<event>
 7    1  0.2647566E-010  0.4778727E+02  0.7816164E-02  0.1312668E+00
        -11   -1    0    0    0    0  0.00000000000E+00  0.00000000000E+00  0.45593999997E+02  0.45594000000E+02  0.51100000000E-03 0.  1.
         11   -1    0    0    0    0 -0.00000000000E+00 -0.00000000000E+00 -0.45593999997E+02  0.45594000000E+02  0.51100000000E-03 0. -1.
    9900012    2    1    2    0    0  0.37145606081E+02  0.18944192857E+02  0.12039293265E+02  0.47787273319E+02  0.20000010370E+02 0.  0.
         12    1    1    2    0    0 -0.37145606081E+02 -0.18944192857E+02 -0.12039293265E+02  0.43400726681E+02  0.00000000000E+00 0. -1.
         11    1    3    3    0    0  0.24211121558E+02  0.70056005708E+01  0.14655700867E+02  0.29155555467E+02  0.51100000000E-03 0. -1.
        -11    1    3    3    0    0  0.78235047100E+01  0.61454347150E+01  0.11899335308E+01  0.10019457862E+02  0.51100000000E-03 0.  1.
         12    1    3    3    0    0  0.51109798134E+01  0.57931575717E+01 -0.38063411331E+01  0.86122599894E+01  0.00000000000E+00 0. -1.
</event>
<event>
 7    1  0.2647566E-010  0.4778727E+02  0.7816164E-02  0.1312668E+00
        -11   -1    0    0    0    0  0.00000000000E+00  0.00000000000E+00  0.45593999997E+02  0.45594000000E+02  0.51100000000E-03 0.  1.
         11   -1    0    0    0    0 -0.00000000000E+00 -0.00000000000E+00 -0.45593999997E+02  0.45594000000E+02  0.51100000000E-03 0. -1.
    9900012    2    1    2    0    0  0.53694137188E+01 -0.68167861728E+01  0.42524395548E+02  0.47787269659E+02  0.19999993681E+02 0.  0.
         12    1    1    2    0    0 -0.53694137188E+01  0.68167861728E+01 -0.42524395548E+02  0.43400730341E+02  0.00000000000E+00 0. -1.
         11    1    3    3    0    0 -0.25828173856E+01  0.28464697176E+01  0.11229059200E+02  0.11868660677E+02  0.51100000000E-03 0. -1.
        -11    1    3    3    0    0 -0.28945838723E+00  0.75109623572E+00 -0.83002328776E+00  0.11562312193E+01  0.51100000000E-03 0.  1.
        -12    1    3    3    0    0  0.82416894916E+01 -0.10414352126E+02  0.32125359637E+02  0.34762377762E+02  0.00000000000E+00 0.  1.
</event>
<event>
 7    1  0.2647566E-010  0.4778726E+02  0.7816164E-02  0.1312668E+00
        -11   -1    0    0    0    0  0.00000000000E+00  0.00000000000E+00  0.45593999997E+02  0.45594000000E+02  0.51100000000E-03 0.  1.
         11   -1    0    0    0    0 -0.00000000000E+00 -0.00000000000E+00 -0.45593999997E+02  0.45594000000E+02  0.51100000000E-03 0. -1.
    9900012    2    1    2    0    0 -0.33000746471E+02 -0.20476033622E+02  0.19372848548E+02  0.47787257133E+02  0.19999936574E+02 0.  0.
         12    1    1    2    0    0  0.33000746471E+02  0.20476033622E+02 -0.19372848548E+02  0.43400742867E+02  0.00000000000E+00 0. -1.
         11    1    3    3    0    0 -0.22943906376E+02 -0.12156882020E+02  0.13203481295E+02  0.29129787826E+02  0.51100000000E-03 0. -1.
        -11    1    3    3    0    0 -0.99166105993E+01 -0.57892932498E+01  0.91952833442E+01  0.14710823164E+02  0.51100000000E-03 0.  1.
         12    1    3    3    0    0 -0.14022949589E+00 -0.25298583518E+01 -0.30259160914E+01  0.39466461437E+01  0.00000000000E+00 0. -1.
</event>
<event>
 7    1  0.2647566E-010  0.4778727E+02  0.7816164E-02  0.1312668E+00
        -11   -1    0    0    0    0  0.00000000000E+00  0.00000000000E+00  0.45593999997E+02  0.45594000000E+02  0.51100000000E-03 0.  1.
         11   -1    0    0    0    0 -0.00000000000E+00 -0.00000000000E+00 -0.45593999997E+02  0.45594000000E+02  0.51100000000E-03 0. -1.
    9900012    2    1    2    0    0 -0.14781953862E+02 -0.14197877124E+02  0.38256207706E+02  0.47787270711E+02  0.19999998480E+02 0.  0.
         12    1    1    2    0    0  0.14781953862E+02  0.14197877124E+02 -0.38256207706E+02  0.43400729289E+02  0.00000000000E+00 0. -1.
         11    1    3    3    0    0 -0.48054399125E+01 -0.22474520248E+01  0.18308496056E+01  0.56120677024E+01  0.51100000000E-03 0. -1.
        -11    1    3    3    0    0 -0.12040860969E+02 -0.53106031662E+01  0.29774914902E+02  0.32553500527E+02  0.51100000000E-03 0.  1.
         12    1    3    3    0    0  0.20643470197E+01 -0.66398219328E+01  0.66504431978E+01  0.96217024816E+01  0.00000000000E+00 0. -1.
</event>
<event>
 7    1  0.2647566E-010  0.4778727E+02  0.7816164E-02  0.1312668E+00
        -11   -1    0    0    0    0  0.00000000000E+00  0.00000000000E+00  0.45593999997E+02  0.45594000000E+02  0.51100000000E-03 0.  1.
         11   -1    0    0    0    0 -0.00000000000E+00 -0.00000000000E+00 -0.45593999997E+02  0.45594000000E+02  0.51100000000E-03 0. -1.
    9900012    2    1    2    0    0  0.33627023535E+02  0.96545610014E+01  0.25683376604E+02  0.47787273120E+02  0.20000009463E+02 0.  0.
         12    1    1    2    0    0 -0.33627023535E+02 -0.96545610014E+01 -0.25683376604E+02  0.43400726880E+02  0.00000000000E+00 0. -1.
         11    1    3    3    0    0  0.18175940170E+02  0.12074990650E+01  0.10463852724E+02  0.21007500307E+02  0.51100000000E-03 0. -1.
        -11    1    3    3    0    0  0.12063023454E+02  0.72388210795E+01  0.34671495417E+01  0.14489243999E+02  0.51100000000E-03 0.  1.
         12    1    3    3    0    0  0.33880599114E+01  0.12082408569E+01  0.11752374338E+02  0.12290528814E+02  0.00000000000E+00 0. -1.
</event>
<event>
 7    1  0.2647566E-010  0.4778727E+02  0.7816164E-02  0.1312668E+00
        -11   -1    0    0    0    0  0.00000000000E+00  0.00000000000E+00  0.45593999997E+02  0.45594000000E+02  0.51100000000E-03 0. -1.
         11   -1    0    0    0    0 -0.00000000000E+00 -0.00000000000E+00 -0.45593999997E+02  0.45594000000E+02  0.51100000000E-03 0.  1.
    9900012    2    1    2    0    0  0.14157902698E+02 -0.37489106260E+02 -0.16665656172E+02  0.47787269676E+02  0.19999993762E+02 0.  0.
         12    1    1    2    0    0 -0.14157902698E+02  0.37489106260E+02  0.16665656172E+02  0.43400730324E+02  0.00000000000E+00 0. -1.
         11    1    3    3    0    0 -0.15070158191E+01 -0.72802247481E+01  0.20917614920E+01  0.77232270109E+01  0.51100000000E-03 0. -1.
        -11    1    3    3    0    0 -0.26305190915E+00 -0.79014893794E+01 -0.30615126991E+01  0.84779473334E+01  0.51100000000E-03 0.  1.
        -12    1    3    3    0    0  0.15927970426E+02 -0.22307392133E+02 -0.15695904965E+02  0.31586095332E+02  0.00000000000E+00 0.  1.
</event>
<event>
 7    1  0.2647566E-010  0.4778728E+02  0.7816164E-02  0.1312668E+00
        -11   -1    0    0    0    0  0.00000000000E+00  0.00000000000E+00  0.45593999997E+02  0.45594000000E+02  0.51100000000E-03 0. -1.
         11   -1    0    0    0    0 -0.00000000000E+00 -0.00000000000E+00 -0.45593999997E+02  0.45594000000E+02  0.51100000000E-03 0.  1.
    9900012    2    1    2    0    0 -0.78875870743E+01 -0.30394906591E+02 -0.29959279295E+02  0.47787276591E+02  0.20000025289E+02 0.  0.
         12    1    1    2    0    0  0.78875870743E+01  0.30394906591E+02  0.29959279295E+02  0.43400723409E+02  0.00000000000E+00 0. -1.
         11    1    3    3    0    0 -0.79095609721E+00 -0.15834605551E+02 -0.63484639441E+01  0.17078153858E+02  0.51100000000E-03 0. -1.
        -11    1    3    3    0    0  0.20693907147E+01 -0.26718903356E+01 -0.92080881709E+00  0.35027510666E+01  0.51100000000E-03 0.  1.
        -12    1    3    3    0    0 -0.91660216917E+01 -0.11888410705E+02 -0.22690006534E+02  0.27206371666E+02  0.00000000000E+00 0.  1.
</event>
<event>
 7    1  0.2647566E-010  0.4778727E+02  0.7816164E-02  0.1312668E+00
        -11   -1    0    0    0    0  0.00000000000E+00  0.00000000000E+00  0.45593999997E+02  0.45594000000E+02  0.51100000000E-03 0.  1.
         11   -1    0    0    0    0 -0.00000000000E+00 -0.00000000000E+00 -0.45593999997E+02  0.45594000000E+02  0.51100000000E-03 0. -1.
    9900012    2    1    2    0    0  0.25413224556E+02 -0.13057885900E+02  0.32669298490E+02  0.47787269242E+02  0.19999991780E+02 0.  0.
         12    1    1    2    0    0 -0.25413224556E+02  0.13057885900E+02 -0.32669298490E+02  0.43400730758E+02  0.00000000000E+00 0. -1.
         11    1    3    3    0    0  0.82821101464E+00  0.89908584073E+00 -0.52671010190E+00  0.13310569583E+01  0.51100000000E-03 0. -1.
        -11    1    3    3    0    0 -0.12531276242E+00  0.22923107586E+01  0.46345221949E+00  0.23420461403E+01  0.51100000000E-03 0.  1.
        -12    1    3    3    0    0  0.24710326304E+02 -0.16249282499E+02  0.32732556373E+02  0.44114166143E+02  0.00000000000E+00 0.  1.
</event>
<event>
 7    1  0.2647566E-010  0.4778727E+02  0.7816164E-02  0.1312668E+00
        -11   -1    0    0    0    0  0.00000000000E+00  0.00000000000E+00  0.45593999997E+02  0.45594000000E+02  0.51100000000E-03 0. -1.
         11   -1    0    0    0    0 -0.00000000000E+00 -0.00000000000E+00 -0.45593999997E+02  0.45594000000E+02  0.51100000000E-03 0.  1.
    9900012    2    1    2    0    0 -0.27626595445E+02 -0.32228685474E+02 -0.90391620053E+01  0.47787269672E+02  0.19999993742E+02 0.  0.
         12    1    1    2    0    0  0.27626595445E+02  0.32228685474E+02  0.90391620053E+01  0.43400730328E+02  0.00000000000E+00 0. -1.
         11    1    3    3    0    0  0.19086864845E+01 -0.14927314616E+01 -0.37712100788E+01  0.44825614365E+01  0.51100000000E-03 0. -1.
        -11    1    3    3    0    0 -0.10926877274E+02 -0.13269961621E+02  0.25957221464E+00  0.17191739481E+02  0.51100000000E-03 0.  1.
        -12    1    3    3    0    0 -0.18608404655E+02 -0.17465992392E+02 -0.55275241411E+01  0.26112968754E+02  0.00000000000E+00 0.  1.
</event>
<event>
 7    1  0.2647566E-010  0.4778727E+02  0.7816164E-02  0.1312668E+00
        -11   -1    0    0    0    0  0.00000000000E+00  0.00000000000E+00  0.45593999997E+02  0.45594000000E+02  0.51100000000E-03 0.  1.
         11   -1    0    0    0    0 -0.00000000000E+00 -0.00000000000E+00 -0.45593999997E+02  0.45594000000E+02  0.51100000000E-03 0. -1.
    9900012    2    1    2    0    0  0.41941370418E+02 -0.10498658080E+02  0.37845422145E+01  0.47787272659E+02  0.20000007360E+02 0.  0.
         12    1    1    2    0    0 -0.41941370418E+02  0.10498658080E+02 -0.37845422145E+01  0.43400727341E+02  0.00000000000E+00 0. -1.
         11    1    3    3    0    0  0.17931059445E+02 -0.80131472592E+01  0.47322883026E+01  0.20202177473E+02  0.51100000000E-03 0. -1.
        -11    1    3    3    0    0  0.43375694166E-01 -0.15460198457E+01  0.29061819706E+01  0.32921046036E+01  0.51100000000E-03 0.  1.
        -12    1    3    3    0    0  0.23966935278E+02 -0.93949097521E+00 -0.38539280586E+01  0.24292990582E+02  0.00000000000E+00 0.  1.
</event>
<event>
 7    1  0.2647566E-010  0.4778727E+02  0.7816164E-02  0.1312668E+00
        -11   -1    0    0    0    0  0.00000000000E+00  0.00000000000E+00  0.45593999997E+02  0.45594000000E+02  0.51100000000E-03 0.  1.
         11   -1    0    0    0    0 -0.00000000000E+00 -0.00000000000E+00 -0.45593999997E+02  0.45594000000E+02  0.51100000000E-03 0. -1.
    9900012    2    1    2    0    0  0.10885127745E+01 -0.30065251720E+02  0.31281290818E+02  0.47787269864E+02  0.19999994620E+02 0.  0.
         12    1    1    2    0    0 -0.10885127745E+01  0.30065251720E+02 -0.31281290818E+02  0.43400730136E+02  0.00000000000E+00 0. -1.
         11    1    3    3    0    0 -0.30088596578E+01  0.17786884360E+01  0.14317758895E+01  0.37771618249E+01  0.51100000000E-03 0. -1.
        -11    1    3    3    0    0 -0.35923830858E+00 -0.32001508135E+00  0.66175736040E+00  0.81815944645E+00  0.51100000000E-03 0.  1.
        -12    1    3    3    0    0  0.44566107409E+01 -0.31523925075E+02  0.29187757568E+02  0.43191948593E+02  0.00000000000E+00 0.  1.
</event>
<event>
 7    1  0.2647566E-010  0.4778728E+02  0.7816164E-02  0.1312668E+00
        -11   -1    0    0    0    0  0.00000000000E+00  0.00000000000E+00  0.45593999997E+02  0.45594000000E+02  0.51100000000E-03 0. -1.
         11   -1    0    0    0    0 -0.00000000000E+00 -0.00000000000E+00 -0.45593999997E+02  0.45594000000E+02  0.51100000000E-03 0.  1.
    9900012    2    1    2    0    0  0.28153077302E+01 -0.13934003452E+02 -0.41006589729E+02  0.47787276377E+02  0.20000024312E+02 0.  0.
         12    1    1    2    0    0 -0.28153077302E+01  0.13934003452E+02  0.41006589729E+02  0.43400723623E+02  0.00000000000E+00 0. -1.
         11    1    3    3    0    0  0.53095531373E+01 -0.30067926230E+01 -0.25280751207E+02  0.26006701795E+02  0.51100000000E-03 0.  1.
        -11    1    3    3    0    0 -0.15897744007E+01 -0.85705508466E+01 -0.16885496041E+02  0.19002676161E+02  0.51100000000E-03 0. -1.
         12    1    3    3    0    0 -0.90447100643E+00 -0.23566599825E+01  0.11596575192E+01  0.27778984208E+01  0.00000000000E+00 0. -1.
</event>
<event>
 7    1  0.2647566E-010  0.4778728E+02  0.7816164E-02  0.1312668E+00
        -11   -1    0    0    0    0  0.00000000000E+00  0.00000000000E+00  0.45593999997E+02  0.45594000000E+02  0.51100000000E-03 0. -1.
         11   -1    0    0    0    0 -0.00000000000E+00 -0.00000000000E+00 -0.45593999997E+02  0.45594000000E+02  0.51100000000E-03 0.  1.
    9900012    2    1    2    0    0  0.12289232734E+02 -0.20959955552E+02 -0.35962169519E+02  0.47787278641E+02  0.20000034637E+02 0.  0.
         12    1    1    2    0    0 -0.12289232734E+02  0.20959955552E+02  0.35962169519E+02  0.43400721359E+02  0.00000000000E+00 0. -1.
         11    1    3    3    0    0  0.11814527129E+02 -0.13395989627E+02 -0.29179701172E+02  0.34212432683E+02  0.51100000000E-03 0. -1.
        -11    1    3    3    0    0 -0.17304850386E+01 -0.41561378921E+01 -0.81339116255E+01  0.92966972221E+01  0.51100000000E-03 0.  1.
        -12    1    3    3    0    0  0.22051906432E+01 -0.34078280326E+01  0.13514432779E+01  0.42781487359E+01  0.00000000000E+00 0.  1.
</event>
<event>
 7    1  0.2647566E-010  0.4778727E+02  0.7816164E-02  0.1312668E+00
        -11   -1    0    0    0    0  0.00000000000E+00  0.00000000000E+00  0.45593999997E+02  0.45594000000E+02  0.51100000000E-03 0. -1.
         11   -1    0    0    0    0 -0.00000000000E+00 -0.00000000000E+00 -0.45593999997E+02  0.45594000000E+02  0.51100000000E-03 0.  1.
    9900012    2    1    2    0    0 -0.37131830208E+02  0.68653213532E+01 -0.21394343028E+02  0.47787269989E+02  0.19999995188E+02 0.  0.
         12    1    1    2    0    0  0.37131830208E+02 -0.68653213532E+01  0.21394343028E+02  0.43400730011E+02  0.00000000000E+00 0. -1.
         11    1    3    3    0    0 -0.23713050052E+02  0.10421008420E+02 -0.10775854106E+02  0.28053969260E+02  0.51100000000E-03 0. -1.
        -11    1    3    3    0    0 -0.13932483733E+02 -0.94891727497E+00 -0.86513142645E+01  0.16427409587E+02  0.51100000000E-03 0.  1.
         12    1    3    3    0    0  0.51370357710E+00 -0.26067697916E+01 -0.19671746577E+01  0.33058911424E+01  0.00000000000E+00 0. -1.
</event>
<event>
 7    1  0.2902940E-010  0.4778727E+02  0.7816164E-02  0.1312668E+00
        -11   -1    0    0    0    0  0.00000000000E+00  0.00000000000E+00  0.45593999997E+02  0.45594000000E+02  0.51100000000E-03 0. -1.
         11   -1    0    0    0    0 -0.00000000000E+00 -0.00000000000E+00 -0.45593999997E+02  0.45594000000E+02  0.51100000000E-03 0.  1.
    9900012    2    1    2    0    0 -0.22724387515E+01  0.36105916568E+02 -0.23975447698E+02  0.47787270958E+02  0.19999999604E+02 0.  0.
         12    1    1    2    0    0  0.22724387515E+01 -0.36105916568E+02  0.23975447698E+02  0.43400729042E+02  0.00000000000E+00 0. -1.
         11    1    3    3    0    0  0.50944682363E+01  0.58587473193E+01 -0.92370991888E+00  0.78186806456E+01  0.51100000000E-03 0. -1.
        -11    1    3    3    0    0 -0.12709776488E+01  0.51838234059E+01 -0.93377058028E+01  0.10755471129E+02  0.51100000000E-03 0.  1.
        -12    1    3    3    0    0 -0.60959293390E+01  0.25063345843E+02 -0.13714031976E+02  0.29213119183E+02  0.00000000000E+00 0.  1.
</event>
<event>
 7    1  0.2647566E-010  0.4778727E+02  0.7816164E-02  0.1312668E+00
        -11   -1    0    0    0    0  0.00000000000E+00  0.00000000000E+00  0.45593999997E+02  0.45594000000E+02  0.51100000000E-03 0. -1.
         11   -1    0    0    0    0 -0.00000000000E+00 -0.00000000000E+00 -0.45593999997E+02  0.45594000000E+02  0.51100000000E-03 0.  1.
    9900012    2    1    2    0    0  0.16333161105E+02 -0.19267771071E+02 -0.35293116495E+02  0.47787271599E+02  0.20000002531E+02 0.  0.
         12    1    1    2    0    0 -0.16333161105E+02  0.19267771071E+02  0.35293116495E+02  0.43400728401E+02  0.00000000000E+00 0. -1.
         11    1    3    3    0    0  0.15602839662E+02 -0.12174777316E+02 -0.31935552153E+02  0.37570644123E+02  0.51100000000E-03 0. -1.
        -11    1    3    3    0    0  0.29521853044E+01 -0.55355250435E+01 -0.39842804564E+01  0.74318185254E+01  0.51100000000E-03 0.  1.
         12    1    3    3    0    0 -0.22218638613E+01 -0.15574687120E+01  0.62671611427E+00  0.27848089512E+01  0.00000000000E+00 0. -1.
</event>
<event>
 7    1  0.2647566E-010  0.4778728E+02  0.7816164E-02  0.1312668E+00
        -11   -1    0    0    0    0  0.00000000000E+00  0.00000000000E+00  0.45593999997E+02  0.45594000000E+02  0.51100000000E-03 0. -1.
         11   -1    0    0    0    0 -0.00000000000E+00 -0.00000000000E+00 -0.45593999997E+02  0.45594000000E+02  0.51100000000E-03 0.  1.
    9900012    2    1    2    0    0  0.15253170667E+02  0.25963990587E+02 -0.31254352281E+02  0.47787279279E+02  0.20000037546E+02 0.  0.
         12    1    1    2    0    0 -0.15253170667E+02 -0.25963990587E+02  0.31254352281E+02  0.43400720721E+02  0.00000000000E+00 0. -1.
         11    1    3    3    0    0  0.52905566665E+00 -0.15971885337E+01 -0.63343006323E+00  0.17978167361E+01  0.51100000000E-03 0. -1.
        -11    1    3    3    0    0  0.73128057490E+01  0.71232531646E+01 -0.26197960074E+01  0.10539506390E+02  0.51100000000E-03 0.  1.
        -12    1    3    3    0    0  0.74113092516E+01  0.20437925956E+02 -0.28001126210E+02  0.35449956153E+02  0.00000000000E+00 0.  1.
</event>
<event>
 7    1  0.2647566E-010  0.4778727E+02  0.7816164E-02  0.1312668E+00
        -11   -1    0    0    0    0  0.00000000000E+00  0.00000000000E+00  0.45593999997E+02  0.45594000000E+02  0.51100000000E-03 0. -1.
         11   -1    0    0    0    0 -0.00000000000E+00 -0.00000000000E+00 -0.45593999997E+02  0.45594000000E+02  0.51100000000E-03 0.  1.
    9900012    2    1    2    0    0 -0.77818178684E+01  0.38504957904E+02  0.18450869946E+02  0.47787273344E+02  0.20000010485E+02 0.  0.
         12    1    1    2    0    0  0.77818178684E+01 -0.38504957904E+02 -0.18450869946E+02  0.43400726656E+02  0.00000000000E+00 0. -1.
         11    1    3    3    0    0  0.39078233146E+00  0.46585194490E+01  0.98420917202E+01  0.10895929698E+02  0.51100000000E-03 0. -1.
        -11    1    3    3    0    0 -0.42187307495E+01  0.10621378935E+02  0.67170013436E+01  0.13256299896E+02  0.51100000000E-03 0.  1.
        -12    1    3    3    0    0 -0.39538694503E+01  0.23225059519E+02  0.18917768821E+01  0.23635043750E+02  0.00000000000E+00 0.  1.
</event>
<event>
 7    1  0.2647566E-010  0.4778727E+02  0.7816164E-02  0.1312668E+00
        -11   -1    0    0    0    0  0.00000000000E+00  0.00000000000E+00  0.45593999997E+02  0.45594000000E+02  0.51100000000E-03 0.  1.
         11   -1    0    0    0    0 -0.00000000000E+00 -0.00000000000E+00 -0.45593999997E+02  0.45594000000E+02  0.51100000000E-03 0. -1.
    9900012    2    1    2    0    0 -0.28579991897E+02 -0.39889894136E+01  0.32417515522E+02  0.47787270905E+02  0.19999999365E+02 0.  0.
         12    1    1    2    0    0  0.28579991897E+02  0.39889894136E+01 -0.32417515522E+02  0.43400729095E+02  0.00000000000E+00 0. -1.
         11    1    3    3    0    0 -0.29102610765E+01 -0.61271036393E+01  0.39672659086E+01  0.78581306676E+01  0.51100000000E-03 0. -1.
        -11    1    3    3    0    0 -0.13074952162E+02 -0.33098571829E+01  0.93536303374E+01  0.16413407000E+02  0.51100000000E-03 0.  1.
         12    1    3    3    0    0 -0.12594778658E+02  0.54479714085E+01  0.19096619276E+02  0.23515733237E+02  0.00000000000E+00 0. -1.
</event>
<event>
 7    1  0.2647566E-010  0.4778727E+02  0.7816164E-02  0.1312668E+00
        -11   -1    0    0    0    0  0.00000000000E+00  0.00000000000E+00  0.45593999997E+02  0.45594000000E+02  0.51100000000E-03 0. -1.
         11   -1    0    0    0    0 -0.00000000000E+00 -0.00000000000E+00 -0.45593999997E+02  0.45594000000E+02  0.51100000000E-03 0.  1.
    9900012    2    1    2    0    0  0.50304259904E+01 -0.42497739915E+02  0.72291258174E+01  0.47787270241E+02  0.19999996339E+02 0.  0.
         12    1    1    2    0    0 -0.50304259904E+01  0.42497739915E+02 -0.72291258174E+01  0.43400729759E+02  0.00000000000E+00 0. -1.
         11    1    3    3    0    0  0.39814083841E+01 -0.30718418509E+01  0.21549173670E+01  0.54709683053E+01  0.51100000000E-03 0. -1.
        -11    1    3    3    0    0  0.76624995083E+01 -0.24688176958E+02  0.35097027163E+01  0.26087123138E+02  0.51100000000E-03 0.  1.
        -12    1    3    3    0    0 -0.66134819021E+01 -0.14737721106E+02  0.15645057340E+01  0.16229178798E+02  0.00000000000E+00 0.  1.
</event>
<event>
 7    1  0.2647566E-010  0.4778727E+02  0.7816164E-02  0.1312668E+00
        -11   -1    0    0    0    0  0.00000000000E+00  0.00000000000E+00  0.45593999997E+02  0.45594000000E+02  0.51100000000E-03 0.  1.
         11   -1    0    0    0    0 -0.00000000000E+00 -0.00000000000E+00 -0.45593999997E+02  0.45594000000E+02  0.51100000000E-03 0. -1.
    9900012    2    1    2    0    0 -0.17815079987E+02  0.36441999794E+02  0.15434595326E+02  0.47787272393E+02  0.20000006148E+02 0.  0.
         12    1    1    2    0    0  0.17815079987E+02 -0.36441999794E+02 -0.15434595326E+02  0.43400727607E+02  0.00000000000E+00 0. -1.
         11    1    3    3    0    0 -0.85025935154E+01  0.93716786581E+01  0.87823785403E+01  0.15403007188E+02  0.51100000000E-03 0. -1.
        -11    1    3    3    0    0  0.15939355288E+01  0.38131632605E+01  0.52184777619E+01  0.66568276930E+01  0.51100000000E-03 0.  1.
        -12    1    3    3    0    0 -0.10906422001E+02  0.23257157876E+02  0.14337390235E+01  0.25727437511E+02  0.00000000000E+00 0.  1.
</event>
<event>
 7    1  0.2647566E-010  0.4778727E+02  0.7816164E-02  0.1312668E+00
        -11   -1    0    0    0    0  0.00000000000E+00  0.00000000000E+00  0.45593999997E+02  0.45594000000E+02  0.51100000000E-03 0. -1.
         11   -1    0    0    0    0 -0.00000000000E+00 -0.00000000000E+00 -0.45593999997E+02  0.45594000000E+02  0.51100000000E-03 0.  1.
    9900012    2    1    2    0    0  0.36481299148E+02  0.23495949552E+02  0.82385672267E+00  0.47787267601E+02  0.19999984302E+02 0.  0.
         12    1    1    2    0    0 -0.36481299148E+02 -0.23495949552E+02 -0.82385672267E+00  0.43400732399E+02  0.00000000000E+00 0. -1.
         11    1    3    3    0    0  0.85860671928E+01  0.42191222148E+01 -0.56353622106E+01  0.11103100901E+02  0.51100000000E-03 0. -1.
        -11    1    3    3    0    0  0.32440975155E+01  0.74335521086E+01 -0.13960476951E+01  0.82298733325E+01  0.51100000000E-03 0.  1.
         12    1    3    3    0    0  0.24651134440E+02  0.11843275228E+02  0.78552666283E+01  0.28454293368E+02  0.00000000000E+00 0. -1.
</event>
<event>
 7    1  0.2647566E-010  0.4778727E+02  0.7816164E-02  0.1312668E+00
        -11   -1    0    0    0    0  0.00000000000E+00  0.00000000000E+00  0.45593999997E+02  0.45594000000E+02  0.51100000000E-03 0.  1.
         11   -1    0    0    0    0 -0.00000000000E+00 -0.00000000000E+00 -0.45593999997E+02  0.45594000000E+02  0.51100000000E-03 0. -1.
    9900012    2    1    2    0    0  0.32928741382E+02  0.15215030295E+02  0.23829056386E+02  0.47787273231E+02  0.20000009968E+02 0.  0.
         12    1    1    2    0    0 -0.32928741382E+02 -0.15215030295E+02 -0.23829056386E+02  0.43400726769E+02  0.00000000000E+00 0. -1.
         11    1    3    3    0    0  0.56425721281E+01  0.30224346620E+01  0.10455636563E+02  0.12259448100E+02  0.51100000000E-03 0. -1.
        -11    1    3    3    0    0  0.16546448634E+02  0.11317448463E+02  0.14431082261E+02  0.24700723423E+02  0.51100000000E-03 0.  1.
        -12    1    3    3    0    0  0.10739720620E+02  0.87514716998E+00 -0.10576624392E+01  0.10827101708E+02  0.00000000000E+00 0.  1.
</event>
<event>
 7    1  0.2647566E-010  0.4778727E+02  0.7816164E-02  0.1312668E+00
        -11   -1    0    0    0    0  0.00000000000E+00  0.00000000000E+00  0.45593999997E+02  0.45594000000E+02  0.51100000000E-03 0.  1.
         11   -1    0    0    0    0 -0.00000000000E+00 -0.00000000000E+00 -0.45593999997E+02  0.45594000000E+02  0.51100000000E-03 0. -1.
    9900012    2    1    2    0    0  0.29464545392E+02 -0.23034094387E+02  0.22020318681E+02  0.47787269888E+02  0.19999994729E+02 0.  0.
         12    1    1    2    0    0 -0.29464545392E+02  0.23034094387E+02 -0.22020318681E+02  0.43400730112E+02  0.00000000000E+00 0. -1.
         11    1    3    3    0    0  0.44584366377E+01  0.30019595647E+01  0.21307767665E+01  0.57818360726E+01  0.51100000000E-03 0. -1.
        -11    1    3    3    0    0  0.62075520930E+00 -0.21595058738E+01 -0.42779031806E+00  0.22873144660E+01  0.51100000000E-03 0.  1.
        -12    1    3    3    0    0  0.24385353545E+02 -0.23876548078E+02  0.20317332232E+02  0.39718119350E+02  0.00000000000E+00 0.  1.
</event>
<event>
 7    1  0.2647566E-010  0.4778727E+02  0.7816164E-02  0.1312668E+00
        -11   -1    0    0    0    0  0.00000000000E+00  0.00000000000E+00  0.45593999997E+02  0.45594000000E+02  0.51100000000E-03 0. -1.
         11   -1    0    0    0    0 -0.00000000000E+00 -0.00000000000E+00 -0.45593999997E+02  0.45594000000E+02  0.51100000000E-03 0.  1.
    9900012    2    1    2    0    0 -0.41530499794E+02 -0.11944844764E+02 -0.40201818053E+01  0.47787267388E+02  0.19999983327E+02 0.  0.
         12    1    1    2    0    0  0.41530499794E+02  0.11944844764E+02  0.40201818053E+01  0.43400732612E+02  0.00000000000E+00 0. -1.
         11    1    3    3    0    0 -0.54400499058E+01 -0.57262796190E+01 -0.14622469242E+01  0.80325953203E+01  0.51100000000E-03 0. -1.
        -11    1    3    3    0    0 -0.25589257671E+01 -0.50783089872E+01 -0.24795673456E+01  0.62036745348E+01  0.51100000000E-03 0.  1.
         12    1    3    3    0    0 -0.33531524121E+02 -0.11402561580E+01 -0.78367535388E-01  0.33550997533E+02  0.00000000000E+00 0. -1.
</event>
<event>
 7    1  0.2647566E-010  0.4778726E+02  0.7816164E-02  0.1312668E+00
        -11   -1    0    0    0    0  0.00000000000E+00  0.00000000000E+00  0.45593999997E+02  0.45594000000E+02  0.51100000000E-03 0. -1.
         11   -1    0    0    0    0 -0.00000000000E+00 -0.00000000000E+00 -0.45593999997E+02  0.45594000000E+02  0.51100000000E-03 0.  1.
    9900012    2    1    2    0    0 -0.36432084758E+02  0.13231953457E+02 -0.19525437402E+02  0.47787261552E+02  0.19999956720E+02 0.  0.
         12    1    1    2    0    0  0.36432084758E+02 -0.13231953457E+02  0.19525437402E+02  0.43400738448E+02  0.00000000000E+00 0. -1.
         11    1    3    3    0    0 -0.25865828034E+02  0.66530717351E+01 -0.49650740962E+01  0.27165352647E+02  0.51100000000E-03 0. -1.
        -11    1    3    3    0    0 -0.96920367749E+01  0.40990493018E+01 -0.70550156561E+01  0.12669294700E+02  0.51100000000E-03 0.  1.
         12    1    3    3    0    0 -0.87421994908E+00  0.24798324199E+01 -0.75053476495E+01  0.79526142048E+01  0.00000000000E+00 0. -1.
</event>
<event>
 7    1  0.2647566E-010  0.4778727E+02  0.7816164E-02  0.1312668E+00
        -11   -1    0    0    0    0  0.00000000000E+00  0.00000000000E+00  0.45593999997E+02  0.45594000000E+02  0.51100000000E-03 0.  1.
         11   -1    0    0    0    0 -0.00000000000E+00 -0.00000000000E+00 -0.45593999997E+02  0.45594000000E+02  0.51100000000E-03 0. -1.
    9900012    2    1    2    0    0 -0.18067141625E+02 -0.20168718632E+02  0.33917908410E+02  0.47787270414E+02  0.19999997124E+02 0.  0.
         12    1    1    2    0    0  0.18067141625E+02  0.20168718632E+02 -0.33917908410E+02  0.43400729586E+02  0.00000000000E+00 0. -1.
         11    1    3    3    0    0  0.49594750616E+00 -0.11320437019E+01  0.14840992757E+01  0.19313305758E+01  0.51100000000E-03 0. -1.
        -11    1    3    3    0    0 -0.20130873721E+02 -0.86579357360E+01  0.22342400735E+02  0.31295283971E+02  0.51100000000E-03 0.  1.
        -12    1    3    3    0    0  0.15677845904E+01 -0.10378739194E+02  0.10091408400E+02  0.14560655867E+02  0.00000000000E+00 0.  1.
</event>
<event>
 7    1  0.2647566E-010  0.4778727E+02  0.7816164E-02  0.1312668E+00
        -11   -1    0    0    0    0  0.00000000000E+00  0.00000000000E+00  0.45593999997E+02  0.45594000000E+02  0.51100000000E-03 0.  1.
         11   -1    0    0    0    0 -0.00000000000E+00 -0.00000000000E+00 -0.45593999997E+02  0.45594000000E+02  0.51100000000E-03 0. -1.
    9900012    2    1    2    0    0 -0.15482202537E+02  0.14732682357E+02  0.37773966214E+02  0.47787273643E+02  0.20000011847E+02 0.  0.
         12    1    1    2    0    0  0.15482202537E+02 -0.14732682357E+02 -0.37773966214E+02  0.43400726357E+02  0.00000000000E+00 0. -1.
         11    1    3    3    0    0  0.11442123972E+01  0.20102751150E+01 -0.33685252813E+00  0.23374982213E+01  0.51100000000E-03 0. -1.
        -11    1    3    3    0    0 -0.75611916852E+01 -0.15238926820E+01  0.96139244337E+01  0.12325640425E+02  0.51100000000E-03 0.  1.
        -12    1    3    3    0    0 -0.90652232487E+01  0.14246299924E+02  0.28496894308E+02  0.33124134997E+02  0.00000000000E+00 0.  1.
</event>
<event>
 7    1  0.2647566E-010  0.4778727E+02  0.7816164E-02  0.1312668E+00
        -11   -1    0    0    0    0  0.00000000000E+00  0.00000000000E+00  0.45593999997E+02  0.45594000000E+02  0.51100000000E-03 0.  1.
         11   -1    0    0    0    0 -0.00000000000E+00 -0.00000000000E+00 -0.45593999997E+02  0.45594000000E+02  0.51100000000E-03 0. -1.
    9900012    2    1    2    0    0  0.12724936780E+02  0.13799269167E+02  0.39131567251E+02  0.47787269579E+02  0.19999993318E+02 0.  0.
         12    1    1    2    0    0 -0.12724936780E+02 -0.13799269167E+02 -0.39131567251E+02  0.43400730421E+02  0.00000000000E+00 0. -1.
         11    1    3    3    0    0  0.46763568301E+01 -0.13504929785E+01  0.11677954983E+02  0.12651749972E+02  0.51100000000E-03 0. -1.
        -11    1    3    3    0    0  0.95123584894E+01  0.51457900023E+01  0.89010935574E+01  0.14006912064E+02  0.51100000000E-03 0.  1.
         12    1    3    3    0    0 -0.14637785394E+01  0.10003972143E+02  0.18552518710E+02  0.21128607544E+02  0.00000000000E+00 0. -1.
</event>
<event>
 7    1  0.2647566E-010  0.4778727E+02  0.7816164E-02  0.1312668E+00
        -11   -1    0    0    0    0  0.00000000000E+00  0.00000000000E+00  0.45593999997E+02  0.45594000000E+02  0.51100000000E-03 0. -1.
         11   -1    0    0    0    0 -0.00000000000E+00 -0.00000000000E+00 -0.45593999997E+02  0.45594000000E+02  0.51100000000E-03 0.  1.
    9900012    2    1    2    0    0  0.11285760521E+02 -0.19436376294E+01 -0.41862600481E+02  0.47787269167E+02  0.19999991442E+02 0.  0.
         12    1    1    2    0    0 -0.11285760521E+02  0.19436376294E+01  0.41862600481E+02  0.43400730833E+02  0.00000000000E+00 0. -1.
         11    1    3    3    0    0 -0.26469125829E+01 -0.56523055521E+01 -0.11066122554E+02  0.12704872015E+02  0.51100000000E-03 0. -1.
        -11    1    3    3    0    0  0.71685041540E+00  0.10580507709E+01 -0.11347303034E+02  0.11419046911E+02  0.51100000000E-03 0.  1.
         12    1    3    3    0    0  0.13215822689E+02  0.26506171517E+01 -0.19449174893E+02  0.23663350241E+02  0.00000000000E+00 0. -1.
</event>
<event>
 7    1  0.2647566E-010  0.4778727E+02  0.7816164E-02  0.1312668E+00
        -11   -1    0    0    0    0  0.00000000000E+00  0.00000000000E+00  0.45593999997E+02  0.45594000000E+02  0.51100000000E-03 0.  1.
         11   -1    0    0    0    0 -0.00000000000E+00 -0.00000000000E+00 -0.45593999997E+02  0.45594000000E+02  0.51100000000E-03 0. -1.
    9900012    2    1    2    0    0  0.39159564059E+02 -0.18565604986E+02  0.23388806029E+01  0.47787268344E+02  0.19999987687E+02 0.  0.
         12    1    1    2    0    0 -0.39159564059E+02  0.18565604986E+02 -0.23388806029E+01  0.43400731656E+02  0.00000000000E+00 0. -1.
         11    1    3    3    0    0  0.39027308869E+02 -0.13445317233E+02  0.26619674719E+01  0.41364156756E+02  0.51100000000E-03 0. -1.
        -11    1    3    3    0    0  0.11739388252E+00  0.16281535456E+00  0.96464978047E+00  0.98531194219E+00  0.51100000000E-03 0.  1.
        -12    1    3    3    0    0  0.14861307504E-01 -0.52831031079E+01 -0.12877366495E+01  0.54377996456E+01  0.00000000000E+00 0.  1.
</event>
<event>
 7    1  0.2647566E-010  0.4778730E+02  0.7816164E-02  0.1312668E+00
        -11   -1    0    0    0    0  0.00000000000E+00  0.00000000000E+00  0.45593999997E+02  0.45594000000E+02  0.51100000000E-03 0.  1.
         11   -1    0    0    0    0 -0.00000000000E+00 -0.00000000000E+00 -0.45593999997E+02  0.45594000000E+02  0.51100000000E-03 0. -1.
    9900012    2    1    2    0    0  0.66228745585E+01 -0.23802274283E+02 -0.35682071699E+02  0.47787297595E+02  0.20000121055E+02 0.  0.
         12    1    1    2    0    0 -0.66228745585E+01  0.23802274283E+02  0.35682071699E+02  0.43400702405E+02  0.00000000000E+00 0. -1.
         11    1    3    3    0    0 -0.16403488549E+01 -0.54505724823E+01 -0.14055774330E+01  0.58630310362E+01  0.51100000000E-03 0. -1.
        -11    1    3    3    0    0  0.21161491948E+01 -0.11631802205E+02 -0.84306313690E+01  0.14520759467E+02  0.51100000000E-03 0.  1.
        -12    1    3    3    0    0  0.61470742186E+01 -0.67198995955E+01 -0.25845862897E+02  0.27403507092E+02  0.00000000000E+00 0.  1.
</event>
<event>
 7    1  0.2647566E-010  0.4778728E+02  0.7816164E-02  0.1312668E+00
        -11   -1    0    0    0    0  0.00000000000E+00  0.00000000000E+00  0.45593999997E+02  0.45594000000E+02  0.51100000000E-03 0.  1.
         11   -1    0    0    0    0 -0.00000000000E+00 -0.00000000000E+00 -0.45593999997E+02  0.45594000000E+02  0.51100000000E-03 0. -1.
    9900012    2    1    2    0    0 -0.24061860189E+02  0.13691621521E+02  0.33424378805E+02  0.47787277493E+02  0.20000029403E+02 0.  0.
         12    1    1    2    0    0  0.24061860189E+02 -0.13691621521E+02 -0.33424378805E+02  0.43400722507E+02  0.00000000000E+00 0. -1.
         11    1    3    3    0    0 -0.10202237555E+02  0.38386485790E+01  0.72661164654E+01  0.13100279493E+02  0.51100000000E-03 0. -1.
        -11    1    3    3    0    0 -0.84634769084E+01  0.41869247177E+01  0.24991795327E+01  0.97676342360E+01  0.51100000000E-03 0.  1.
         12    1    3    3    0    0 -0.53961457254E+01  0.56660482244E+01  0.23659082807E+02  0.24919363764E+02  0.00000000000E+00 0. -1.
</event>
<event>
 7    1  0.2647566E-010  0.4778728E+02  0.7816164E-02  0.1312668E+00
        -11   -1    0    0    0    0  0.00000000000E+00  0.00000000000E+00  0.45593999997E+02  0.45594000000E+02  0.51100000000E-03 0. -1.
         11   -1    0    0    0    0 -0.00000000000E+00 -0.00000000000E+00 -0.45593999997E+02  0.45594000000E+02  0.51100000000E-03 0.  1.
    9900012    2    1    2    0    0 -0.17052318299E+02  0.30784166492E+02 -0.25400323829E+02  0.47787275160E+02  0.20000018764E+02 0.  0.
         12    1    1    2    0    0  0.17052318299E+02 -0.30784166492E+02  0.25400323829E+02  0.43400724840E+02  0.00000000000E+00 0. -1.
         11    1    3    3    0    0 -0.30618152092E+01 -0.13836380647E+01 -0.33566268054E+01  0.47493273672E+01  0.51100000000E-03 0. -1.
        -11    1    3    3    0    0 -0.11934319510E+02  0.14660154353E+02 -0.81178740008E+01  0.20572991673E+02  0.51100000000E-03 0.  1.
         12    1    3    3    0    0 -0.20561835799E+01  0.17507650204E+02 -0.13925823023E+02  0.22464956120E+02  0.00000000000E+00 0. -1.
</event>
<event>
 7    1  0.2647566E-010  0.4778727E+02  0.7816164E-02  0.1312668E+00
        -11   -1    0    0    0    0  0.00000000000E+00  0.00000000000E+00  0.45593999997E+02  0.45594000000E+02  0.51100000000E-03 0.  1.
         11   -1    0    0    0    0 -0.00000000000E+00 -0.00000000000E+00 -0.45593999997E+02  0.45594000000E+02  0.51100000000E-03 0. -1.
    9900012    2    1    2    0    0 -0.15278546036E+01 -0.30416541214E+02  0.30921239435E+02  0.47787269968E+02  0.19999995093E+02 0.  0.
         12    1    1    2    0    0  0.15278546036E+01  0.30416541214E+02 -0.30921239435E+02  0.43400730032E+02  0.00000000000E+00 0. -1.
         11    1    3    3    0    0  0.75105785362E+00 -0.86168780276E+00 -0.77883826887E+00  0.13831786143E+01  0.51100000000E-03 0. -1.
        -11    1    3    3    0    0 -0.61386926618E+01 -0.26136602447E+02  0.19568736687E+02  0.33222597594E+02  0.51100000000E-03 0.  1.
        -12    1    3    3    0    0  0.38597802046E+01 -0.34182509638E+01  0.12131341017E+02  0.13181493760E+02  0.00000000000E+00 0.  1.
</event>
<event>
 7    1  0.2647566E-010  0.4778727E+02  0.7816164E-02  0.1312668E+00
        -11   -1    0    0    0    0  0.00000000000E+00  0.00000000000E+00  0.45593999997E+02  0.45594000000E+02  0.51100000000E-03 0.  1.
         11   -1    0    0    0    0 -0.00000000000E+00 -0.00000000000E+00 -0.45593999997E+02  0.45594000000E+02  0.51100000000E-03 0. -1.
    9900012    2    1    2    0    0  0.38684826730E+02 -0.85189868553E+01  0.17735106621E+02  0.47787274626E+02  0.20000016330E+02 0.  0.
         12    1    1    2    0    0 -0.38684826730E+02  0.85189868553E+01 -0.17735106621E+02  0.43400725374E+02  0.00000000000E+00 0. -1.
         11    1    3    3    0    0  0.65227285378E+01 -0.48946501337E+01  0.88688480401E+01  0.12048238599E+02  0.51100000000E-03 0. -1.
        -11    1    3    3    0    0  0.14957199049E+02 -0.69080418261E+01  0.76967532810E+01  0.18184577438E+02  0.51100000000E-03 0.  1.
         12    1    3    3    0    0  0.17204899142E+02  0.32837051045E+01  0.11695052995E+01  0.17554458589E+02  0.00000000000E+00 0. -1.
</event>
<event>
 7    1  0.2647566E-010  0.4778727E+02  0.7816164E-02  0.1312668E+00
        -11   -1    0    0    0    0  0.00000000000E+00  0.00000000000E+00  0.45593999997E+02  0.45594000000E+02  0.51100000000E-03 0.  1.
         11   -1    0    0    0    0 -0.00000000000E+00 -0.00000000000E+00 -0.45593999997E+02  0.45594000000E+02  0.51100000000E-03 0. -1.
    9900012    2    1    2    0    0 -0.43391441186E+02 -0.66219207276E+00 -0.60634075213E+00  0.47787270563E+02  0.19999997804E+02 0.  0.
         12    1    1    2    0    0  0.43391441186E+02  0.66219207276E+00  0.60634075213E+00  0.43400729437E+02  0.00000000000E+00 0. -1.
         11    1    3    3    0    0 -0.14221011848E+02 -0.20617870252E+01  0.61370780347E+01  0.15625359861E+02  0.51100000000E-03 0. -1.
        -11    1    3    3    0    0 -0.13191264065E+02  0.29310330978E+01  0.23455125294E+01  0.13715022127E+02  0.51100000000E-03 0.  1.
         12    1    3    3    0    0 -0.15979165273E+02 -0.15314381454E+01 -0.90889313162E+01  0.18446888575E+02  0.00000000000E+00 0. -1.
</event>
<event>
 7    1  0.2647566E-010  0.4778727E+02  0.7816164E-02  0.1312668E+00
        -11   -1    0    0    0    0  0.00000000000E+00  0.00000000000E+00  0.45593999997E+02  0.45594000000E+02  0.51100000000E-03 0.  1.
         11   -1    0    0    0    0 -0.00000000000E+00 -0.00000000000E+00 -0.45593999997E+02  0.45594000000E+02  0.51100000000E-03 0. -1.
    9900012    2    1    2    0    0  0.14404579646E+02 -0.26140394391E+02  0.31508907085E+02  0.47787270060E+02  0.19999995510E+02 0.  0.
         12    1    1    2    0    0 -0.14404579646E+02  0.26140394391E+02 -0.31508907085E+02  0.43400729940E+02  0.00000000000E+00 0. -1.
         11    1    3    3    0    0  0.21663934133E+01 -0.46404830749E+01  0.16538775074E+01  0.53816962624E+01  0.51100000000E-03 0. -1.
        -11    1    3    3    0    0  0.10302075445E+02 -0.12252536982E+02  0.66195245894E+01  0.17322688216E+02  0.51100000000E-03 0.  1.
        -12    1    3    3    0    0  0.19361107876E+01 -0.92473743335E+01  0.23235504988E+02  0.25082885581E+02  0.00000000000E+00 0.  1.
</event>
<event>
 7    1  0.2647566E-010  0.4778728E+02  0.7816164E-02  0.1312668E+00
        -11   -1    0    0    0    0  0.00000000000E+00  0.00000000000E+00  0.45593999997E+02  0.45594000000E+02  0.51100000000E-03 0.  1.
         11   -1    0    0    0    0 -0.00000000000E+00 -0.00000000000E+00 -0.45593999997E+02  0.45594000000E+02  0.51100000000E-03 0. -1.
    9900012    2    1    2    0    0 -0.39449742919E+02  0.18083469397E+02 -0.57336784247E+00  0.47787276129E+02  0.20000023183E+02 0.  0.
         12    1    1    2    0    0  0.39449742919E+02 -0.18083469397E+02  0.57336784247E+00  0.43400723871E+02  0.00000000000E+00 0. -1.
         11    1    3    3    0    0 -0.81107358833E+00  0.18077312528E+01 -0.10039516587E+01  0.22211825324E+01  0.51100000000E-03 0. -1.
        -11    1    3    3    0    0 -0.27800441668E+02  0.17504706677E+02  0.58775359413E+01  0.33374012971E+02  0.51100000000E-03 0.  1.
         12    1    3    3    0    0 -0.10838227663E+02 -0.12289685328E+01 -0.54469521250E+01  0.12192080626E+02  0.00000000000E+00 0. -1.
</event>
<event>
 7    1  0.2647566E-010  0.4778727E+02  0.7816164E-02  0.1312668E+00
        -11   -1    0    0    0    0  0.00000000000E+00  0.00000000000E+00  0.45593999997E+02  0.45594000000E+02  0.51100000000E-03 0. -1.
         11   -1    0    0    0    0 -0.00000000000E+00 -0.00000000000E+00 -0.45593999997E+02  0.45594000000E+02  0.51100000000E-03 0.  1.
    9900012    2    1    2    0    0  0.40133185986E+02 -0.14991061551E+02 -0.69439685366E+01  0.47787271402E+02  0.20000001630E+02 0.  0.
         12    1    1    2    0    0 -0.40133185986E+02  0.14991061551E+02  0.69439685366E+01  0.43400728598E+02  0.00000000000E+00 0. -1.
         11    1    3    3    0    0 -0.42163422786E+00  0.75395810545E+00 -0.29701697766E-01  0.86435565530E+00  0.51100000000E-03 0. -1.
        -11    1    3    3    0    0  0.52096745984E+01  0.56306740859E-01 -0.63349479587E+01  0.82021610427E+01  0.51100000000E-03 0.  1.
         12    1    3    3    0    0  0.35345145615E+02 -0.15801326397E+02 -0.57931888020E+00  0.38720754704E+02  0.00000000000E+00 0. -1.
</event>
<event>
 7    1  0.2647566E-010  0.4778727E+02  0.7816164E-02  0.1312668E+00
        -11   -1    0    0    0    0  0.00000000000E+00  0.00000000000E+00  0.45593999997E+02  0.45594000000E+02  0.51100000000E-03 0.  1.
         11   -1    0    0    0    0 -0.00000000000E+00 -0.00000000000E+00 -0.45593999997E+02  0.45594000000E+02  0.51100000000E-03 0. -1.
    9900012    2    1    2    0    0  0.12533286966E+01 -0.28667912965E+02  0.32560758628E+02  0.47787273405E+02  0.20000010761E+02 0.  0.
         12    1    1    2    0    0 -0.12533286966E+01  0.28667912965E+02 -0.32560758628E+02  0.43400726595E+02  0.00000000000E+00 0. -1.
         11    1    3    3    0    0 -0.19135428665E+01 -0.30329400018E+01 -0.15872577751E+01  0.39217035664E+01  0.51100000000E-03 0. -1.
        -11    1    3    3    0    0  0.10164735183E+01 -0.13237838648E+01 -0.25118374915E+00  0.16878138734E+01  0.51100000000E-03 0.  1.
        -12    1    3    3    0    0  0.21503980448E+01 -0.24311189098E+02  0.34399200152E+02  0.42177755965E+02  0.00000000000E+00 0.  1.
</event>
<event>
 7    1  0.2647566E-010  0.4778727E+02  0.7816164E-02  0.1312668E+00
        -11   -1    0    0    0    0  0.00000000000E+00  0.00000000000E+00  0.45593999997E+02  0.45594000000E+02  0.51100000000E-03 0.  1.
         11   -1    0    0    0    0 -0.00000000000E+00 -0.00000000000E+00 -0.45593999997E+02  0.45594000000E+02  0.51100000000E-03 0. -1.
    9900012    2    1    2    0    0  0.27240341954E+02 -0.33765199069E+02 -0.12239779097E+01  0.47787273971E+02  0.20000013344E+02 0.  0.
         12    1    1    2    0    0 -0.27240341954E+02  0.33765199069E+02  0.12239779097E+01  0.43400726029E+02  0.00000000000E+00 0. -1.
         11    1    3    3    0    0  0.16709336984E+02 -0.18315716656E+02 -0.43445702083E+00  0.24796293518E+02  0.51100000000E-03 0. -1.
        -11    1    3    3    0    0  0.10925862658E+02 -0.41846802509E+01 -0.14233821277E+00  0.11700695879E+02  0.51100000000E-03 0.  1.
         12    1    3    3    0    0 -0.39485768866E+00 -0.11264802162E+02 -0.64718267609E+00  0.11290284574E+02  0.00000000000E+00 0. -1.
</event>
<event>
 7    1  0.2647566E-010  0.4778727E+02  0.7816164E-02  0.1312668E+00
        -11   -1    0    0    0    0  0.00000000000E+00  0.00000000000E+00  0.45593999997E+02  0.45594000000E+02  0.51100000000E-03 0.  1.
         11   -1    0    0    0    0 -0.00000000000E+00 -0.00000000000E+00 -0.45593999997E+02  0.45594000000E+02  0.51100000000E-03 0. -1.
    9900012    2    1    2    0    0  0.20007038656E+02  0.38506710806E+02 -0.75829552574E+00  0.47787269764E+02  0.19999994162E+02 0.  0.
         12    1    1    2    0    0 -0.20007038656E+02 -0.38506710806E+02  0.75829552574E+00  0.43400730236E+02  0.00000000000E+00 0. -1.
         11    1    3    3    0    0 -0.22743000719E+01  0.38247176341E+01 -0.53578016053E+00  0.44819601113E+01  0.51100000000E-03 0. -1.
        -11    1    3    3    0    0  0.48701361879E+01  0.15286826374E+02  0.48324378902E+01  0.16755827144E+02  0.51100000000E-03 0.  1.
        -12    1    3    3    0    0  0.17411202540E+02  0.19395166799E+02 -0.50549532554E+01  0.26549482508E+02  0.00000000000E+00 0.  1.
</event>
<event>
 7    1  0.2647566E-010  0.4778727E+02  0.7816164E-02  0.1312668E+00
        -11   -1    0    0    0    0  0.00000000000E+00  0.00000000000E+00  0.45593999997E+02  0.45594000000E+02  0.51100000000E-03 0. -1.
         11   -1    0    0    0    0 -0.00000000000E+00 -0.00000000000E+00 -0.45593999997E+02  0.45594000000E+02  0.51100000000E-03 0.  1.
    9900012    2    1    2    0    0  0.50650102422E+01  0.88206426885E+01 -0.42192004019E+02  0.47787271096E+02  0.20000000237E+02 0.  0.
         12    1    1    2    0    0 -0.50650102422E+01 -0.88206426885E+01  0.42192004019E+02  0.43400728904E+02  0.00000000000E+00 0. -1.
         11    1    3    3    0    0  0.54472793716E+01  0.60673063565E+00 -0.52108431920E+01  0.75626623387E+01  0.51100000000E-03 0. -1.
        -11    1    3    3    0    0  0.57792390535E+01  0.44282120405E+00 -0.16003708143E+02  0.17020997893E+02  0.51100000000E-03 0.  1.
        -12    1    3    3    0    0 -0.61615081829E+01  0.77710908488E+01 -0.20977452684E+02  0.23203610865E+02  0.00000000000E+00 0.  1.
</event>
<event>
 7    1  0.2647566E-010  0.4778726E+02  0.7816164E-02  0.1312668E+00
        -11   -1    0    0    0    0  0.00000000000E+00  0.00000000000E+00  0.45593999997E+02  0.45594000000E+02  0.51100000000E-03 0. -1.
         11   -1    0    0    0    0 -0.00000000000E+00 -0.00000000000E+00 -0.45593999997E+02  0.45594000000E+02  0.51100000000E-03 0.  1.
    9900012    2    1    2    0    0 -0.27006162854E+02  0.12662685867E+02 -0.31526935368E+02  0.47787261536E+02  0.19999956649E+02 0.  0.
         12    1    1    2    0    0  0.27006162854E+02 -0.12662685867E+02  0.31526935368E+02  0.43400738464E+02  0.00000000000E+00 0. -1.
         11    1    3    3    0    0 -0.11097738810E+01  0.10078226506E+01  0.54470380811E+00  0.15949943767E+01  0.51100000000E-03 0. -1.
        -11    1    3    3    0    0 -0.11778865272E+02  0.64217833523E+01 -0.27265935978E+02  0.30387698720E+02  0.51100000000E-03 0.  1.
        -12    1    3    3    0    0 -0.14117523701E+02  0.52330798641E+01 -0.48057031985E+01  0.15804568439E+02  0.00000000000E+00 0.  1.
</event>
<event>
 7    1  0.2647566E-010  0.4778729E+02  0.7816164E-02  0.1312668E+00
        -11   -1    0    0    0    0  0.00000000000E+00  0.00000000000E+00  0.45593999997E+02  0.45594000000E+02  0.51100000000E-03 0.  1.
         11   -1    0    0    0    0 -0.00000000000E+00 -0.00000000000E+00 -0.45593999997E+02  0.45594000000E+02  0.51100000000E-03 0. -1.
    9900012    2    1    2    0    0  0.33876655085E+02  0.26456017909E+02 -0.60060965669E+01  0.47787287571E+02  0.20000075351E+02 0.  0.
         12    1    1    2    0    0 -0.33876655085E+02 -0.26456017909E+02  0.60060965669E+01  0.43400712429E+02  0.00000000000E+00 0. -1.
         11    1    3    3    0    0  0.68906205717E+01  0.14957700686E+02 -0.27157062110E+01  0.16690971277E+02  0.51100000000E-03 0.  1.
        -11    1    3    3    0    0  0.13819818575E+02  0.88250989764E+01 -0.58695680161E+01  0.17416130062E+02  0.51100000000E-03 0. -1.
        -12    1    3    3    0    0  0.13166215939E+02  0.26732182464E+01  0.25791776603E+01  0.13680186232E+02  0.00000000000E+00 0.  1.
</event>
<event>
 7    1  0.2647566E-010  0.4778727E+02  0.7816164E-02  0.1312668E+00
        -11   -1    0    0    0    0  0.00000000000E+00  0.00000000000E+00  0.45593999997E+02  0.45594000000E+02  0.51100000000E-03 0. -1.
         11   -1    0    0    0    0 -0.00000000000E+00 -0.00000000000E+00 -0.45593999997E+02  0.45594000000E+02  0.51100000000E-03 0.  1.
    9900012    2    1    2    0    0  0.14774113028E+02 -0.39015941156E+02  0.11962666019E+02  0.47787268919E+02  0.19999990309E+02 0.  0.
         12    1    1    2    0    0 -0.14774113028E+02  0.39015941156E+02 -0.11962666019E+02  0.43400731081E+02  0.00000000000E+00 0. -1.
         11    1    3    3    0    0 -0.82396616147E+00 -0.18789904174E-01  0.44093609248E-01  0.82535919650E+00  0.51100000000E-03 0. -1.
        -11    1    3    3    0    0  0.38367804987E+01 -0.24269993386E+02 -0.16828032774E+00  0.24571971473E+02  0.51100000000E-03 0.  1.
         12    1    3    3    0    0  0.11761298691E+02 -0.14727157866E+02  0.12086852737E+02  0.22389938249E+02  0.00000000000E+00 0. -1.
</event>
<event>
 7    1  0.2647566E-010  0.4778727E+02  0.7816164E-02  0.1312668E+00
        -11   -1    0    0    0    0  0.00000000000E+00  0.00000000000E+00  0.45593999997E+02  0.45594000000E+02  0.51100000000E-03 0.  1.
         11   -1    0    0    0    0 -0.00000000000E+00 -0.00000000000E+00 -0.45593999997E+02  0.45594000000E+02  0.51100000000E-03 0. -1.
    9900012    2    1    2    0    0 -0.29907412600E+02 -0.21433593854E+02  0.23016756562E+02  0.47787270092E+02  0.19999995656E+02 0.  0.
         12    1    1    2    0    0  0.29907412600E+02  0.21433593854E+02 -0.23016756562E+02  0.43400729908E+02  0.00000000000E+00 0. -1.
         11    1    3    3    0    0  0.26609198145E+01 -0.44174939149E+00  0.26267559166E+00  0.27100988011E+01  0.51100000000E-03 0. -1.
        -11    1    3    3    0    0 -0.42704252911E+01 -0.29132635644E+01  0.45155157668E+01  0.68639288795E+01  0.51100000000E-03 0.  1.
         12    1    3    3    0    0 -0.28297907124E+02 -0.18078580898E+02  0.18238565204E+02  0.38213242411E+02  0.00000000000E+00 0. -1.
</event>
<event>
 7    1  0.2647566E-010  0.4778727E+02  0.7816164E-02  0.1312668E+00
        -11   -1    0    0    0    0  0.00000000000E+00  0.00000000000E+00  0.45593999997E+02  0.45594000000E+02  0.51100000000E-03 0. -1.
         11   -1    0    0    0    0 -0.00000000000E+00 -0.00000000000E+00 -0.45593999997E+02  0.45594000000E+02  0.51100000000E-03 0.  1.
    9900012    2    1    2    0    0  0.31020442737E+02 -0.20267986680E+02 -0.22595659568E+02  0.47787274396E+02  0.20000015279E+02 0.  0.
         12    1    1    2    0    0 -0.31020442737E+02  0.20267986680E+02  0.22595659568E+02  0.43400725604E+02  0.00000000000E+00 0. -1.
         11    1    3    3    0    0  0.84714644234E+01 -0.15715514310E+02 -0.58148765790E+01  0.18776471697E+02  0.51100000000E-03 0. -1.
        -11    1    3    3    0    0  0.91342510999E+01 -0.45532978096E+01 -0.81313142675E+01  0.13049342362E+02  0.51100000000E-03 0.  1.
         12    1    3    3    0    0  0.13414727214E+02  0.82543944942E-03 -0.86494687217E+01  0.15961460336E+02  0.00000000000E+00 0. -1.
</event>
<event>
 7    1  0.2647566E-010  0.4778727E+02  0.7816164E-02  0.1312668E+00
        -11   -1    0    0    0    0  0.00000000000E+00  0.00000000000E+00  0.45593999997E+02  0.45594000000E+02  0.51100000000E-03 0.  1.
         11   -1    0    0    0    0 -0.00000000000E+00 -0.00000000000E+00 -0.45593999997E+02  0.45594000000E+02  0.51100000000E-03 0. -1.
    9900012    2    1    2    0    0 -0.26838010921E+02 -0.94477448043E+00  0.34094753513E+02  0.47787266756E+02  0.19999980447E+02 0.  0.
         12    1    1    2    0    0  0.26838010921E+02  0.94477448043E+00 -0.34094753513E+02  0.43400733244E+02  0.00000000000E+00 0. -1.
         11    1    3    3    0    0 -0.22392063003E+02 -0.28438253821E+01  0.24084924996E+02  0.33008717646E+02  0.51100000000E-03 0. -1.
        -11    1    3    3    0    0 -0.51242344785E+01  0.13598866919E+01  0.60741212392E+00  0.53362927726E+01  0.51100000000E-03 0.  1.
         12    1    3    3    0    0  0.67828656077E+00  0.53916420976E+00  0.94024163930E+01  0.94422563369E+01  0.00000000000E+00 0. -1.
</event>
<event>
 7    1  0.2647566E-010  0.4778727E+02  0.7816164E-02  0.1312668E+00
        -11   -1    0    0    0    0  0.00000000000E+00  0.00000000000E+00  0.45593999997E+02  0.45594000000E+02  0.51100000000E-03 0.  1.
         11   -1    0    0    0    0 -0.00000000000E+00 -0.00000000000E+00 -0.45593999997E+02  0.45594000000E+02  0.51100000000E-03 0. -1.
    9900012    2    1    2    0    0  0.18065630378E+02  0.35025764865E+02  0.18178344301E+02  0.47787269513E+02  0.19999993016E+02 0.  0.
         12    1    1    2    0    0 -0.18065630378E+02 -0.35025764865E+02 -0.18178344301E+02  0.43400730487E+02  0.00000000000E+00 0. -1.
         11    1    3    3    0    0  0.10247528530E+02  0.15596319757E+02  0.60660522765E+01  0.19622793415E+02  0.51100000000E-03 0. -1.
        -11    1    3    3    0    0  0.45848104121E+01  0.12956958057E+02 -0.35621968627E+00  0.13748823271E+02  0.51100000000E-03 0.  1.
        -12    1    3    3    0    0  0.32332914362E+01  0.64724870502E+01  0.12468511710E+02  0.14415652826E+02  0.00000000000E+00 0.  1.
</event>
<event>
 7    1  0.2647566E-010  0.4778727E+02  0.7816164E-02  0.1312668E+00
        -11   -1    0    0    0    0  0.00000000000E+00  0.00000000000E+00  0.45593999997E+02  0.45594000000E+02  0.51100000000E-03 0. -1.
         11   -1    0    0    0    0 -0.00000000000E+00 -0.00000000000E+00 -0.45593999997E+02  0.45594000000E+02  0.51100000000E-03 0.  1.
    9900012    2    1    2    0    0 -0.13653573693E+02  0.24308682310E+02 -0.33260951693E+02  0.47787273995E+02  0.20000013452E+02 0.  0.
         12    1    1    2    0    0  0.13653573693E+02 -0.24308682310E+02  0.33260951693E+02  0.43400726005E+02  0.00000000000E+00 0. -1.
         11    1    3    3    0    0 -0.32601031338E+01 -0.71456693269E+00 -0.13040708726E+01  0.35832219365E+01  0.51100000000E-03 0. -1.
        -11    1    3    3    0    0 -0.62204833076E+01  0.15629859698E+02 -0.90620749872E+01  0.19107802859E+02  0.51100000000E-03 0.  1.
         12    1    3    3    0    0 -0.41729872521E+01  0.93933895445E+01 -0.22894805833E+02  0.25096249199E+02  0.00000000000E+00 0. -1.
</event>
<event>
 7    1  0.2647566E-010  0.4778727E+02  0.7816164E-02  0.1312668E+00
        -11   -1    0    0    0    0  0.00000000000E+00  0.00000000000E+00  0.45593999997E+02  0.45594000000E+02  0.51100000000E-03 0.  1.
         11   -1    0    0    0    0 -0.00000000000E+00 -0.00000000000E+00 -0.45593999997E+02  0.45594000000E+02  0.51100000000E-03 0. -1.
    9900012    2    1    2    0    0 -0.16772580034E+02 -0.33015053275E+02  0.22634268295E+02  0.47787270916E+02  0.19999999416E+02 0.  0.
         12    1    1    2    0    0  0.16772580034E+02  0.33015053275E+02 -0.22634268295E+02  0.43400729084E+02  0.00000000000E+00 0. -1.
         11    1    3    3    0    0 -0.10710224457E+01  0.12474129975E+00  0.12702025223E+01  0.16661525079E+01  0.51100000000E-03 0. -1.
        -11    1    3    3    0    0 -0.10807121826E+02 -0.32587690843E+02  0.22522681585E+02  0.41061206298E+02  0.51100000000E-03 0.  1.
        -12    1    3    3    0    0 -0.48944357623E+01 -0.55210373206E+00 -0.11586158125E+01  0.50599121103E+01  0.00000000000E+00 0.  1.
</event>
<event>
 7    1  0.2647566E-010  0.4778727E+02  0.7816164E-02  0.1312668E+00
        -11   -1    0    0    0    0  0.00000000000E+00  0.00000000000E+00  0.45593999997E+02  0.45594000000E+02  0.51100000000E-03 0. -1.
         11   -1    0    0    0    0 -0.00000000000E+00 -0.00000000000E+00 -0.45593999997E+02  0.45594000000E+02  0.51100000000E-03 0.  1.
    9900012    2    1    2    0    0  0.36790948020E+02 -0.45301971296E+01 -0.22572706148E+02  0.47787267229E+02  0.19999982602E+02 0.  0.
         12    1    1    2    0    0 -0.36790948020E+02  0.45301971296E+01  0.22572706148E+02  0.43400732771E+02  0.00000000000E+00 0. -1.
         11    1    3    3    0    0  0.12692680417E+02 -0.33467328318E+01 -0.10930004876E+02  0.17081269381E+02  0.51100000000E-03 0. -1.
        -11    1    3    3    0    0  0.18469118463E+02 -0.73714925650E+01 -0.96644379119E+01  0.22109920847E+02  0.51100000000E-03 0.  1.
         12    1    3    3    0    0  0.56291491398E+01  0.61880282672E+01 -0.19782633595E+01  0.85960770002E+01  0.00000000000E+00 0. -1.
</event>
<event>
 7    1  0.2647566E-010  0.4778727E+02  0.7816164E-02  0.1312668E+00
        -11   -1    0    0    0    0  0.00000000000E+00  0.00000000000E+00  0.45593999997E+02  0.45594000000E+02  0.51100000000E-03 0.  1.
         11   -1    0    0    0    0 -0.00000000000E+00 -0.00000000000E+00 -0.45593999997E+02  0.45594000000E+02  0.51100000000E-03 0. -1.
    9900012    2    1    2    0    0 -0.29807137947E+01  0.50845373379E+01  0.42998675080E+02  0.47787271512E+02  0.20000002132E+02 0.  0.
         12    1    1    2    0    0  0.29807137947E+01 -0.50845373379E+01 -0.42998675080E+02  0.43400728488E+02  0.00000000000E+00 0. -1.
         11    1    3    3    0    0  0.15376416465E+01 -0.20208385313E+01  0.19331969039E+01  0.31914543288E+01  0.51100000000E-03 0. -1.
        -11    1    3    3    0    0  0.38544801438E+01  0.95561975162E+00  0.25964983415E+02  0.26266910558E+02  0.51100000000E-03 0.  1.
         12    1    3    3    0    0 -0.83728355850E+01  0.61497561175E+01  0.15100494761E+02  0.18328906625E+02  0.00000000000E+00 0. -1.
</event>
<event>
 7    1  0.2647566E-010  0.4778728E+02  0.7816164E-02  0.1312668E+00
        -11   -1    0    0    0    0  0.00000000000E+00  0.00000000000E+00  0.45593999997E+02  0.45594000000E+02  0.51100000000E-03 0. -1.
         11   -1    0    0    0    0 -0.00000000000E+00 -0.00000000000E+00 -0.45593999997E+02  0.45594000000E+02  0.51100000000E-03 0.  1.
    9900012    2    1    2    0    0  0.17748058277E+01  0.26350430210E+02 -0.34440204083E+02  0.47787276904E+02  0.20000026715E+02 0.  0.
         12    1    1    2    0    0 -0.17748058277E+01 -0.26350430210E+02  0.34440204083E+02  0.43400723096E+02  0.00000000000E+00 0. -1.
         11    1    3    3    0    0  0.53858092115E+01  0.15771748158E+02 -0.17861489419E+02  0.24429240376E+02  0.51100000000E-03 0. -1.
        -11    1    3    3    0    0  0.19033143649E+01  0.10769007266E+02 -0.11127061929E+02  0.15601462447E+02  0.51100000000E-03 0.  1.
        -12    1    3    3    0    0 -0.55143177486E+01 -0.19032521395E+00 -0.54516527357E+01  0.77565740808E+01  0.00000000000E+00 0.  1.
</event>
<event>
 7    1  0.2647566E-010  0.4778727E+02  0.7816164E-02  0.1312668E+00
        -11   -1    0    0    0    0  0.00000000000E+00  0.00000000000E+00  0.45593999997E+02  0.45594000000E+02  0.51100000000E-03 0.  1.
         11   -1    0    0    0    0 -0.00000000000E+00 -0.00000000000E+00 -0.45593999997E+02  0.45594000000E+02  0.51100000000E-03 0. -1.
    9900012    2    1    2    0    0 -0.39106315600E+02  0.16385314699E+02  0.92650411642E+01  0.47787269068E+02  0.19999990991E+02 0.  0.
         12    1    1    2    0    0  0.39106315600E+02 -0.16385314699E+02 -0.92650411642E+01  0.43400730932E+02  0.00000000000E+00 0. -1.
         11    1    3    3    0    0 -0.41727764880E+01  0.49193158508E+01  0.72196736596E+01  0.96817054319E+01  0.51100000000E-03 0. -1.
        -11    1    3    3    0    0 -0.14260706684E+02  0.92948797531E+01  0.30556677965E+01  0.17294497700E+02  0.51100000000E-03 0.  1.
         12    1    3    3    0    0 -0.20672832428E+02  0.21711190953E+01 -0.10103002919E+01  0.20811065936E+02  0.00000000000E+00 0. -1.
</event>
<event>
 7    1  0.2647566E-010  0.4778727E+02  0.7816164E-02  0.1312668E+00
        -11   -1    0    0    0    0  0.00000000000E+00  0.00000000000E+00  0.45593999997E+02  0.45594000000E+02  0.51100000000E-03 0. -1.
         11   -1    0    0    0    0 -0.00000000000E+00 -0.00000000000E+00 -0.45593999997E+02  0.45594000000E+02  0.51100000000E-03 0.  1.
    9900012    2    1    2    0    0 -0.34466134568E+02  0.26365293947E+02  0.76180373802E+00  0.47787268417E+02  0.19999988023E+02 0.  0.
         12    1    1    2    0    0  0.34466134568E+02 -0.26365293947E+02 -0.76180373802E+00  0.43400731583E+02  0.00000000000E+00 0. -1.
         11    1    3    3    0    0 -0.10761316001E+02  0.37328847414E+01 -0.30565973736E+01  0.11793351446E+02  0.51100000000E-03 0. -1.
        -11    1    3    3    0    0 -0.25568647831E+02  0.21976816741E+02  0.42173846628E+01  0.33978265989E+02  0.51100000000E-03 0.  1.
         12    1    3    3    0    0  0.18638292645E+01  0.65559246500E+00 -0.39898355118E+00  0.20156509821E+01  0.00000000000E+00 0. -1.
</event>
<event>
 7    1  0.2647566E-010  0.4778727E+02  0.7816164E-02  0.1312668E+00
        -11   -1    0    0    0    0  0.00000000000E+00  0.00000000000E+00  0.45593999997E+02  0.45594000000E+02  0.51100000000E-03 0. -1.
         11   -1    0    0    0    0 -0.00000000000E+00 -0.00000000000E+00 -0.45593999997E+02  0.45594000000E+02  0.51100000000E-03 0.  1.
    9900012    2    1    2    0    0  0.23135601179E+02  0.20412966428E+01 -0.36663340226E+02  0.47787269010E+02  0.19999990726E+02 0.  0.
         12    1    1    2    0    0 -0.23135601179E+02 -0.20412966428E+01  0.36663340226E+02  0.43400730990E+02  0.00000000000E+00 0. -1.
         11    1    3    3    0    0  0.62395705457E+01  0.15658487974E+01 -0.55121567413E+01  0.84715993326E+01  0.51100000000E-03 0. -1.
        -11    1    3    3    0    0  0.94725687573E+01 -0.69760913819E+01 -0.23593470636E+02  0.26363749103E+02  0.51100000000E-03 0.  1.
         12    1    3    3    0    0  0.74234618756E+01  0.74515392274E+01 -0.75577128486E+01  0.12951920575E+02  0.00000000000E+00 0. -1.
</event>
<event>
 7    1  0.2647566E-010  0.4778727E+02  0.7816164E-02  0.1312668E+00
        -11   -1    0    0    0    0  0.00000000000E+00  0.00000000000E+00  0.45593999997E+02  0.45594000000E+02  0.51100000000E-03 0.  1.
         11   -1    0    0    0    0 -0.00000000000E+00 -0.00000000000E+00 -0.45593999997E+02  0.45594000000E+02  0.51100000000E-03 0. -1.
    9900012    2    1    2    0    0  0.21247073989E+02 -0.23068394603E+02  0.30000572014E+02  0.47787270699E+02  0.19999998426E+02 0.  0.
         12    1    1    2    0    0 -0.21247073989E+02  0.23068394603E+02 -0.30000572014E+02  0.43400729301E+02  0.00000000000E+00 0. -1.
         11    1    3    3    0    0 -0.22931679589E+00 -0.11459200919E+02  0.13650377198E+02  0.17824103619E+02  0.51100000000E-03 0. -1.
        -11    1    3    3    0    0  0.56933510211E+01 -0.30853221323E+01  0.76626569783E+01  0.10032435932E+02  0.51100000000E-03 0.  1.
        -12    1    3    3    0    0  0.15783039764E+02 -0.85238715519E+01  0.86875378374E+01  0.19930731148E+02  0.00000000000E+00 0.  1.
</event>
<event>
 7    1  0.2647566E-010  0.4778727E+02  0.7816164E-02  0.1312668E+00
        -11   -1    0    0    0    0  0.00000000000E+00  0.00000000000E+00  0.45593999997E+02  0.45594000000E+02  0.51100000000E-03 0.  1.
         11   -1    0    0    0    0 -0.00000000000E+00 -0.00000000000E+00 -0.45593999997E+02  0.45594000000E+02  0.51100000000E-03 0. -1.
    9900012    2    1    2    0    0 -0.51162545910E+01  0.64337797490E+01  0.42615179661E+02  0.47787272812E+02  0.20000008059E+02 0.  0.
         12    1    1    2    0    0  0.51162545910E+01 -0.64337797490E+01 -0.42615179661E+02  0.43400727188E+02  0.00000000000E+00 0. -1.
         11    1    3    3    0    0 -0.43666939222E+01  0.17418389461E+01  0.18507587746E+01  0.50524575236E+01  0.51100000000E-03 0. -1.
        -11    1    3    3    0    0  0.42858856196E+01  0.22280150225E+01  0.69798332381E+01  0.84882824398E+01  0.51100000000E-03 0.  1.
         12    1    3    3    0    0 -0.50354462884E+01  0.24639257804E+01  0.33784587648E+02  0.34246532849E+02  0.00000000000E+00 0. -1.
</event>
<event>
 7    1  0.2647566E-010  0.4778726E+02  0.7816164E-02  0.1312668E+00
        -11   -1    0    0    0    0  0.00000000000E+00  0.00000000000E+00  0.45593999997E+02  0.45594000000E+02  0.51100000000E-03 0.  1.
         11   -1    0    0    0    0 -0.00000000000E+00 -0.00000000000E+00 -0.45593999997E+02  0.45594000000E+02  0.51100000000E-03 0. -1.
    9900012    2    1    2    0    0  0.92383453168E+01  0.85043734787E+01  0.41544583416E+02  0.47787264940E+02  0.19999972170E+02 0.  0.
         12    1    1    2    0    0 -0.92383453168E+01 -0.85043734787E+01 -0.41544583416E+02  0.43400735060E+02  0.00000000000E+00 0. -1.
         11    1    3    3    0    0 -0.33411561294E+00  0.55587052651E+01  0.12412515818E+02  0.13604462013E+02  0.51100000000E-03 0. -1.
        -11    1    3    3    0    0 -0.21639108386E+01 -0.23213905545E+01  0.11326147666E+01  0.33695965181E+01  0.51100000000E-03 0.  1.
        -12    1    3    3    0    0  0.11736371768E+02  0.52670587682E+01  0.27999452832E+02  0.30813206409E+02  0.00000000000E+00 0.  1.
</event>
<event>
 7    1  0.2647566E-010  0.4778728E+02  0.7816164E-02  0.1312668E+00
        -11   -1    0    0    0    0  0.00000000000E+00  0.00000000000E+00  0.45593999997E+02  0.45594000000E+02  0.51100000000E-03 0.  1.
         11   -1    0    0    0    0 -0.00000000000E+00 -0.00000000000E+00 -0.45593999997E+02  0.45594000000E+02  0.51100000000E-03 0. -1.
    9900012    2    1    2    0    0  0.12347833815E+02 -0.33904905880E+02  0.24116610705E+02  0.47787279331E+02  0.20000037783E+02 0.  0.
         12    1    1    2    0    0 -0.12347833815E+02  0.33904905880E+02 -0.24116610705E+02  0.43400720669E+02  0.00000000000E+00 0. -1.
         11    1    3    3    0    0 -0.30114791502E+00 -0.78392278282E+01  0.83697107610E+01  0.11471540502E+02  0.51100000000E-03 0. -1.
        -11    1    3    3    0    0  0.97859195829E+00 -0.14925681709E+02  0.19444832906E+01  0.15083588174E+02  0.51100000000E-03 0.  1.
         12    1    3    3    0    0  0.11670389771E+02 -0.11139996344E+02  0.13802416653E+02  0.21232150655E+02  0.00000000000E+00 0. -1.
</event>
<event>
 7    1  0.2647566E-010  0.4778727E+02  0.7816164E-02  0.1312668E+00
        -11   -1    0    0    0    0  0.00000000000E+00  0.00000000000E+00  0.45593999997E+02  0.45594000000E+02  0.51100000000E-03 0. -1.
         11   -1    0    0    0    0 -0.00000000000E+00 -0.00000000000E+00 -0.45593999997E+02  0.45594000000E+02  0.51100000000E-03 0.  1.
    9900012    2    1    2    0    0  0.24533014528E+02 -0.33896025655E+02 -0.11524478539E+02  0.47787274630E+02  0.20000016348E+02 0.  0.
         12    1    1    2    0    0 -0.24533014528E+02  0.33896025655E+02  0.11524478539E+02  0.43400725370E+02  0.00000000000E+00 0. -1.
         11    1    3    3    0    0  0.13184681042E+02 -0.17774433584E+02 -0.21979332375E+01  0.22239541681E+02  0.51100000000E-03 0. -1.
        -11    1    3    3    0    0  0.11840396958E+02 -0.61848373583E+01 -0.27988015727E+01  0.13648461590E+02  0.51100000000E-03 0.  1.
         12    1    3    3    0    0 -0.49206347160E+00 -0.99367547125E+01 -0.65277437290E+01  0.11899271359E+02  0.00000000000E+00 0. -1.
</event>
<event>
 7    1  0.2647566E-010  0.4778725E+02  0.7816164E-02  0.1312668E+00
        -11   -1    0    0    0    0  0.00000000000E+00  0.00000000000E+00  0.45593999997E+02  0.45594000000E+02  0.51100000000E-03 0.  1.
         11   -1    0    0    0    0 -0.00000000000E+00 -0.00000000000E+00 -0.45593999997E+02  0.45594000000E+02  0.51100000000E-03 0. -1.
    9900012    2    1    2    0    0  0.13597738923E+02  0.17004997878E+02  0.37544058011E+02  0.47787254055E+02  0.19999922538E+02 0.  0.
         12    1    1    2    0    0 -0.13597738923E+02 -0.17004997878E+02 -0.37544058011E+02  0.43400745945E+02  0.00000000000E+00 0. -1.
         11    1    3    3    0    0 -0.17869358198E+01  0.12238882821E+01  0.11214507396E+01  0.24389945005E+01  0.51100000000E-03 0. -1.
        -11    1    3    3    0    0  0.48334129302E+01  0.55560355215E+01  0.26779346924E+02  0.27773455550E+02  0.51100000000E-03 0.  1.
         12    1    3    3    0    0  0.10551261812E+02  0.10225074074E+02  0.96432603478E+01  0.17574804004E+02  0.00000000000E+00 0. -1.
</event>
<event>
 7    1  0.2647566E-010  0.4778727E+02  0.7816164E-02  0.1312668E+00
        -11   -1    0    0    0    0  0.00000000000E+00  0.00000000000E+00  0.45593999997E+02  0.45594000000E+02  0.51100000000E-03 0.  1.
         11   -1    0    0    0    0 -0.00000000000E+00 -0.00000000000E+00 -0.45593999997E+02  0.45594000000E+02  0.51100000000E-03 0. -1.
    9900012    2    1    2    0    0  0.18891301876E+02 -0.32192677055E+02  0.22144382091E+02  0.47787269583E+02  0.19999993338E+02 0.  0.
         12    1    1    2    0    0 -0.18891301876E+02  0.32192677055E+02 -0.22144382091E+02  0.43400730417E+02  0.00000000000E+00 0. -1.
         11    1    3    3    0    0  0.50020208982E+01 -0.21491402981E+00  0.22026834593E+01  0.54697546370E+01  0.51100000000E-03 0. -1.
        -11    1    3    3    0    0  0.13811658057E+01 -0.56117196905E+01  0.98855678672E+01  0.11450915648E+02  0.51100000000E-03 0.  1.
        -12    1    3    3    0    0  0.12508115172E+02 -0.26366043334E+02  0.10056130764E+02  0.30866599298E+02  0.00000000000E+00 0.  1.
</event>
<event>
 7    1  0.2647566E-010  0.4778726E+02  0.7816164E-02  0.1312668E+00
        -11   -1    0    0    0    0  0.00000000000E+00  0.00000000000E+00  0.45593999997E+02  0.45594000000E+02  0.51100000000E-03 0.  1.
         11   -1    0    0    0    0 -0.00000000000E+00 -0.00000000000E+00 -0.45593999997E+02  0.45594000000E+02  0.51100000000E-03 0. -1.
    9900012    2    1    2    0    0 -0.37180374843E+01 -0.38735188694E+02  0.19219396767E+02  0.47787264315E+02  0.19999969319E+02 0.  0.
         12    1    1    2    0    0  0.37180374843E+01  0.38735188694E+02 -0.19219396767E+02  0.43400735685E+02  0.00000000000E+00 0. -1.
         11    1    3    3    0    0 -0.17879483019E+01 -0.83161357197E+01  0.76775517842E+01  0.11458606988E+02  0.51100000000E-03 0. -1.
        -11    1    3    3    0    0 -0.66720722450E+01 -0.28586811577E+02  0.10108450313E+02  0.31046789080E+02  0.51100000000E-03 0.  1.
         12    1    3    3    0    0  0.47419830626E+01 -0.18322413972E+01  0.14333946692E+01  0.52818682473E+01  0.00000000000E+00 0. -1.
</event>
<event>
 7    1  0.2647566E-010  0.4778727E+02  0.7816164E-02  0.1312668E+00
        -11   -1    0    0    0    0  0.00000000000E+00  0.00000000000E+00  0.45593999997E+02  0.45594000000E+02  0.51100000000E-03 0.  1.
         11   -1    0    0    0    0 -0.00000000000E+00 -0.00000000000E+00 -0.45593999997E+02  0.45594000000E+02  0.51100000000E-03 0. -1.
    9900012    2    1    2    0    0  0.16179872334E+02  0.96178604765E+01  0.39106673786E+02  0.47787269090E+02  0.19999991089E+02 0.  0.
         12    1    1    2    0    0 -0.16179872334E+02 -0.96178604765E+01 -0.39106673786E+02  0.43400730910E+02  0.00000000000E+00 0. -1.
         11    1    3    3    0    0  0.19350511503E+01  0.36787578743E+01 -0.74342926501E+00  0.42226022528E+01  0.51100000000E-03 0. -1.
        -11    1    3    3    0    0  0.45257476377E+00 -0.59124698233E+00 -0.14377954309E+00  0.75833352099E+00  0.51100000000E-03 0.  1.
        -12    1    3    3    0    0  0.13792246420E+02  0.65303495845E+01  0.39993882594E+02  0.42806333316E+02  0.00000000000E+00 0.  1.
</event>
<event>
 7    1  0.2647566E-010  0.4778727E+02  0.7816164E-02  0.1312668E+00
        -11   -1    0    0    0    0  0.00000000000E+00  0.00000000000E+00  0.45593999997E+02  0.45594000000E+02  0.51100000000E-03 0. -1.
         11   -1    0    0    0    0 -0.00000000000E+00 -0.00000000000E+00 -0.45593999997E+02  0.45594000000E+02  0.51100000000E-03 0.  1.
    9900012    2    1    2    0    0  0.83784262972E+01 -0.42549746714E+02 -0.17158624232E+01  0.47787272396E+02  0.20000006164E+02 0.  0.
         12    1    1    2    0    0 -0.83784262972E+01  0.42549746714E+02  0.17158624232E+01  0.43400727604E+02  0.00000000000E+00 0. -1.
         11    1    3    3    0    0  0.61702794928E+01 -0.60192721805E+01 -0.16289139689E+01  0.87725337036E+01  0.51100000000E-03 0. -1.
        -11    1    3    3    0    0  0.69264200439E+01 -0.15432389139E+02  0.29897461619E+01  0.17177674800E+02  0.51100000000E-03 0.  1.
        -12    1    3    3    0    0 -0.47182732395E+01 -0.21098085394E+02 -0.30766946161E+01  0.21837063892E+02  0.00000000000E+00 0.  1.
</event>
<event>
 7    1  0.2647566E-010  0.4778727E+02  0.7816164E-02  0.1312668E+00
        -11   -1    0    0    0    0  0.00000000000E+00  0.00000000000E+00  0.45593999997E+02  0.45594000000E+02  0.51100000000E-03 0. -1.
         11   -1    0    0    0    0 -0.00000000000E+00 -0.00000000000E+00 -0.45593999997E+02  0.45594000000E+02  0.51100000000E-03 0.  1.
    9900012    2    1    2    0    0 -0.41239662787E+01 -0.43190613210E+02  0.10895236616E+01  0.47787271559E+02  0.20000002348E+02 0.  0.
         12    1    1    2    0    0  0.41239662787E+01  0.43190613210E+02 -0.10895236616E+01  0.43400728441E+02  0.00000000000E+00 0. -1.
         11    1    3    3    0    0  0.57191716447E+01 -0.63803283351E+01  0.26670708668E+01  0.89738944297E+01  0.51100000000E-03 0. -1.
        -11    1    3    3    0    0 -0.96682710995E+00 -0.11655017876E+02  0.21114257770E+01  0.11884120305E+02  0.51100000000E-03 0.  1.
         12    1    3    3    0    0 -0.88763108135E+01 -0.25155266999E+02 -0.36889729823E+01  0.26929256824E+02  0.00000000000E+00 0. -1.
</event>
<event>
 7    1  0.2647566E-010  0.4778727E+02  0.7816164E-02  0.1312668E+00
        -11   -1    0    0    0    0  0.00000000000E+00  0.00000000000E+00  0.45593999997E+02  0.45594000000E+02  0.51100000000E-03 0.  1.
         11   -1    0    0    0    0 -0.00000000000E+00 -0.00000000000E+00 -0.45593999997E+02  0.45594000000E+02  0.51100000000E-03 0. -1.
    9900012    2    1    2    0    0 -0.42901921589E+02 -0.27927864261E+01 -0.59370926322E+01  0.47787267276E+02  0.19999982820E+02 0.  0.
         12    1    1    2    0    0  0.42901921589E+02  0.27927864261E+01  0.59370926322E+01  0.43400732724E+02  0.00000000000E+00 0. -1.
         11    1    3    3    0    0 -0.69817076254E+01  0.17553508832E+01  0.49732567818E+00  0.72161507178E+01  0.51100000000E-03 0. -1.
        -11    1    3    3    0    0 -0.13116177506E+02 -0.54678473310E+01 -0.10129941345E+02  0.17451280146E+02  0.51100000000E-03 0.  1.
        -12    1    3    3    0    0 -0.22804036457E+02  0.91971002167E+00  0.36955230350E+01  0.23119836413E+02  0.00000000000E+00 0.  1.
</event>
<event>
 7    1  0.2647566E-010  0.4778727E+02  0.7816164E-02  0.1312668E+00
        -11   -1    0    0    0    0  0.00000000000E+00  0.00000000000E+00  0.45593999997E+02  0.45594000000E+02  0.51100000000E-03 0.  1.
         11   -1    0    0    0    0 -0.00000000000E+00 -0.00000000000E+00 -0.45593999997E+02  0.45594000000E+02  0.51100000000E-03 0. -1.
    9900012    2    1    2    0    0  0.16461970764E+02  0.28445663779E+02  0.28345560061E+02  0.47787273688E+02  0.20000012051E+02 0.  0.
         12    1    1    2    0    0 -0.16461970764E+02 -0.28445663779E+02 -0.28345560061E+02  0.43400726312E+02  0.00000000000E+00 0. -1.
         11    1    3    3    0    0  0.23688536653E+01 -0.11797763499E+01  0.24999091732E+01  0.36404513537E+01  0.51100000000E-03 0. -1.
        -11    1    3    3    0    0  0.99332596286E+01  0.14416074211E+02  0.21625930740E+02  0.27823977486E+02  0.51100000000E-03 0.  1.
        -12    1    3    3    0    0  0.41598574696E+01  0.15209365918E+02  0.42197201478E+01  0.16322844848E+02  0.00000000000E+00 0.  1.
</event>
<event>
 7    1  0.2647566E-010  0.4778728E+02  0.7816164E-02  0.1312668E+00
        -11   -1    0    0    0    0  0.00000000000E+00  0.00000000000E+00  0.45593999997E+02  0.45594000000E+02  0.51100000000E-03 0. -1.
         11   -1    0    0    0    0 -0.00000000000E+00 -0.00000000000E+00 -0.45593999997E+02  0.45594000000E+02  0.51100000000E-03 0.  1.
    9900012    2    1    2    0    0  0.69330484232E+01  0.34764609074E+02 -0.25039518544E+02  0.47787277731E+02  0.20000030487E+02 0.  0.
         12    1    1    2    0    0 -0.69330484232E+01 -0.34764609074E+02  0.25039518544E+02  0.43400722269E+02  0.00000000000E+00 0. -1.
         11    1    3    3    0    0 -0.43815850645E+01  0.68287426983E+00 -0.29920407185E+01  0.53494778126E+01  0.51100000000E-03 0. -1.
        -11    1    3    3    0    0  0.35976730903E+01  0.63275609274E+01 -0.28334769846E+01  0.78108815788E+01  0.51100000000E-03 0.  1.
         12    1    3    3    0    0  0.77169603974E+01  0.27754173877E+02 -0.19214000841E+02  0.34626918340E+02  0.00000000000E+00 0. -1.
</event>
<event>
 7    1  0.2985740E-010  0.4778727E+02  0.7816164E-02  0.1312668E+00
        -11   -1    0    0    0    0  0.00000000000E+00  0.00000000000E+00  0.45593999997E+02  0.45594000000E+02  0.51100000000E-03 0.  1.
         11   -1    0    0    0    0 -0.00000000000E+00 -0.00000000000E+00 -0.45593999997E+02  0.45594000000E+02  0.51100000000E-03 0. -1.
    9900012    2    1    2    0    0  0.28618012786E+01  0.29356464261E+02 -0.31837580263E+02  0.47787269390E+02  0.19999992458E+02 0.  0.
         12    1    1    2    0    0 -0.28618012786E+01 -0.29356464261E+02  0.31837580263E+02  0.43400730610E+02  0.00000000000E+00 0. -1.
         11    1    3    3    0    0  0.42562430849E+01  0.81112967396E+01 -0.28482224478E+01  0.95927634897E+01  0.51100000000E-03 0. -1.
        -11    1    3    3    0    0  0.18889349241E+01  0.19979125797E+02 -0.19127231931E+02  0.27723357380E+02  0.51100000000E-03 0.  1.
         12    1    3    3    0    0 -0.32833767305E+01  0.12660417236E+01 -0.98621258840E+01  0.10471148521E+02  0.00000000000E+00 0. -1.
</event>
<event>
 7    1  0.2647566E-010  0.4778727E+02  0.7816164E-02  0.1312668E+00
        -11   -1    0    0    0    0  0.00000000000E+00  0.00000000000E+00  0.45593999997E+02  0.45594000000E+02  0.51100000000E-03 0.  1.
         11   -1    0    0    0    0 -0.00000000000E+00 -0.00000000000E+00 -0.45593999997E+02  0.45594000000E+02  0.51100000000E-03 0. -1.
    9900012    2    1    2    0    0  0.33408350006E+02  0.13098294292E+02  0.24411883711E+02  0.47787271552E+02  0.20000002314E+02 0.  0.
         12    1    1    2    0    0 -0.33408350006E+02 -0.13098294292E+02 -0.24411883711E+02  0.43400728448E+02  0.00000000000E+00 0. -1.
         11    1    3    3    0    0  0.77605975466E+01  0.52067085278E+01  0.19640493062E+01  0.95495642787E+01  0.51100000000E-03 0. -1.
        -11    1    3    3    0    0  0.16949594927E+02  0.45870205631E+01  0.22976493136E+02  0.28917966092E+02  0.51100000000E-03 0.  1.
        -12    1    3    3    0    0  0.86981575328E+01  0.33045652013E+01 -0.52865873091E+00  0.93197411814E+01  0.00000000000E+00 0.  1.
</event>
<event>
 7    1  0.2647566E-010  0.4778727E+02  0.7816164E-02  0.1312668E+00
        -11   -1    0    0    0    0  0.00000000000E+00  0.00000000000E+00  0.45593999997E+02  0.45594000000E+02  0.51100000000E-03 0.  1.
         11   -1    0    0    0    0 -0.00000000000E+00 -0.00000000000E+00 -0.45593999997E+02  0.45594000000E+02  0.51100000000E-03 0. -1.
    9900012    2    1    2    0    0 -0.22280654273E+02  0.34076759997E+02  0.15032313063E+02  0.47787267716E+02  0.19999984826E+02 0.  0.
         12    1    1    2    0    0  0.22280654273E+02 -0.34076759997E+02 -0.15032313063E+02  0.43400732284E+02  0.00000000000E+00 0. -1.
         11    1    3    3    0    0 -0.59826952934E+01  0.73848445412E+01 -0.96437186760E+00  0.95529359482E+01  0.51100000000E-03 0. -1.
        -11    1    3    3    0    0 -0.32821962322E+01  0.17789129022E+02  0.42803030307E+01  0.18588892323E+02  0.51100000000E-03 0.  1.
        -12    1    3    3    0    0 -0.13015762747E+02  0.89027864334E+01  0.11716381900E+02  0.19645439445E+02  0.00000000000E+00 0.  1.
</event>
<event>
 7    1  0.2647566E-010  0.4778727E+02  0.7816164E-02  0.1312668E+00
        -11   -1    0    0    0    0  0.00000000000E+00  0.00000000000E+00  0.45593999997E+02  0.45594000000E+02  0.51100000000E-03 0.  1.
         11   -1    0    0    0    0 -0.00000000000E+00 -0.00000000000E+00 -0.45593999997E+02  0.45594000000E+02  0.51100000000E-03 0. -1.
    9900012    2    1    2    0    0  0.26309604660E+02  0.25544214876E+02  0.23214667295E+02  0.47787274331E+02  0.20000014983E+02 0.  0.
         12    1    1    2    0    0 -0.26309604660E+02 -0.25544214876E+02 -0.23214667295E+02  0.43400725669E+02  0.00000000000E+00 0. -1.
         11    1    3    3    0    0  0.18716341340E+01 -0.50037428707E+00  0.16336641429E+00  0.19442421673E+01  0.51100000000E-03 0. -1.
        -11    1    3    3    0    0  0.24973929660E+02  0.16348755384E+02  0.18513237025E+02  0.35124335021E+02  0.51100000000E-03 0.  1.
        -12    1    3    3    0    0 -0.53595913379E+00  0.96958337797E+01  0.45380638561E+01  0.10718697143E+02  0.00000000000E+00 0.  1.
</event>
<event>
 7    1  0.2647566E-010  0.4778728E+02  0.7816164E-02  0.1312668E+00
        -11   -1    0    0    0    0  0.00000000000E+00  0.00000000000E+00  0.45593999997E+02  0.45594000000E+02  0.51100000000E-03 0.  1.
         11   -1    0    0    0    0 -0.00000000000E+00 -0.00000000000E+00 -0.45593999997E+02  0.45594000000E+02  0.51100000000E-03 0. -1.
    9900012    2    1    2    0    0  0.14492203017E+02 -0.35107396852E+02  0.21001655285E+02  0.47787276657E+02  0.20000025588E+02 0.  0.
         12    1    1    2    0    0 -0.14492203017E+02  0.35107396852E+02 -0.21001655285E+02  0.43400723343E+02  0.00000000000E+00 0. -1.
         11    1    3    3    0    0  0.12487760455E+01 -0.80704716505E+01  0.79827904977E+01  0.11420021833E+02  0.51100000000E-03 0. -1.
        -11    1    3    3    0    0  0.12503887918E+02 -0.29111100811E+02  0.12736870299E+02  0.34147200013E+02  0.51100000000E-03 0.  1.
         12    1    3    3    0    0  0.73953905382E+00  0.20741756092E+01  0.28199448874E+00  0.22200548105E+01  0.00000000000E+00 0. -1.
</event>
<event>
 7    1  0.2647566E-010  0.4778727E+02  0.7816164E-02  0.1312668E+00
        -11   -1    0    0    0    0  0.00000000000E+00  0.00000000000E+00  0.45593999997E+02  0.45594000000E+02  0.51100000000E-03 0.  1.
         11   -1    0    0    0    0 -0.00000000000E+00 -0.00000000000E+00 -0.45593999997E+02  0.45594000000E+02  0.51100000000E-03 0. -1.
    9900012    2    1    2    0    0 -0.21504419835E+02 -0.25604350072E+01  0.37611532487E+02  0.47787271021E+02  0.19999999895E+02 0.  0.
         12    1    1    2    0    0  0.21504419835E+02  0.25604350072E+01 -0.37611532487E+02  0.43400728979E+02  0.00000000000E+00 0. -1.
         11    1    3    3    0    0 -0.45618014512E+01  0.63455354649E+01  0.72445473229E+01  0.10656421491E+02  0.51100000000E-03 0. -1.
        -11    1    3    3    0    0 -0.12765645764E+02 -0.15101775118E+01  0.17524208165E+02  0.21733389518E+02  0.51100000000E-03 0.  1.
        -12    1    3    3    0    0 -0.41769726200E+01 -0.73957929603E+01  0.12842776999E+02  0.15397460012E+02  0.00000000000E+00 0.  1.
</event>
<event>
 7    1  0.2647566E-010  0.4778727E+02  0.7816164E-02  0.1312668E+00
        -11   -1    0    0    0    0  0.00000000000E+00  0.00000000000E+00  0.45593999997E+02  0.45594000000E+02  0.51100000000E-03 0.  1.
         11   -1    0    0    0    0 -0.00000000000E+00 -0.00000000000E+00 -0.45593999997E+02  0.45594000000E+02  0.51100000000E-03 0. -1.
    9900012    2    1    2    0    0 -0.22174473667E+02  0.14877018339E+02  0.34213890317E+02  0.47787271346E+02  0.20000001376E+02 0.  0.
         12    1    1    2    0    0  0.22174473667E+02 -0.14877018339E+02 -0.34213890317E+02  0.43400728654E+02  0.00000000000E+00 0. -1.
         11    1    3    3    0    0  0.50728033072E+00  0.15207320263E+01  0.97192682827E+01  0.98505906139E+01  0.51100000000E-03 0. -1.
        -11    1    3    3    0    0  0.14249078398E+01  0.13575812566E+01  0.24061034951E+01  0.31084921603E+01  0.51100000000E-03 0.  1.
        -12    1    3    3    0    0 -0.24106661837E+02  0.11998705056E+02  0.22088518539E+02  0.34828188572E+02  0.00000000000E+00 0.  1.
</event>
<event>
 7    1  0.2647566E-010  0.4778727E+02  0.7816164E-02  0.1312668E+00
        -11   -1    0    0    0    0  0.00000000000E+00  0.00000000000E+00  0.45593999997E+02  0.45594000000E+02  0.51100000000E-03 0.  1.
         11   -1    0    0    0    0 -0.00000000000E+00 -0.00000000000E+00 -0.45593999997E+02  0.45594000000E+02  0.51100000000E-03 0. -1.
    9900012    2    1    2    0    0  0.11945494396E+02 -0.35148517689E+02  0.22483552048E+02  0.47787271380E+02  0.20000001528E+02 0.  0.
         12    1    1    2    0    0 -0.11945494396E+02  0.35148517689E+02 -0.22483552048E+02  0.43400728620E+02  0.00000000000E+00 0. -1.
         11    1    3    3    0    0  0.27938007348E+01 -0.21287666276E+00 -0.39041891019E+00  0.28289691066E+01  0.51100000000E-03 0. -1.
        -11    1    3    3    0    0  0.11761836546E+02 -0.21880183369E+02  0.11192038079E+02  0.27246007778E+02  0.51100000000E-03 0.  1.
         12    1    3    3    0    0 -0.26101428845E+01 -0.13055457657E+02  0.11681932878E+02  0.17712294495E+02  0.00000000000E+00 0. -1.
</event>
<event>
 7    1  0.2647566E-010  0.4778726E+02  0.7816164E-02  0.1312668E+00
        -11   -1    0    0    0    0  0.00000000000E+00  0.00000000000E+00  0.45593999997E+02  0.45594000000E+02  0.51100000000E-03 0. -1.
         11   -1    0    0    0    0 -0.00000000000E+00 -0.00000000000E+00 -0.45593999997E+02  0.45594000000E+02  0.51100000000E-03 0.  1.
    9900012    2    1    2    0    0  0.24638495043E+02 -0.32302551561E+02  0.15268055838E+02  0.47787264933E+02  0.19999972134E+02 0.  0.
         12    1    1    2    0    0 -0.24638495043E+02  0.32302551561E+02 -0.15268055838E+02  0.43400735067E+02  0.00000000000E+00 0. -1.
         11    1    3    3    0    0  0.13571034997E+01 -0.38867935799E+01 -0.22453089351E+01  0.46893823385E+01  0.51100000000E-03 0. -1.
        -11    1    3    3    0    0  0.27313559056E+01 -0.10951637985E+02  0.68125608696E+00  0.11307642980E+02  0.51100000000E-03 0.  1.
         12    1    3    3    0    0  0.20550035637E+02 -0.17464119996E+02  0.16832108686E+02  0.31790239614E+02  0.00000000000E+00 0. -1.
</event>
<event>
 7    1  0.2647566E-010  0.4778727E+02  0.7816164E-02  0.1312668E+00
        -11   -1    0    0    0    0  0.00000000000E+00  0.00000000000E+00  0.45593999997E+02  0.45594000000E+02  0.51100000000E-03 0.  1.
         11   -1    0    0    0    0 -0.00000000000E+00 -0.00000000000E+00 -0.45593999997E+02  0.45594000000E+02  0.51100000000E-03 0. -1.
    9900012    2    1    2    0    0  0.31508964873E+02 -0.86751633508E+01  0.28557838999E+02  0.47787268499E+02  0.19999988394E+02 0.  0.
         12    1    1    2    0    0 -0.31508964873E+02  0.86751633508E+01 -0.28557838999E+02  0.43400731501E+02  0.00000000000E+00 0. -1.
         11    1    3    3    0    0  0.94740663880E+01 -0.44050003040E+01  0.13750786653E+02  0.17269802994E+02  0.51100000000E-03 0. -1.
        -11    1    3    3    0    0  0.17110986079E+02 -0.85358642101E+01  0.14495865725E+02  0.23995352587E+02  0.51100000000E-03 0.  1.
         12    1    3    3    0    0  0.49239124064E+01  0.42657011633E+01  0.31118662021E+00  0.65221129178E+01  0.00000000000E+00 0. -1.
</event>
<event>
 7    1  0.2647566E-010  0.4778727E+02  0.7816164E-02  0.1312668E+00
        -11   -1    0    0    0    0  0.00000000000E+00  0.00000000000E+00  0.45593999997E+02  0.45594000000E+02  0.51100000000E-03 0.  1.
         11   -1    0    0    0    0 -0.00000000000E+00 -0.00000000000E+00 -0.45593999997E+02  0.45594000000E+02  0.51100000000E-03 0. -1.
    9900012    2    1    2    0    0 -0.12029390145E+02  0.30146070675E+02  0.28812003835E+02  0.47787269944E+02  0.19999994984E+02 0.  0.
         12    1    1    2    0    0  0.12029390145E+02 -0.30146070675E+02 -0.28812003835E+02  0.43400730056E+02  0.00000000000E+00 0. -1.
         11    1    3    3    0    0 -0.81809772453E+00  0.68874976006E+01  0.50348292980E+00  0.69541643932E+01  0.51100000000E-03 0. -1.
        -11    1    3    3    0    0  0.16591158836E+01  0.11695564579E+02  0.14459702145E+02  0.18671418873E+02  0.51100000000E-03 0.  1.
         12    1    3    3    0    0 -0.12870408304E+02  0.11563008495E+02  0.13848818760E+02  0.22161686678E+02  0.00000000000E+00 0. -1.
</event>
<event>
 7    1  0.2647566E-010  0.4778727E+02  0.7816164E-02  0.1312668E+00
        -11   -1    0    0    0    0  0.00000000000E+00  0.00000000000E+00  0.45593999997E+02  0.45594000000E+02  0.51100000000E-03 0. -1.
         11   -1    0    0    0    0 -0.00000000000E+00 -0.00000000000E+00 -0.45593999997E+02  0.45594000000E+02  0.51100000000E-03 0.  1.
    9900012    2    1    2    0    0  0.11897193543E+02 -0.27045728787E+02 -0.31790073061E+02  0.47787269533E+02  0.19999993110E+02 0.  0.
         12    1    1    2    0    0 -0.11897193543E+02  0.27045728787E+02  0.31790073061E+02  0.43400730467E+02  0.00000000000E+00 0. -1.
         11    1    3    3    0    0 -0.60332407280E+00 -0.16542308525E+02 -0.20026365949E+02  0.25982057360E+02  0.51100000000E-03 0. -1.
        -11    1    3    3    0    0  0.19973580828E+01 -0.69474995508E+01 -0.53696897604E+01  0.90050406831E+01  0.51100000000E-03 0.  1.
        -12    1    3    3    0    0  0.10503159533E+02 -0.35559207109E+01 -0.63940173515E+01  0.12800171490E+02  0.00000000000E+00 0.  1.
</event>
<event>
 7    1  0.2647566E-010  0.4778727E+02  0.7816164E-02  0.1312668E+00
        -11   -1    0    0    0    0  0.00000000000E+00  0.00000000000E+00  0.45593999997E+02  0.45594000000E+02  0.51100000000E-03 0. -1.
         11   -1    0    0    0    0 -0.00000000000E+00 -0.00000000000E+00 -0.45593999997E+02  0.45594000000E+02  0.51100000000E-03 0.  1.
    9900012    2    1    2    0    0 -0.27085096192E+02  0.33358981735E+02 -0.60991265820E+01  0.47787269094E+02  0.19999991105E+02 0.  0.
         12    1    1    2    0    0  0.27085096192E+02 -0.33358981735E+02  0.60991265820E+01  0.43400730906E+02  0.00000000000E+00 0. -1.
         11    1    3    3    0    0 -0.25180572957E+01  0.97553986070E+00  0.41358081634E+01  0.49393521833E+01  0.51100000000E-03 0. -1.
        -11    1    3    3    0    0 -0.89561812631E+01  0.60008331857E+01 -0.97499464117E+00  0.10824684594E+02  0.51100000000E-03 0.  1.
        -12    1    3    3    0    0 -0.15610857633E+02  0.26382608689E+02 -0.92599401043E+01  0.32023232317E+02  0.00000000000E+00 0.  1.
</event>
<event>
 7    1  0.2647566E-010  0.4778726E+02  0.7816164E-02  0.1312668E+00
        -11   -1    0    0    0    0  0.00000000000E+00  0.00000000000E+00  0.45593999997E+02  0.45594000000E+02  0.51100000000E-03 0.  1.
         11   -1    0    0    0    0 -0.00000000000E+00 -0.00000000000E+00 -0.45593999997E+02  0.45594000000E+02  0.51100000000E-03 0. -1.
    9900012    2    1    2    0    0 -0.63783945545E+01 -0.26662858424E+02  0.33645681810E+02  0.47787264512E+02  0.19999970216E+02 0.  0.
         12    1    1    2    0    0  0.63783945545E+01  0.26662858424E+02 -0.33645681810E+02  0.43400735488E+02  0.00000000000E+00 0. -1.
         11    1    3    3    0    0  0.30738786189E+01 -0.39138430938E+01  0.28709144384E+01  0.57453500764E+01  0.51100000000E-03 0.  1.
        -11    1    3    3    0    0  0.19312741829E+01  0.87896531901E+00  0.94771149333E+00  0.23239099245E+01  0.51100000000E-03 0. -1.
        -12    1    3    3    0    0 -0.11383547356E+02 -0.23627980650E+02  0.29827055878E+02  0.39718004511E+02  0.00000000000E+00 0.  1.
</event>
<event>
 7    1  0.2647566E-010  0.4778727E+02  0.7816164E-02  0.1312668E+00
        -11   -1    0    0    0    0  0.00000000000E+00  0.00000000000E+00  0.45593999997E+02  0.45594000000E+02  0.51100000000E-03 0.  1.
         11   -1    0    0    0    0 -0.00000000000E+00 -0.00000000000E+00 -0.45593999997E+02  0.45594000000E+02  0.51100000000E-03 0. -1.
    9900012    2    1    2    0    0  0.11152208310E+01  0.30115434476E+01  0.43281757961E+02  0.47787266324E+02  0.19999978477E+02 0.  0.
         12    1    1    2    0    0 -0.11152208310E+01 -0.30115434476E+01 -0.43281757961E+02  0.43400733676E+02  0.00000000000E+00 0. -1.
         11    1    3    3    0    0  0.14538218349E+01 -0.53358936302E+01  0.78772831050E+01  0.96248089923E+01  0.51100000000E-03 0. -1.
        -11    1    3    3    0    0  0.55882077329E+01  0.37127648355E+01  0.15934030684E+02  0.17288898822E+02  0.51100000000E-03 0.  1.
         12    1    3    3    0    0 -0.59268087368E+01  0.46346722422E+01  0.19470444172E+02  0.20873558509E+02  0.00000000000E+00 0. -1.
</event>
<event>
 7    1  0.2647566E-010  0.4778727E+02  0.7816164E-02  0.1312668E+00
        -11   -1    0    0    0    0  0.00000000000E+00  0.00000000000E+00  0.45593999997E+02  0.45594000000E+02  0.51100000000E-03 0. -1.
         11   -1    0    0    0    0 -0.00000000000E+00 -0.00000000000E+00 -0.45593999997E+02  0.45594000000E+02  0.51100000000E-03 0.  1.
    9900012    2    1    2    0    0 -0.32148476869E+02 -0.12070685927E+02 -0.26540488108E+02  0.47787268062E+02  0.19999986400E+02 0.  0.
         12    1    1    2    0    0  0.32148476869E+02  0.12070685927E+02  0.26540488108E+02  0.43400731938E+02  0.00000000000E+00 0. -1.
         11    1    3    3    0    0 -0.67338665060E+01 -0.55065957908E+01  0.14272120312E+00  0.86998807421E+01  0.51100000000E-03 0. -1.
        -11    1    3    3    0    0 -0.25917444173E+01  0.58512600706E+00  0.68279013677E+00  0.27433035196E+01  0.51100000000E-03 0.  1.
        -12    1    3    3    0    0 -0.22822865946E+02 -0.71492161434E+01 -0.27365999448E+02  0.36344083800E+02  0.00000000000E+00 0.  1.
</event>
<event>
 7    1  0.2647566E-010  0.4778727E+02  0.7816164E-02  0.1312668E+00
        -11   -1    0    0    0    0  0.00000000000E+00  0.00000000000E+00  0.45593999997E+02  0.45594000000E+02  0.51100000000E-03 0.  1.
         11   -1    0    0    0    0 -0.00000000000E+00 -0.00000000000E+00 -0.45593999997E+02  0.45594000000E+02  0.51100000000E-03 0. -1.
    9900012    2    1    2    0    0 -0.40098371540E+02 -0.15494278479E+02  0.59725362276E+01  0.47787271265E+02  0.20000001005E+02 0.  0.
         12    1    1    2    0    0  0.40098371540E+02  0.15494278479E+02 -0.59725362276E+01  0.43400728735E+02  0.00000000000E+00 0. -1.
         11    1    3    3    0    0 -0.15692141116E+02 -0.25526401144E+01  0.75367457305E+01  0.17594368441E+02  0.51100000000E-03 0. -1.
        -11    1    3    3    0    0 -0.18626455463E+02 -0.54728416340E+01  0.31002499700E+01  0.19659816601E+02  0.51100000000E-03 0.  1.
         12    1    3    3    0    0 -0.57797749609E+01 -0.74687967301E+01 -0.46644594730E+01  0.10533086222E+02  0.00000000000E+00 0. -1.
</event>
<event>
 7    1  0.2647566E-010  0.4778723E+02  0.7816164E-02  0.1312668E+00
        -11   -1    0    0    0    0  0.00000000000E+00  0.00000000000E+00  0.45593999997E+02  0.45594000000E+02  0.51100000000E-03 0. -1.
         11   -1    0    0    0    0 -0.00000000000E+00 -0.00000000000E+00 -0.45593999997E+02  0.45594000000E+02  0.51100000000E-03 0.  1.
    9900012    2    1    2    0    0 -0.14384372412E+02 -0.35170512446E+02 -0.20970256077E+02  0.47787230936E+02  0.19999817129E+02 0.  0.
         12    1    1    2    0    0  0.14384372412E+02  0.35170512446E+02  0.20970256077E+02  0.43400769064E+02  0.00000000000E+00 0. -1.
         11    1    3    3    0    0 -0.14335510013E+00 -0.58388519732E+01  0.31539410458E+01  0.66377772960E+01  0.51100000000E-03 0. -1.
        -11    1    3    3    0    0 -0.52947374751E+01 -0.91925465716E+01 -0.40976554608E+01  0.11372244191E+02  0.51100000000E-03 0.  1.
        -12    1    3    3    0    0 -0.89462798369E+01 -0.20139113901E+02 -0.20026541662E+02  0.29777209449E+02  0.00000000000E+00 0.  1.
</event>
<event>
 7    1  0.2647566E-010  0.4778727E+02  0.7816164E-02  0.1312668E+00
        -11   -1    0    0    0    0  0.00000000000E+00  0.00000000000E+00  0.45593999997E+02  0.45594000000E+02  0.51100000000E-03 0.  1.
         11   -1    0    0    0    0 -0.00000000000E+00 -0.00000000000E+00 -0.45593999997E+02  0.45594000000E+02  0.51100000000E-03 0. -1.
    9900012    2    1    2    0    0 -0.10290981943E+02  0.11909754927E+02  0.40445973540E+02  0.47787270197E+02  0.19999996138E+02 0.  0.
         12    1    1    2    0    0  0.10290981943E+02 -0.11909754927E+02 -0.40445973540E+02  0.43400729803E+02  0.00000000000E+00 0. -1.
         11    1    3    3    0    0 -0.66598779934E+00 -0.35725573430E+01  0.78138255732E+00  0.37171581457E+01  0.51100000000E-03 0. -1.
        -11    1    3    3    0    0 -0.69817629238E+01  0.10310820937E+02  0.32765372997E+02  0.35051786115E+02  0.51100000000E-03 0.  1.
         12    1    3    3    0    0 -0.26432312201E+01  0.51714913327E+01  0.68992179860E+01  0.90183259369E+01  0.00000000000E+00 0. -1.
</event>
<event>
 7    1  0.2647566E-010  0.4778727E+02  0.7816164E-02  0.1312668E+00
        -11   -1    0    0    0    0  0.00000000000E+00  0.00000000000E+00  0.45593999997E+02  0.45594000000E+02  0.51100000000E-03 0.  1.
         11   -1    0    0    0    0 -0.00000000000E+00 -0.00000000000E+00 -0.45593999997E+02  0.45594000000E+02  0.51100000000E-03 0. -1.
    9900012    2    1    2    0    0 -0.21990394583E+02  0.23079869368E+02  0.29451067969E+02  0.47787271568E+02  0.20000002387E+02 0.  0.
         12    1    1    2    0    0  0.21990394583E+02 -0.23079869368E+02 -0.29451067969E+02  0.43400728432E+02  0.00000000000E+00 0. -1.
         11    1    3    3    0    0 -0.99010686469E+01  0.71862257221E+01  0.94551328487E+00  0.12270574400E+02  0.51100000000E-03 0. -1.
        -11    1    3    3    0    0 -0.67599308062E+00  0.56940545539E+00 -0.31431286716E+00  0.93807358840E+00  0.51100000000E-03 0.  1.
        -12    1    3    3    0    0 -0.11413332855E+02  0.15324238190E+02  0.28819867551E+02  0.34578623579E+02  0.00000000000E+00 0.  1.
</event>
<event>
 7    1  0.2647566E-010  0.4778727E+02  0.7816164E-02  0.1312668E+00
        -11   -1    0    0    0    0  0.00000000000E+00  0.00000000000E+00  0.45593999997E+02  0.45594000000E+02  0.51100000000E-03 0.  1.
         11   -1    0    0    0    0 -0.00000000000E+00 -0.00000000000E+00 -0.45593999997E+02  0.45594000000E+02  0.51100000000E-03 0. -1.
    9900012    2    1    2    0    0 -0.14094925738E+02 -0.13287540654E+02  0.38838092604E+02  0.47787272986E+02  0.20000008852E+02 0.  0.
         12    1    1    2    0    0  0.14094925738E+02  0.13287540654E+02 -0.38838092604E+02  0.43400727014E+02  0.00000000000E+00 0. -1.
         11    1    3    3    0    0 -0.48022474181E+01 -0.56183756747E+01  0.52728011710E+01  0.90791055692E+01  0.51100000000E-03 0. -1.
        -11    1    3    3    0    0 -0.73891140122E+01  0.17413688607E+01  0.65126632050E+01  0.10002307418E+02  0.51100000000E-03 0.  1.
         12    1    3    3    0    0 -0.19035643078E+01 -0.94105338403E+01  0.27052628228E+02  0.28705859999E+02  0.00000000000E+00 0. -1.
</event>
<event>
 7    1  0.2647566E-010  0.4778727E+02  0.7816164E-02  0.1312668E+00
        -11   -1    0    0    0    0  0.00000000000E+00  0.00000000000E+00  0.45593999997E+02  0.45594000000E+02  0.51100000000E-03 0.  1.
         11   -1    0    0    0    0 -0.00000000000E+00 -0.00000000000E+00 -0.45593999997E+02  0.45594000000E+02  0.51100000000E-03 0. -1.
    9900012    2    1    2    0    0 -0.23699232826E+02  0.24638957552E+02  0.26737451741E+02  0.47787271995E+02  0.20000004332E+02 0.  0.
         12    1    1    2    0    0  0.23699232826E+02 -0.24638957552E+02 -0.26737451741E+02  0.43400728005E+02  0.00000000000E+00 0. -1.
         11    1    3    3    0    0  0.28408572156E+01  0.26556107465E+01 -0.93805612300E-01  0.38899277513E+01  0.51100000000E-03 0. -1.
        -11    1    3    3    0    0 -0.59613935358E+01  0.33240997779E+01  0.37944759770E+01  0.78093469909E+01  0.51100000000E-03 0.  1.
         12    1    3    3    0    0 -0.20578696506E+02  0.18659247027E+02  0.23036781376E+02  0.36087997252E+02  0.00000000000E+00 0. -1.
</event>
<event>
 7    1  0.2647566E-010  0.4778727E+02  0.7816164E-02  0.1312668E+00
        -11   -1    0    0    0    0  0.00000000000E+00  0.00000000000E+00  0.45593999997E+02  0.45594000000E+02  0.51100000000E-03 0.  1.
         11   -1    0    0    0    0 -0.00000000000E+00 -0.00000000000E+00 -0.45593999997E+02  0.45594000000E+02  0.51100000000E-03 0. -1.
    9900012    2    1    2    0    0 -0.13329550795E+01 -0.21056668342E+02  0.37927075052E+02  0.47787273360E+02  0.20000010557E+02 0.  0.
         12    1    1    2    0    0  0.13329550795E+01  0.21056668342E+02 -0.37927075052E+02  0.43400726640E+02  0.00000000000E+00 0. -1.
         11    1    3    3    0    0  0.80261232956E+01 -0.48892202012E+01  0.80276584747E+01  0.12359871770E+02  0.51100000000E-03 0. -1.
        -11    1    3    3    0    0 -0.24181528598E+01 -0.56755602802E+01  0.72561388066E+01  0.95242321680E+01  0.51100000000E-03 0.  1.
        -12    1    3    3    0    0 -0.69409255152E+01 -0.10491887861E+02  0.22643277770E+02  0.25903169421E+02  0.00000000000E+00 0.  1.
</event>
<event>
 7    1  0.2647566E-010  0.4778727E+02  0.7816164E-02  0.1312668E+00
        -11   -1    0    0    0    0  0.00000000000E+00  0.00000000000E+00  0.45593999997E+02  0.45594000000E+02  0.51100000000E-03 0. -1.
         11   -1    0    0    0    0 -0.00000000000E+00 -0.00000000000E+00 -0.45593999997E+02  0.45594000000E+02  0.51100000000E-03 0.  1.
    9900012    2    1    2    0    0  0.13539252236E+02  0.14745266397E+01 -0.41208466231E+02  0.47787271101E+02  0.20000000256E+02 0.  0.
         12    1    1    2    0    0 -0.13539252236E+02 -0.14745266397E+01  0.41208466231E+02  0.43400728899E+02  0.00000000000E+00 0. -1.
         11    1    3    3    0    0  0.35081638372E+01  0.39302811523E+01 -0.14229562211E+02  0.15173488868E+02  0.51100000000E-03 0. -1.
        -11    1    3    3    0    0  0.92696940842E+01  0.50540434582E+01 -0.13201834610E+02  0.16904408331E+02  0.51100000000E-03 0.  1.
         12    1    3    3    0    0  0.76139431490E+00 -0.75097979708E+01 -0.13777069410E+02  0.15709373902E+02  0.00000000000E+00 0. -1.
</event>
<event>
 7    1  0.2647566E-010  0.4778727E+02  0.7816164E-02  0.1312668E+00
        -11   -1    0    0    0    0  0.00000000000E+00  0.00000000000E+00  0.45593999997E+02  0.45594000000E+02  0.51100000000E-03 0.  1.
         11   -1    0    0    0    0 -0.00000000000E+00 -0.00000000000E+00 -0.45593999997E+02  0.45594000000E+02  0.51100000000E-03 0. -1.
    9900012    2    1    2    0    0 -0.29541612482E+02 -0.25211746433E+02  0.19372251123E+02  0.47787272589E+02  0.20000007043E+02 0.  0.
         12    1    1    2    0    0  0.29541612482E+02  0.25211746433E+02 -0.19372251123E+02  0.43400727411E+02  0.00000000000E+00 0. -1.
         11    1    3    3    0    0 -0.24510425319E+01 -0.46651559910E+01  0.28961875649E+01  0.60132514155E+01  0.51100000000E-03 0. -1.
        -11    1    3    3    0    0 -0.17768380678E+02 -0.99821588332E+01  0.18518801828E+02  0.27537335896E+02  0.51100000000E-03 0.  1.
         12    1    3    3    0    0 -0.93221892728E+01 -0.10564431608E+02 -0.20427382698E+01  0.14236685277E+02  0.00000000000E+00 0. -1.
</event>
<event>
 7    1  0.2647566E-010  0.4778727E+02  0.7816164E-02  0.1312668E+00
        -11   -1    0    0    0    0  0.00000000000E+00  0.00000000000E+00  0.45593999997E+02  0.45594000000E+02  0.51100000000E-03 0.  1.
         11   -1    0    0    0    0 -0.00000000000E+00 -0.00000000000E+00 -0.45593999997E+02  0.45594000000E+02  0.51100000000E-03 0. -1.
    9900012    2    1    2    0    0  0.24279278227E+02  0.21661570723E+02  0.28721356538E+02  0.47787270527E+02  0.19999997641E+02 0.  0.
         12    1    1    2    0    0 -0.24279278227E+02 -0.21661570723E+02 -0.28721356538E+02  0.43400729473E+02  0.00000000000E+00 0. -1.
         11    1    3    3    0    0  0.34457347799E+01  0.78118308892E+01  0.69663790272E+00  0.85663933276E+01  0.51100000000E-03 0. -1.
        -11    1    3    3    0    0  0.88185649111E+00 -0.15780695307E+01  0.39966628682E+01  0.43864893317E+01  0.51100000000E-03 0.  1.
         12    1    3    3    0    0  0.19951686956E+02  0.15427809365E+02  0.24028055767E+02  0.34834387868E+02  0.00000000000E+00 0. -1.
</event>
<event>
 7    1  0.2647566E-010  0.4778727E+02  0.7816164E-02  0.1312668E+00
        -11   -1    0    0    0    0  0.00000000000E+00  0.00000000000E+00  0.45593999997E+02  0.45594000000E+02  0.51100000000E-03 0.  1.
         11   -1    0    0    0    0 -0.00000000000E+00 -0.00000000000E+00 -0.45593999997E+02  0.45594000000E+02  0.51100000000E-03 0. -1.
    9900012    2    1    2    0    0  0.41260809630E+02  0.33924584471E+01  0.13025364908E+02  0.47787270552E+02  0.19999997756E+02 0.  0.
         12    1    1    2    0    0 -0.41260809630E+02 -0.33924584471E+01 -0.13025364908E+02  0.43400729448E+02  0.00000000000E+00 0. -1.
         11    1    3    3    0    0  0.11300401461E+02  0.16256074898E+01 -0.15436297547E+01  0.11520610486E+02  0.51100000000E-03 0. -1.
        -11    1    3    3    0    0  0.27013305891E+02  0.18358380122E+01  0.67412302129E+01  0.27902207464E+02  0.51100000000E-03 0.  1.
        -12    1    3    3    0    0  0.29471022782E+01 -0.68987054877E-01  0.78277644496E+01  0.83644526019E+01  0.00000000000E+00 0.  1.
</event>
<event>
 7    1  0.2647566E-010  0.4778727E+02  0.7816164E-02  0.1312668E+00
        -11   -1    0    0    0    0  0.00000000000E+00  0.00000000000E+00  0.45593999997E+02  0.45594000000E+02  0.51100000000E-03 0.  1.
         11   -1    0    0    0    0 -0.00000000000E+00 -0.00000000000E+00 -0.45593999997E+02  0.45594000000E+02  0.51100000000E-03 0. -1.
    9900012    2    1    2    0    0  0.34066682301E+02  0.44674993985E+01  0.26516521341E+02  0.47787270767E+02  0.19999998736E+02 0.  0.
         12    1    1    2    0    0 -0.34066682301E+02 -0.44674993985E+01 -0.26516521341E+02  0.43400729233E+02  0.00000000000E+00 0. -1.
         11    1    3    3    0    0  0.79622445224E-01  0.19556416462E+01  0.50614844381E+01  0.54267392568E+01  0.51100000000E-03 0. -1.
        -11    1    3    3    0    0 -0.31449604244E+00 -0.44279555154E+00  0.34798291475E+01  0.35219578103E+01  0.51100000000E-03 0.  1.
        -12    1    3    3    0    0  0.34301555899E+02  0.29546533038E+01  0.17975207756E+02  0.38838573700E+02  0.00000000000E+00 0.  1.
</event>
<event>
 7    1  0.2647566E-010  0.4778727E+02  0.7816164E-02  0.1312668E+00
        -11   -1    0    0    0    0  0.00000000000E+00  0.00000000000E+00  0.45593999997E+02  0.45594000000E+02  0.51100000000E-03 0.  1.
         11   -1    0    0    0    0 -0.00000000000E+00 -0.00000000000E+00 -0.45593999997E+02  0.45594000000E+02  0.51100000000E-03 0. -1.
    9900012    2    1    2    0    0  0.35210965413E+02 -0.23400118696E+02 -0.98104803312E+01  0.47787272303E+02  0.20000005737E+02 0.  0.
         12    1    1    2    0    0 -0.35210965413E+02  0.23400118696E+02  0.98104803312E+01  0.43400727697E+02  0.00000000000E+00 0. -1.
         11    1    3    3    0    0  0.11167681455E+02 -0.66395620269E+01 -0.10136236612E+02  0.16478597814E+02  0.51100000000E-03 0.  1.
        -11    1    3    3    0    0  0.28233638380E+01 -0.17092170564E+01 -0.37277714544E+01  0.49788639854E+01  0.51100000000E-03 0. -1.
         12    1    3    3    0    0  0.21219920120E+02 -0.15051339613E+02  0.40535277353E+01  0.26329810504E+02  0.00000000000E+00 0. -1.
</event>
<event>
 7    1  0.2647566E-010  0.4778727E+02  0.7816164E-02  0.1312668E+00
        -11   -1    0    0    0    0  0.00000000000E+00  0.00000000000E+00  0.45593999997E+02  0.45594000000E+02  0.51100000000E-03 0.  1.
         11   -1    0    0    0    0 -0.00000000000E+00 -0.00000000000E+00 -0.45593999997E+02  0.45594000000E+02  0.51100000000E-03 0. -1.
    9900012    2    1    2    0    0 -0.10986657391E+02 -0.72444057065E+01  0.41357408781E+02  0.47787270563E+02  0.19999997803E+02 0.  0.
         12    1    1    2    0    0  0.10986657391E+02  0.72444057065E+01 -0.41357408781E+02  0.43400729437E+02  0.00000000000E+00 0. -1.
         11    1    3    3    0    0 -0.67153459668E-01 -0.18559045011E+01  0.12577681932E+02  0.12714046332E+02  0.51100000000E-03 0. -1.
        -11    1    3    3    0    0 -0.52365538352E+01  0.51745927370E+00  0.25833011701E+02  0.26363492826E+02  0.51100000000E-03 0.  1.
        -12    1    3    3    0    0 -0.56829500957E+01 -0.59059604791E+01  0.29467151473E+01  0.87097314040E+01  0.00000000000E+00 0.  1.
</event>
<event>
 7    1  0.2744531E-010  0.4778727E+02  0.7816164E-02  0.1312668E+00
        -11   -1    0    0    0    0  0.00000000000E+00  0.00000000000E+00  0.45593999997E+02  0.45594000000E+02  0.51100000000E-03 0. -1.
         11   -1    0    0    0    0 -0.00000000000E+00 -0.00000000000E+00 -0.45593999997E+02  0.45594000000E+02  0.51100000000E-03 0.  1.
    9900012    2    1    2    0    0  0.25997622469E+01  0.18671118309E+02 -0.39092892189E+02  0.47787266800E+02  0.19999980647E+02 0.  0.
         12    1    1    2    0    0 -0.25997622469E+01 -0.18671118309E+02  0.39092892189E+02  0.43400733200E+02  0.00000000000E+00 0. -1.
         11    1    3    3    0    0 -0.18372683245E+01  0.12173409712E+00  0.91552915514E+00  0.20563482151E+01  0.51100000000E-03 0. -1.
        -11    1    3    3    0    0  0.31981384604E+01 -0.30542148777E+00 -0.48704545418E+01  0.58346122066E+01  0.51100000000E-03 0.  1.
        -12    1    3    3    0    0  0.12388921110E+01  0.18854805699E+02 -0.35137966802E+02  0.39896306378E+02  0.00000000000E+00 0.  1.
</event>
<event>
 7    1  0.2647566E-010  0.4778727E+02  0.7816164E-02  0.1312668E+00
        -11   -1    0    0    0    0  0.00000000000E+00  0.00000000000E+00  0.45593999997E+02  0.45594000000E+02  0.51100000000E-03 0.  1.
         11   -1    0    0    0    0 -0.00000000000E+00 -0.00000000000E+00 -0.45593999997E+02  0.45594000000E+02  0.51100000000E-03 0. -1.
    9900012    2    1    2    0    0 -0.15294949228E+02 -0.15778390876E+02  0.37426329442E+02  0.47787271596E+02  0.20000002514E+02 0.  0.
         12    1    1    2    0    0  0.15294949228E+02  0.15778390876E+02 -0.37426329442E+02  0.43400728404E+02  0.00000000000E+00 0. -1.
         11    1    3    3    0    0  0.53148974051E-01 -0.47451227781E+01  0.62476701856E+01  0.78455336340E+01  0.51100000000E-03 0. -1.
        -11    1    3    3    0    0  0.28109562379E+00 -0.88807343871E+01  0.14318285755E+02  0.16851105756E+02  0.51100000000E-03 0.  1.
         12    1    3    3    0    0 -0.15629193826E+02 -0.21525337111E+01  0.16860373501E+02  0.23090632205E+02  0.00000000000E+00 0. -1.
</event>
<event>
 7    1  0.2647566E-010  0.4778727E+02  0.7816164E-02  0.1312668E+00
        -11   -1    0    0    0    0  0.00000000000E+00  0.00000000000E+00  0.45593999997E+02  0.45594000000E+02  0.51100000000E-03 0.  1.
         11   -1    0    0    0    0 -0.00000000000E+00 -0.00000000000E+00 -0.45593999997E+02  0.45594000000E+02  0.51100000000E-03 0. -1.
    9900012    2    1    2    0    0 -0.27509611289E+02 -0.22576389782E+02  0.24842527728E+02  0.47787271057E+02  0.20000000057E+02 0.  0.
         12    1    1    2    0    0  0.27509611289E+02  0.22576389782E+02 -0.24842527728E+02  0.43400728943E+02  0.00000000000E+00 0. -1.
         11    1    3    3    0    0  0.23684124515E+01 -0.41091930975E+01  0.32360132874E+01  0.57416572268E+01  0.51100000000E-03 0. -1.
        -11    1    3    3    0    0 -0.93399570778E+01 -0.10378890239E+02  0.92555441088E+01  0.16751753873E+02  0.51100000000E-03 0.  1.
         12    1    3    3    0    0 -0.20538066663E+02 -0.80883064455E+01  0.12350970332E+02  0.25293859957E+02  0.00000000000E+00 0. -1.
</event>
<event>
 7    1  0.2647566E-010  0.4778728E+02  0.7816164E-02  0.1312668E+00
        -11   -1    0    0    0    0  0.00000000000E+00  0.00000000000E+00  0.45593999997E+02  0.45594000000E+02  0.51100000000E-03 0.  1.
         11   -1    0    0    0    0 -0.00000000000E+00 -0.00000000000E+00 -0.45593999997E+02  0.45594000000E+02  0.51100000000E-03 0. -1.
    9900012    2    1    2    0    0  0.95320674582E+01 -0.29353302373E+02  0.30514685765E+02  0.47787277454E+02  0.20000029223E+02 0.  0.
         12    1    1    2    0    0 -0.95320674582E+01  0.29353302373E+02 -0.30514685765E+02  0.43400722546E+02  0.00000000000E+00 0. -1.
         11    1    3    3    0    0 -0.21010373084E+00 -0.19714719346E+01  0.18593345125E+01  0.27180820917E+01  0.51100000000E-03 0. -1.
        -11    1    3    3    0    0  0.52913495807E+01 -0.29062918872E+02  0.21752031204E+02  0.36685180871E+02  0.51100000000E-03 0.  1.
         12    1    3    3    0    0  0.44508216083E+01  0.16810884338E+01  0.69033200479E+01  0.83840144916E+01  0.00000000000E+00 0. -1.
</event>
<event>
 7    1  0.2647566E-010  0.4778727E+02  0.7816164E-02  0.1312668E+00
        -11   -1    0    0    0    0  0.00000000000E+00  0.00000000000E+00  0.45593999997E+02  0.45594000000E+02  0.51100000000E-03 0. -1.
         11   -1    0    0    0    0 -0.00000000000E+00 -0.00000000000E+00 -0.45593999997E+02  0.45594000000E+02  0.51100000000E-03 0.  1.
    9900012    2    1    2    0    0  0.18616083861E+01  0.42832234872E+02  0.67496429580E+01  0.47787267172E+02  0.19999982346E+02 0.  0.
         12    1    1    2    0    0 -0.18616083861E+01 -0.42832234872E+02 -0.67496429580E+01  0.43400732828E+02  0.00000000000E+00 0. -1.
         11    1    3    3    0    0 -0.19377905746E+01  0.46338395087E+01  0.47569404482E+01  0.69178019336E+01  0.51100000000E-03 0. -1.
        -11    1    3    3    0    0  0.40571605016E+01  0.11527992634E+02  0.64645388401E+01  0.13825535367E+02  0.51100000000E-03 0.  1.
        -12    1    3    3    0    0 -0.25776154102E+00  0.26670402729E+02 -0.44718363303E+01  0.27043929872E+02  0.00000000000E+00 0.  1.
</event>
<event>
 7    1  0.2647566E-010  0.4778727E+02  0.7816164E-02  0.1312668E+00
        -11   -1    0    0    0    0  0.00000000000E+00  0.00000000000E+00  0.45593999997E+02  0.45594000000E+02  0.51100000000E-03 0. -1.
         11   -1    0    0    0    0 -0.00000000000E+00 -0.00000000000E+00 -0.45593999997E+02  0.45594000000E+02  0.51100000000E-03 0.  1.
    9900012    2    1    2    0    0 -0.33732770948E+02 -0.23377312322E+02  0.14114696223E+02  0.47787271703E+02  0.20000003004E+02 0.  0.
         12    1    1    2    0    0  0.33732770948E+02  0.23377312322E+02 -0.14114696223E+02  0.43400728297E+02  0.00000000000E+00 0. -1.
         11    1    3    3    0    0 -0.92969664308E+00 -0.18924803594E+01  0.29258344949E+01  0.36064283594E+01  0.51100000000E-03 0. -1.
        -11    1    3    3    0    0 -0.28062593362E+02 -0.21185338575E+02  0.14864980260E+02  0.38174538048E+02  0.51100000000E-03 0.  1.
        -12    1    3    3    0    0 -0.47404809423E+01 -0.29949338776E+00 -0.36761185318E+01  0.60063052964E+01  0.00000000000E+00 0.  1.
</event>
<event>
 7    1  0.2647566E-010  0.4778729E+02  0.7816164E-02  0.1312668E+00
        -11   -1    0    0    0    0  0.00000000000E+00  0.00000000000E+00  0.45593999997E+02  0.45594000000E+02  0.51100000000E-03 0.  1.
         11   -1    0    0    0    0 -0.00000000000E+00 -0.00000000000E+00 -0.45593999997E+02  0.45594000000E+02  0.51100000000E-03 0. -1.
    9900012    2    1    2    0    0 -0.58094758492E+01  0.14661667674E+02  0.40433989580E+02  0.47787285467E+02  0.20000065757E+02 0.  0.
         12    1    1    2    0    0  0.58094758492E+01 -0.14661667674E+02 -0.40433989580E+02  0.43400714533E+02  0.00000000000E+00 0. -1.
         11    1    3    3    0    0 -0.36040256312E+01  0.82536947316E+01  0.78147415020E+01  0.11924037172E+02  0.51100000000E-03 0. -1.
        -11    1    3    3    0    0  0.22265136926E+01  0.92554631263E+01  0.18770906878E+02  0.21046802755E+02  0.51100000000E-03 0.  1.
        -12    1    3    3    0    0 -0.44319639106E+01 -0.28474901839E+01  0.13848341200E+02  0.14816445540E+02  0.00000000000E+00 0.  1.
</event>
<event>
 7    1  0.2647566E-010  0.4778727E+02  0.7816164E-02  0.1312668E+00
        -11   -1    0    0    0    0  0.00000000000E+00  0.00000000000E+00  0.45593999997E+02  0.45594000000E+02  0.51100000000E-03 0.  1.
         11   -1    0    0    0    0 -0.00000000000E+00 -0.00000000000E+00 -0.45593999997E+02  0.45594000000E+02  0.51100000000E-03 0. -1.
    9900012    2    1    2    0    0 -0.40618898100E+01 -0.67145204259E+01  0.42685355760E+02  0.47787270401E+02  0.19999997066E+02 0.  0.
         12    1    1    2    0    0  0.40618898100E+01  0.67145204259E+01 -0.42685355760E+02  0.43400729599E+02  0.00000000000E+00 0. -1.
         11    1    3    3    0    0  0.22882305603E+01 -0.14774180493E+01  0.31120465681E+02  0.31239432576E+02  0.51100000000E-03 0. -1.
        -11    1    3    3    0    0  0.16569055689E+01 -0.16718855553E+01  0.52239461486E+01  0.57297601171E+01  0.51100000000E-03 0.  1.
        -12    1    3    3    0    0 -0.80070259392E+01 -0.35652168212E+01  0.63409439301E+01  0.10818077708E+02  0.00000000000E+00 0.  1.
</event>
<event>
 7    1  0.2647566E-010  0.4778727E+02  0.7816164E-02  0.1312668E+00
        -11   -1    0    0    0    0  0.00000000000E+00  0.00000000000E+00  0.45593999997E+02  0.45594000000E+02  0.51100000000E-03 0.  1.
         11   -1    0    0    0    0 -0.00000000000E+00 -0.00000000000E+00 -0.45593999997E+02  0.45594000000E+02  0.51100000000E-03 0. -1.
    9900012    2    1    2    0    0 -0.18937118902E+02 -0.17246143534E+01  0.39013264355E+02  0.47787267718E+02  0.19999984835E+02 0.  0.
         12    1    1    2    0    0  0.18937118902E+02  0.17246143534E+01 -0.39013264355E+02  0.43400732282E+02  0.00000000000E+00 0. -1.
         11    1    3    3    0    0 -0.12576508894E+01 -0.29032382570E+01  0.28945124265E-01  0.31640664054E+01  0.51100000000E-03 0. -1.
        -11    1    3    3    0    0 -0.10236938669E+02 -0.41190773468E+01  0.12847090577E+02  0.16935449449E+02  0.51100000000E-03 0.  1.
        -12    1    3    3    0    0 -0.74425293434E+01  0.52977012504E+01  0.26137228654E+02  0.27687751864E+02  0.00000000000E+00 0.  1.
</event>
<event>
 7    1  0.2647566E-010  0.4778727E+02  0.7816164E-02  0.1312668E+00
        -11   -1    0    0    0    0  0.00000000000E+00  0.00000000000E+00  0.45593999997E+02  0.45594000000E+02  0.51100000000E-03 0.  1.
         11   -1    0    0    0    0 -0.00000000000E+00 -0.00000000000E+00 -0.45593999997E+02  0.45594000000E+02  0.51100000000E-03 0. -1.
    9900012    2    1    2    0    0 -0.22917802350E+02  0.85149457073E+01  0.35859349862E+02  0.47787274920E+02  0.20000017669E+02 0.  0.
         12    1    1    2    0    0  0.22917802350E+02 -0.85149457073E+01 -0.35859349862E+02  0.43400725080E+02  0.00000000000E+00 0. -1.
         11    1    3    3    0    0 -0.89287728217E+01  0.70077132054E+01  0.11787319365E+02  0.16363738159E+02  0.51100000000E-03 0. -1.
        -11    1    3    3    0    0  0.21919536180E+01  0.26527295498E+01  0.74060418840E+01  0.81664613742E+01  0.51100000000E-03 0.  1.
        -12    1    3    3    0    0 -0.16180983146E+02 -0.11454970479E+01  0.16665988613E+02  0.23257075386E+02  0.00000000000E+00 0.  1.
</event>
<event>
 7    1  0.2647566E-010  0.4778727E+02  0.7816164E-02  0.1312668E+00
        -11   -1    0    0    0    0  0.00000000000E+00  0.00000000000E+00  0.45593999997E+02  0.45594000000E+02  0.51100000000E-03 0.  1.
         11   -1    0    0    0    0 -0.00000000000E+00 -0.00000000000E+00 -0.45593999997E+02  0.45594000000E+02  0.51100000000E-03 0. -1.
    9900012    2    1    2    0    0  0.67747544911E+01 -0.40842177703E+02 -0.13024681829E+02  0.47787272879E+02  0.20000008363E+02 0.  0.
         12    1    1    2    0    0 -0.67747544911E+01  0.40842177703E+02  0.13024681829E+02  0.43400727121E+02  0.00000000000E+00 0. -1.
         11    1    3    3    0    0  0.10568715425E+01 -0.72273929871E+01 -0.48429848441E+01  0.87639425665E+01  0.51100000000E-03 0. -1.
        -11    1    3    3    0    0  0.10897657094E+02 -0.16614287920E+02 -0.75012477317E+01  0.21238225233E+02  0.51100000000E-03 0.  1.
         12    1    3    3    0    0 -0.51797741457E+01 -0.17000496796E+02 -0.68044925273E+00  0.17785105080E+02  0.00000000000E+00 0. -1.
</event>
<event>
 7    1  0.2647566E-010  0.4778728E+02  0.7816164E-02  0.1312668E+00
        -11   -1    0    0    0    0  0.00000000000E+00  0.00000000000E+00  0.45593999997E+02  0.45594000000E+02  0.51100000000E-03 0.  1.
         11   -1    0    0    0    0 -0.00000000000E+00 -0.00000000000E+00 -0.45593999997E+02  0.45594000000E+02  0.51100000000E-03 0. -1.
    9900012    2    1    2    0    0  0.30922943416E+02  0.27247952154E+02  0.13599366994E+02  0.47787284468E+02  0.20000061202E+02 0.  0.
         12    1    1    2    0    0 -0.30922943416E+02 -0.27247952154E+02 -0.13599366994E+02  0.43400715532E+02  0.00000000000E+00 0. -1.
         11    1    3    3    0    0  0.23230780515E+01  0.68621798488E+01 -0.33700653780E+01  0.79902155681E+01  0.51100000000E-03 0. -1.
        -11    1    3    3    0    0  0.64862084452E+01  0.42231676377E+01  0.32682652400E+00  0.77467968044E+01  0.51100000000E-03 0.  1.
        -12    1    3    3    0    0  0.22113656919E+02  0.16162604667E+02  0.16642605848E+02  0.32050272095E+02  0.00000000000E+00 0.  1.
</event>
<event>
 7    1  0.2647566E-010  0.4778727E+02  0.7816164E-02  0.1312668E+00
        -11   -1    0    0    0    0  0.00000000000E+00  0.00000000000E+00  0.45593999997E+02  0.45594000000E+02  0.51100000000E-03 0.  1.
         11   -1    0    0    0    0 -0.00000000000E+00 -0.00000000000E+00 -0.45593999997E+02  0.45594000000E+02  0.51100000000E-03 0. -1.
    9900012    2    1    2    0    0 -0.65821775353E+01  0.12730432804E+02  0.40966259352E+02  0.47787269756E+02  0.19999994124E+02 0.  0.
         12    1    1    2    0    0  0.65821775353E+01 -0.12730432804E+02 -0.40966259352E+02  0.43400730244E+02  0.00000000000E+00 0. -1.
         11    1    3    3    0    0 -0.65036655239E+01  0.12630259287E+02  0.23698980596E+02  0.27630830542E+02  0.51100000000E-03 0. -1.
        -11    1    3    3    0    0 -0.43257372941E+01  0.17696354501E+01  0.13342211509E+02  0.14137122089E+02  0.51100000000E-03 0.  1.
        -12    1    3    3    0    0  0.42472252828E+01 -0.16694619329E+01  0.39250672471E+01  0.60193171243E+01  0.00000000000E+00 0.  1.
</event>
<event>
 7    1  0.2647566E-010  0.4778727E+02  0.7816164E-02  0.1312668E+00
        -11   -1    0    0    0    0  0.00000000000E+00  0.00000000000E+00  0.45593999997E+02  0.45594000000E+02  0.51100000000E-03 0. -1.
         11   -1    0    0    0    0 -0.00000000000E+00 -0.00000000000E+00 -0.45593999997E+02  0.45594000000E+02  0.51100000000E-03 0.  1.
    9900012    2    1    2    0    0 -0.17976661423E+02 -0.33461761143E+02 -0.20994598022E+02  0.47787274651E+02  0.20000016444E+02 0.  0.
         12    1    1    2    0    0  0.17976661423E+02  0.33461761143E+02  0.20994598022E+02  0.43400725349E+02  0.00000000000E+00 0. -1.
         11    1    3    3    0    0  0.23541390452E+01 -0.34671742783E+01 -0.76230226842E+01  0.86990656524E+01  0.51100000000E-03 0. -1.
        -11    1    3    3    0    0 -0.17722099385E+01 -0.49866275110E+01 -0.25967802120E+00  0.52985483800E+01  0.51100000000E-03 0.  1.
        -12    1    3    3    0    0 -0.18558590530E+02 -0.25007959354E+02 -0.13111897317E+02  0.33789660619E+02  0.00000000000E+00 0.  1.
</event>
<event>
 7    1  0.2647566E-010  0.4778726E+02  0.7816164E-02  0.1312668E+00
        -11   -1    0    0    0    0  0.00000000000E+00  0.00000000000E+00  0.45593999997E+02  0.45594000000E+02  0.51100000000E-03 0.  1.
         11   -1    0    0    0    0 -0.00000000000E+00 -0.00000000000E+00 -0.45593999997E+02  0.45594000000E+02  0.51100000000E-03 0. -1.
    9900012    2    1    2    0    0  0.38847034047E+02  0.14538307808E+02  0.12773787767E+02  0.47787261503E+02  0.19999956497E+02 0.  0.
         12    1    1    2    0    0 -0.38847034047E+02 -0.14538307808E+02 -0.12773787767E+02  0.43400738497E+02  0.00000000000E+00 0. -1.
         11    1    3    3    0    0  0.37009137643E+01  0.15622045384E+01  0.91708649233E+00  0.41204724980E+01  0.51100000000E-03 0. -1.
        -11    1    3    3    0    0  0.72629510336E+01 -0.22209755561E+00 -0.47016193193E+01  0.86547680227E+01  0.51100000000E-03 0.  1.
        -12    1    3    3    0    0  0.27883169249E+02  0.13198200825E+02  0.16558320594E+02  0.35012020983E+02  0.00000000000E+00 0.  1.
</event>
<event>
 7    1  0.2647566E-010  0.4778727E+02  0.7816164E-02  0.1312668E+00
        -11   -1    0    0    0    0  0.00000000000E+00  0.00000000000E+00  0.45593999997E+02  0.45594000000E+02  0.51100000000E-03 0.  1.
         11   -1    0    0    0    0 -0.00000000000E+00 -0.00000000000E+00 -0.45593999997E+02  0.45594000000E+02  0.51100000000E-03 0. -1.
    9900012    2    1    2    0    0  0.35864870319E+02 -0.72323468303E+01  0.23345832710E+02  0.47787266497E+02  0.19999979265E+02 0.  0.
         12    1    1    2    0    0 -0.35864870319E+02  0.72323468303E+01 -0.23345832710E+02  0.43400733503E+02  0.00000000000E+00 0. -1.
         11    1    3    3    0    0  0.91657154460E+01 -0.72406926801E+01  0.10664978773E+02  0.15817071240E+02  0.51100000000E-03 0. -1.
        -11    1    3    3    0    0  0.44629071310E+01 -0.13062732378E+01  0.79319185422E+01  0.91945212955E+01  0.51100000000E-03 0.  1.
        -12    1    3    3    0    0  0.22236247742E+02  0.13146190876E+01  0.47489353949E+01  0.22775673961E+02  0.00000000000E+00 0.  1.
</event>
<event>
 7    1  0.2647566E-010  0.4778727E+02  0.7816164E-02  0.1312668E+00
        -11   -1    0    0    0    0  0.00000000000E+00  0.00000000000E+00  0.45593999997E+02  0.45594000000E+02  0.51100000000E-03 0.  1.
         11   -1    0    0    0    0 -0.00000000000E+00 -0.00000000000E+00 -0.45593999997E+02  0.45594000000E+02  0.51100000000E-03 0. -1.
    9900012    2    1    2    0    0 -0.91378255521E+01  0.12342561255E+02  0.40592913467E+02  0.47787270767E+02  0.19999998737E+02 0.  0.
         12    1    1    2    0    0  0.91378255521E+01 -0.12342561255E+02 -0.40592913467E+02  0.43400729233E+02  0.00000000000E+00 0. -1.
         11    1    3    3    0    0 -0.63001548350E+01  0.62021221073E+01  0.21781135374E+02  0.23506937870E+02  0.51100000000E-03 0.  1.
        -11    1    3    3    0    0 -0.40000250632E+01  0.10290232214E+02  0.13660421156E+02  0.17564059495E+02  0.51100000000E-03 0. -1.
        -12    1    3    3    0    0  0.11623543461E+01 -0.41497930665E+01  0.51513569378E+01  0.67162734028E+01  0.00000000000E+00 0.  1.
</event>
<event>
 7    1  0.2647566E-010  0.4778727E+02  0.7816164E-02  0.1312668E+00
        -11   -1    0    0    0    0  0.00000000000E+00  0.00000000000E+00  0.45593999997E+02  0.45594000000E+02  0.51100000000E-03 0.  1.
         11   -1    0    0    0    0 -0.00000000000E+00 -0.00000000000E+00 -0.45593999997E+02  0.45594000000E+02  0.51100000000E-03 0. -1.
    9900012    2    1    2    0    0 -0.26157407327E+02 -0.11302082728E+02  0.32736463112E+02  0.47787273633E+02  0.20000011802E+02 0.  0.
         12    1    1    2    0    0  0.26157407327E+02  0.11302082728E+02 -0.32736463112E+02  0.43400726367E+02  0.00000000000E+00 0. -1.
         11    1    3    3    0    0 -0.18230668113E+02 -0.10372232510E+02  0.16179032823E+02  0.26489650252E+02  0.51100000000E-03 0. -1.
        -11    1    3    3    0    0 -0.60886611344E+01 -0.46243935159E+01  0.15092765600E+02  0.16918876544E+02  0.51100000000E-03 0.  1.
         12    1    3    3    0    0 -0.18380780795E+01  0.36945432982E+01  0.14646646892E+01  0.43787468368E+01  0.00000000000E+00 0. -1.
</event>
<event>
 7    1  0.2647566E-010  0.4778727E+02  0.7816164E-02  0.1312668E+00
        -11   -1    0    0    0    0  0.00000000000E+00  0.00000000000E+00  0.45593999997E+02  0.45594000000E+02  0.51100000000E-03 0. -1.
         11   -1    0    0    0    0 -0.00000000000E+00 -0.00000000000E+00 -0.45593999997E+02  0.45594000000E+02  0.51100000000E-03 0.  1.
    9900012    2    1    2    0    0 -0.32300706054E+02  0.12150055546E+02  0.26318505782E+02  0.47787271804E+02  0.20000003462E+02 0.  0.
         12    1    1    2    0    0  0.32300706054E+02 -0.12150055546E+02 -0.26318505782E+02  0.43400728196E+02  0.00000000000E+00 0. -1.
         11    1    3    3    0    0 -0.14983344309E+02  0.67638928191E+01  0.89437446662E+01  0.18714738087E+02  0.51100000000E-03 0. -1.
        -11    1    3    3    0    0 -0.19023622994E+02  0.26583107385E+01  0.11537146669E+02  0.22406931993E+02  0.51100000000E-03 0.  1.
         12    1    3    3    0    0  0.17062612486E+01  0.27278519885E+01  0.58376144465E+01  0.66656017242E+01  0.00000000000E+00 0. -1.
</event>
<event>
 7    1  0.2647566E-010  0.4778728E+02  0.7816164E-02  0.1312668E+00
        -11   -1    0    0    0    0  0.00000000000E+00  0.00000000000E+00  0.45593999997E+02  0.45594000000E+02  0.51100000000E-03 0.  1.
         11   -1    0    0    0    0 -0.00000000000E+00 -0.00000000000E+00 -0.45593999997E+02  0.45594000000E+02  0.51100000000E-03 0. -1.
    9900012    2    1    2    0    0 -0.41425557017E+02 -0.96472197515E+01  0.86300186103E+01  0.47787275993E+02  0.20000022563E+02 0.  0.
         12    1    1    2    0    0  0.41425557017E+02  0.96472197515E+01 -0.86300186103E+01  0.43400724007E+02  0.00000000000E+00 0. -1.
         11    1    3    3    0    0 -0.15296979636E+02 -0.10672962650E+02 -0.31850572312E+01  0.18922322995E+02  0.51100000000E-03 0. -1.
        -11    1    3    3    0    0 -0.81618524113E+01 -0.10479269927E+01  0.31608471249E+01  0.88150405884E+01  0.51100000000E-03 0.  1.
         12    1    3    3    0    0 -0.17966724969E+02  0.20736698909E+01  0.86542287165E+01  0.20049912409E+02  0.00000000000E+00 0. -1.
</event>
<event>
 7    1  0.2647566E-010  0.4778727E+02  0.7816164E-02  0.1312668E+00
        -11   -1    0    0    0    0  0.00000000000E+00  0.00000000000E+00  0.45593999997E+02  0.45594000000E+02  0.51100000000E-03 0. -1.
         11   -1    0    0    0    0 -0.00000000000E+00 -0.00000000000E+00 -0.45593999997E+02  0.45594000000E+02  0.51100000000E-03 0.  1.
    9900012    2    1    2    0    0 -0.40069366481E+02 -0.32647944251E+01 -0.16352690230E+02  0.47787268548E+02  0.19999988617E+02 0.  0.
         12    1    1    2    0    0  0.40069366481E+02  0.32647944251E+01  0.16352690230E+02  0.43400731452E+02  0.00000000000E+00 0. -1.
         11    1    3    3    0    0  0.15611197505E+01 -0.26320210305E+00 -0.68850603388E+00  0.17263867013E+01  0.51100000000E-03 0. -1.
        -11    1    3    3    0    0 -0.15263054806E+02 -0.67097333389E+01 -0.54257792030E+01  0.17533409358E+02  0.51100000000E-03 0.  1.
         12    1    3    3    0    0 -0.26367431425E+02  0.37081410168E+01 -0.10238404993E+02  0.28527472488E+02  0.00000000000E+00 0. -1.
</event>
<event>
 7    1  0.2647566E-010  0.4778727E+02  0.7816164E-02  0.1312668E+00
        -11   -1    0    0    0    0  0.00000000000E+00  0.00000000000E+00  0.45593999997E+02  0.45594000000E+02  0.51100000000E-03 0.  1.
         11   -1    0    0    0    0 -0.00000000000E+00 -0.00000000000E+00 -0.45593999997E+02  0.45594000000E+02  0.51100000000E-03 0. -1.
    9900012    2    1    2    0    0  0.79934390470E+01  0.42657950835E+02 -0.16596643394E+00  0.47787269798E+02  0.19999994317E+02 0.  0.
         12    1    1    2    0    0 -0.79934390470E+01 -0.42657950835E+02  0.16596643394E+00  0.43400730202E+02  0.00000000000E+00 0. -1.
         11    1    3    3    0    0  0.10309392541E+02  0.12583219347E+02 -0.34309839191E+01  0.16625060440E+02  0.51100000000E-03 0. -1.
        -11    1    3    3    0    0  0.11539732391E+01  0.16922266171E+02 -0.75427458302E+00  0.16978329629E+02  0.51100000000E-03 0.  1.
         12    1    3    3    0    0 -0.34699267332E+01  0.13152465317E+02  0.40192920682E+01  0.14183879729E+02  0.00000000000E+00 0. -1.
</event>
<event>
 7    1  0.2647566E-010  0.4778728E+02  0.7816164E-02  0.1312668E+00
        -11   -1    0    0    0    0  0.00000000000E+00  0.00000000000E+00  0.45593999997E+02  0.45594000000E+02  0.51100000000E-03 0.  1.
         11   -1    0    0    0    0 -0.00000000000E+00 -0.00000000000E+00 -0.45593999997E+02  0.45594000000E+02  0.51100000000E-03 0. -1.
    9900012    2    1    2    0    0  0.20543361700E+02  0.13707198737E+01  0.38206207853E+02  0.47787275336E+02  0.20000019565E+02 0.  0.
         12    1    1    2    0    0 -0.20543361700E+02 -0.13707198737E+01 -0.38206207853E+02  0.43400724664E+02  0.00000000000E+00 0. -1.
         11    1    3    3    0    0  0.65012393686E+01  0.25235991188E+01  0.17279781485E+02  0.18633988147E+02  0.51100000000E-03 0.  1.
        -11    1    3    3    0    0 -0.28109734250E+01  0.76770787458E+00  0.55053623106E+01  0.62289615032E+01  0.51100000000E-03 0. -1.
        -12    1    3    3    0    0  0.16853095757E+02 -0.19205871197E+01  0.15421064057E+02  0.22924325685E+02  0.00000000000E+00 0.  1.
</event>
<event>
 7    1  0.2647566E-010  0.4778727E+02  0.7816164E-02  0.1312668E+00
        -11   -1    0    0    0    0  0.00000000000E+00  0.00000000000E+00  0.45593999997E+02  0.45594000000E+02  0.51100000000E-03 0. -1.
         11   -1    0    0    0    0 -0.00000000000E+00 -0.00000000000E+00 -0.45593999997E+02  0.45594000000E+02  0.51100000000E-03 0.  1.
    9900012    2    1    2    0    0  0.10877245799E+02  0.39127248697E+02  0.15309060529E+02  0.47787269579E+02  0.19999993320E+02 0.  0.
         12    1    1    2    0    0 -0.10877245799E+02 -0.39127248697E+02 -0.15309060529E+02  0.43400730421E+02  0.00000000000E+00 0. -1.
         11    1    3    3    0    0  0.15427348486E+01  0.25659257598E+01  0.25623660964E+01  0.39407773460E+01  0.51100000000E-03 0. -1.
        -11    1    3    3    0    0 -0.46785381889E+01  0.77341440936E+01 -0.74569716533E+00  0.90698273946E+01  0.51100000000E-03 0.  1.
        -12    1    3    3    0    0  0.14013049140E+02  0.28827178844E+02  0.13492391598E+02  0.34776664839E+02  0.00000000000E+00 0.  1.
</event>
<event>
 7    1  0.2647566E-010  0.4778727E+02  0.7816164E-02  0.1312668E+00
        -11   -1    0    0    0    0  0.00000000000E+00  0.00000000000E+00  0.45593999997E+02  0.45594000000E+02  0.51100000000E-03 0.  1.
         11   -1    0    0    0    0 -0.00000000000E+00 -0.00000000000E+00 -0.45593999997E+02  0.45594000000E+02  0.51100000000E-03 0. -1.
    9900012    2    1    2    0    0 -0.26664448196E+02  0.33201900044E+02  0.83823765724E+01  0.47787271883E+02  0.20000003822E+02 0.  0.
         12    1    1    2    0    0  0.26664448196E+02 -0.33201900044E+02 -0.83823765724E+01  0.43400728117E+02  0.00000000000E+00 0. -1.
         11    1    3    3    0    0 -0.26265200374E+01  0.36254876683E+01  0.65481544176E+00  0.45245499073E+01  0.51100000000E-03 0. -1.
        -11    1    3    3    0    0 -0.16434049717E+02  0.30462783597E+02  0.82730222835E+01  0.35587948417E+02  0.51100000000E-03 0.  1.
         12    1    3    3    0    0 -0.76038784416E+01 -0.88637122192E+00 -0.54546115277E+00  0.76747735580E+01  0.00000000000E+00 0. -1.
</event>
<event>
 7    1  0.2647566E-010  0.4778727E+02  0.7816164E-02  0.1312668E+00
        -11   -1    0    0    0    0  0.00000000000E+00  0.00000000000E+00  0.45593999997E+02  0.45594000000E+02  0.51100000000E-03 0. -1.
         11   -1    0    0    0    0 -0.00000000000E+00 -0.00000000000E+00 -0.45593999997E+02  0.45594000000E+02  0.51100000000E-03 0.  1.
    9900012    2    1    2    0    0 -0.26407277776E+02  0.11439036370E-01 -0.34442398980E+02  0.47787270768E+02  0.19999998738E+02 0.  0.
         12    1    1    2    0    0  0.26407277776E+02 -0.11439036370E-01  0.34442398980E+02  0.43400729232E+02  0.00000000000E+00 0. -1.
         11    1    3    3    0    0 -0.66119247462E+00 -0.94634276030E+00 -0.68776546770E+00  0.13437863328E+01  0.51100000000E-03 0. -1.
        -11    1    3    3    0    0 -0.11100192821E+02  0.13322687644E+01 -0.18447284796E+01  0.11331030146E+02  0.51100000000E-03 0.  1.
        -12    1    3    3    0    0 -0.14645892480E+02 -0.37448696769E+00 -0.31909905033E+02  0.35112454289E+02  0.00000000000E+00 0.  1.
</event>
<event>
 7    1  0.2647566E-010  0.4778726E+02  0.7816164E-02  0.1312668E+00
        -11   -1    0    0    0    0  0.00000000000E+00  0.00000000000E+00  0.45593999997E+02  0.45594000000E+02  0.51100000000E-03 0.  1.
         11   -1    0    0    0    0 -0.00000000000E+00 -0.00000000000E+00 -0.45593999997E+02  0.45594000000E+02  0.51100000000E-03 0. -1.
    9900012    2    1    2    0    0  0.31006336392E+02 -0.29057760936E+02 -0.88248332674E+01  0.47787262111E+02  0.19999959271E+02 0.  0.
         12    1    1    2    0    0 -0.31006336392E+02  0.29057760936E+02  0.88248332674E+01  0.43400737889E+02  0.00000000000E+00 0. -1.
         11    1    3    3    0    0  0.26716886229E-01 -0.97595671262E+00 -0.21328855547E+01  0.23457208588E+01  0.51100000000E-03 0. -1.
        -11    1    3    3    0    0  0.11982615809E+02 -0.14754653469E+02  0.47155645013E+01  0.19583652096E+02  0.51100000000E-03 0.  1.
        -12    1    3    3    0    0  0.18997003697E+02 -0.13327150755E+02 -0.11407512214E+02  0.25857889156E+02  0.00000000000E+00 0.  1.
</event>
<event>
 7    1  0.2647566E-010  0.4778727E+02  0.7816164E-02  0.1312668E+00
        -11   -1    0    0    0    0  0.00000000000E+00  0.00000000000E+00  0.45593999997E+02  0.45594000000E+02  0.51100000000E-03 0. -1.
         11   -1    0    0    0    0 -0.00000000000E+00 -0.00000000000E+00 -0.45593999997E+02  0.45594000000E+02  0.51100000000E-03 0.  1.
    9900012    2    1    2    0    0 -0.35323621316E+02 -0.21689842229E+02 -0.12861396826E+02  0.47787274118E+02  0.20000014012E+02 0.  0.
         12    1    1    2    0    0  0.35323621316E+02  0.21689842229E+02  0.12861396826E+02  0.43400725882E+02  0.00000000000E+00 0. -1.
         11    1    3    3    0    0 -0.24252511109E+02 -0.74370315533E+01 -0.13993042512E+02  0.28970657094E+02  0.51100000000E-03 0.  1.
        -11    1    3    3    0    0 -0.20706325163E+01 -0.13321532502E+01  0.18094735998E+01  0.30555435309E+01  0.51100000000E-03 0. -1.
        -12    1    3    3    0    0 -0.90004776906E+01 -0.12920657426E+02 -0.67782791308E+00  0.15761073493E+02  0.00000000000E+00 0.  1.
</event>
<event>
 7    1  0.2647566E-010  0.4778727E+02  0.7816164E-02  0.1312668E+00
        -11   -1    0    0    0    0  0.00000000000E+00  0.00000000000E+00  0.45593999997E+02  0.45594000000E+02  0.51100000000E-03 0. -1.
         11   -1    0    0    0    0 -0.00000000000E+00 -0.00000000000E+00 -0.45593999997E+02  0.45594000000E+02  0.51100000000E-03 0.  1.
    9900012    2    1    2    0    0 -0.15982748930E+02 -0.31003112274E+02  0.25825994870E+02  0.47787271376E+02  0.20000001513E+02 0.  0.
         12    1    1    2    0    0  0.15982748930E+02  0.31003112274E+02 -0.25825994870E+02  0.43400728624E+02  0.00000000000E+00 0. -1.
         11    1    3    3    0    0 -0.78738488696E+01 -0.27624134736E+02  0.24809324802E+02  0.37955143437E+02  0.51100000000E-03 0. -1.
        -11    1    3    3    0    0 -0.60148724911E+00 -0.15516958880E+01 -0.87092144526E+00  0.18783108008E+01  0.51100000000E-03 0.  1.
         12    1    3    3    0    0 -0.75074128117E+01 -0.18272816499E+01  0.18875915135E+01  0.79538171387E+01  0.00000000000E+00 0. -1.
</event>
<event>
 7    1  0.2647566E-010  0.4778728E+02  0.7816164E-02  0.1312668E+00
        -11   -1    0    0    0    0  0.00000000000E+00  0.00000000000E+00  0.45593999997E+02  0.45594000000E+02  0.51100000000E-03 0. -1.
         11   -1    0    0    0    0 -0.00000000000E+00 -0.00000000000E+00 -0.45593999997E+02  0.45594000000E+02  0.51100000000E-03 0.  1.
    9900012    2    1    2    0    0 -0.26794941327E+02 -0.33862800164E+02 -0.43548173712E+01  0.47787279384E+02  0.20000038023E+02 0.  0.
         12    1    1    2    0    0  0.26794941327E+02  0.33862800164E+02  0.43548173712E+01  0.43400720616E+02  0.00000000000E+00 0. -1.
         11    1    3    3    0    0 -0.13593880435E+02 -0.53822736016E+01 -0.63997419605E+01  0.15959923302E+02  0.51100000000E-03 0. -1.
        -11    1    3    3    0    0 -0.36127247571E+01 -0.94685650696E+01 -0.14888049480E+01  0.10243146249E+02  0.51100000000E-03 0.  1.
         12    1    3    3    0    0 -0.95883361352E+01 -0.19011961493E+02  0.35337295374E+01  0.21584209832E+02  0.00000000000E+00 0. -1.
</event>
<event>
 7    1  0.2647566E-010  0.4778728E+02  0.7816164E-02  0.1312668E+00
        -11   -1    0    0    0    0  0.00000000000E+00  0.00000000000E+00  0.45593999997E+02  0.45594000000E+02  0.51100000000E-03 0.  1.
         11   -1    0    0    0    0 -0.00000000000E+00 -0.00000000000E+00 -0.45593999997E+02  0.45594000000E+02  0.51100000000E-03 0. -1.
    9900012    2    1    2    0    0 -0.42737740338E-01 -0.53057510314E+01  0.43075165467E+02  0.47787277650E+02  0.20000030115E+02 0.  0.
         12    1    1    2    0    0  0.42737740338E-01  0.53057510314E+01 -0.43075165467E+02  0.43400722350E+02  0.00000000000E+00 0. -1.
         11    1    3    3    0    0 -0.21266764363E+01 -0.30094765162E+01  0.89638003003E+00  0.37925188181E+01  0.51100000000E-03 0.  1.
        -11    1    3    3    0    0 -0.19355434443E+00 -0.37749898164E+00 -0.80393319334E+00  0.90899813303E+00  0.51100000000E-03 0. -1.
        -12    1    3    3    0    0  0.22774930404E+01 -0.19187755335E+01  0.42982718630E+02  0.43085760698E+02  0.00000000000E+00 0.  1.
</event>
<event>
 7    1  0.2647566E-010  0.4778727E+02  0.7816164E-02  0.1312668E+00
        -11   -1    0    0    0    0  0.00000000000E+00  0.00000000000E+00  0.45593999997E+02  0.45594000000E+02  0.51100000000E-03 0.  1.
         11   -1    0    0    0    0 -0.00000000000E+00 -0.00000000000E+00 -0.45593999997E+02  0.45594000000E+02  0.51100000000E-03 0. -1.
    9900012    2    1    2    0    0  0.14803913820E+02 -0.19287374837E+02  0.35950866742E+02  0.47787268302E+02  0.19999987494E+02 0.  0.
         12    1    1    2    0    0 -0.14803913820E+02  0.19287374837E+02 -0.35950866742E+02  0.43400731698E+02  0.00000000000E+00 0. -1.
         11    1    3    3    0    0 -0.13178423739E+01 -0.50969763567E+00 -0.91970975243E+00  0.16859319358E+01  0.51100000000E-03 0. -1.
        -11    1    3    3    0    0  0.10717507591E+02 -0.10288245508E+02  0.11436002851E+02  0.18748203275E+02  0.51100000000E-03 0.  1.
        -12    1    3    3    0    0  0.54042486027E+01 -0.84894316936E+01  0.25434573644E+02  0.27353133091E+02  0.00000000000E+00 0.  1.
</event>
<event>
 7    1  0.2647566E-010  0.4778728E+02  0.7816164E-02  0.1312668E+00
        -11   -1    0    0    0    0  0.00000000000E+00  0.00000000000E+00  0.45593999997E+02  0.45594000000E+02  0.51100000000E-03 0.  1.
         11   -1    0    0    0    0 -0.00000000000E+00 -0.00000000000E+00 -0.45593999997E+02  0.45594000000E+02  0.51100000000E-03 0. -1.
    9900012    2    1    2    0    0  0.12173298704E+02 -0.37410504740E+01  0.41490214842E+02  0.47787278950E+02  0.20000036045E+02 0.  0.
         12    1    1    2    0    0 -0.12173298704E+02  0.37410504740E+01 -0.41490214842E+02  0.43400721050E+02  0.00000000000E+00 0. -1.
         11    1    3    3    0    0  0.50923438809E+01  0.39217262565E+01  0.75163163512E+01  0.98897378521E+01  0.51100000000E-03 0. -1.
        -11    1    3    3    0    0 -0.33226666095E+01  0.75770835117E+00  0.70142535834E+01  0.77983324459E+01  0.51100000000E-03 0.  1.
        -12    1    3    3    0    0  0.10403621432E+02 -0.84204850817E+01  0.26959644908E+02  0.30099208652E+02  0.00000000000E+00 0.  1.
</event>
<event>
 7    1  0.2647566E-010  0.4778727E+02  0.7816164E-02  0.1312668E+00
        -11   -1    0    0    0    0  0.00000000000E+00  0.00000000000E+00  0.45593999997E+02  0.45594000000E+02  0.51100000000E-03 0.  1.
         11   -1    0    0    0    0 -0.00000000000E+00 -0.00000000000E+00 -0.45593999997E+02  0.45594000000E+02  0.51100000000E-03 0. -1.
    9900012    2    1    2    0    0  0.19574765641E+02  0.16679880864E+02  0.34960452967E+02  0.47787272504E+02  0.20000006656E+02 0.  0.
         12    1    1    2    0    0 -0.19574765641E+02 -0.16679880864E+02 -0.34960452967E+02  0.43400727496E+02  0.00000000000E+00 0. -1.
         11    1    3    3    0    0  0.51027974308E+01  0.10687177932E+02  0.14181092388E+02  0.18475867918E+02  0.51100000000E-03 0. -1.
        -11    1    3    3    0    0  0.79917678221E+01  0.68302537168E+01  0.20174569253E+02  0.22749372817E+02  0.51100000000E-03 0.  1.
         12    1    3    3    0    0  0.64802003881E+01 -0.83755078442E+00  0.60479132548E+00  0.65620317687E+01  0.00000000000E+00 0. -1.
</event>
<event>
 7    1  0.2647566E-010  0.4778727E+02  0.7816164E-02  0.1312668E+00
        -11   -1    0    0    0    0  0.00000000000E+00  0.00000000000E+00  0.45593999997E+02  0.45594000000E+02  0.51100000000E-03 0.  1.
         11   -1    0    0    0    0 -0.00000000000E+00 -0.00000000000E+00 -0.45593999997E+02  0.45594000000E+02  0.51100000000E-03 0. -1.
    9900012    2    1    2    0    0 -0.17131736654E+02 -0.39254336142E+02  0.70159799305E+01  0.47787270961E+02  0.19999999619E+02 0.  0.
         12    1    1    2    0    0  0.17131736654E+02  0.39254336142E+02 -0.70159799305E+01  0.43400729039E+02  0.00000000000E+00 0. -1.
         11    1    3    3    0    0 -0.17160113358E+01 -0.23732348681E+01  0.25886844253E+01  0.39087371309E+01  0.51100000000E-03 0. -1.
        -11    1    3    3    0    0 -0.28820616629E+01 -0.25654713627E+02 -0.19374470329E+01  0.25888690812E+02  0.51100000000E-03 0.  1.
        -12    1    3    3    0    0 -0.12533663655E+02 -0.11226387647E+02  0.63647425381E+01  0.17989843018E+02  0.00000000000E+00 0.  1.
</event>
<event>
 7    1  0.2647566E-010  0.4778727E+02  0.7816164E-02  0.1312668E+00
        -11   -1    0    0    0    0  0.00000000000E+00  0.00000000000E+00  0.45593999997E+02  0.45594000000E+02  0.51100000000E-03 0.  1.
         11   -1    0    0    0    0 -0.00000000000E+00 -0.00000000000E+00 -0.45593999997E+02  0.45594000000E+02  0.51100000000E-03 0. -1.
    9900012    2    1    2    0    0  0.32476168666E+01  0.17776961902E+02  0.39459547062E+02  0.47787271387E+02  0.20000001561E+02 0.  0.
         12    1    1    2    0    0 -0.32476168666E+01 -0.17776961902E+02 -0.39459547062E+02  0.43400728613E+02  0.00000000000E+00 0. -1.
         11    1    3    3    0    0  0.55545744054E+00 -0.18404205412E+01 -0.21606226016E+00  0.19345190354E+01  0.51100000000E-03 0. -1.
        -11    1    3    3    0    0 -0.32195818025E+01  0.41397347151E+01  0.42719691825E+01  0.67640839330E+01  0.51100000000E-03 0.  1.
        -12    1    3    3    0    0  0.59117412285E+01  0.15477647728E+02  0.35403640140E+02  0.39088668418E+02  0.00000000000E+00 0.  1.
</event>
<event>
 7    1  0.2647566E-010  0.4778728E+02  0.7816164E-02  0.1312668E+00
        -11   -1    0    0    0    0  0.00000000000E+00  0.00000000000E+00  0.45593999997E+02  0.45594000000E+02  0.51100000000E-03 0.  1.
         11   -1    0    0    0    0 -0.00000000000E+00 -0.00000000000E+00 -0.45593999997E+02  0.45594000000E+02  0.51100000000E-03 0. -1.
    9900012    2    1    2    0    0  0.36284411796E+02 -0.18552222150E+02  0.14929130531E+02  0.47787280830E+02  0.20000044614E+02 0.  0.
         12    1    1    2    0    0 -0.36284411796E+02  0.18552222150E+02 -0.14929130531E+02  0.43400719170E+02  0.00000000000E+00 0. -1.
         11    1    3    3    0    0  0.46031414206E+01 -0.53091300212E+01  0.52672520016E+01  0.87817832147E+01  0.51100000000E-03 0. -1.
        -11    1    3    3    0    0  0.29569715303E+01  0.29895946140E+01 -0.10178671051E+01  0.43263622469E+01  0.51100000000E-03 0.  1.
        -12    1    3    3    0    0  0.28724298845E+02 -0.16232686743E+02  0.10679745635E+02  0.34679135368E+02  0.00000000000E+00 0.  1.
</event>
<event>
 7    1  0.2647566E-010  0.4778727E+02  0.7816164E-02  0.1312668E+00
        -11   -1    0    0    0    0  0.00000000000E+00  0.00000000000E+00  0.45593999997E+02  0.45594000000E+02  0.51100000000E-03 0. -1.
         11   -1    0    0    0    0 -0.00000000000E+00 -0.00000000000E+00 -0.45593999997E+02  0.45594000000E+02  0.51100000000E-03 0.  1.
    9900012    2    1    2    0    0  0.21261646130E+02  0.46162193056E+01 -0.37553380496E+02  0.47787268860E+02  0.19999990041E+02 0.  0.
         12    1    1    2    0    0 -0.21261646130E+02 -0.46162193056E+01  0.37553380496E+02  0.43400731140E+02  0.00000000000E+00 0. -1.
         11    1    3    3    0    0  0.44220499836E+01 -0.49504636648E+00 -0.16524645865E+01  0.47466026201E+01  0.51100000000E-03 0. -1.
        -11    1    3    3    0    0 -0.14781362885E+01 -0.29705749560E+00 -0.13580653455E+02  0.13664087184E+02  0.51100000000E-03 0.  1.
        -12    1    3    3    0    0  0.18317732435E+02  0.54083231677E+01 -0.22320262454E+02  0.29376579056E+02  0.00000000000E+00 0.  1.
</event>
<event>
 7    1  0.2647566E-010  0.4778727E+02  0.7816164E-02  0.1312668E+00
        -11   -1    0    0    0    0  0.00000000000E+00  0.00000000000E+00  0.45593999997E+02  0.45594000000E+02  0.51100000000E-03 0.  1.
         11   -1    0    0    0    0 -0.00000000000E+00 -0.00000000000E+00 -0.45593999997E+02  0.45594000000E+02  0.51100000000E-03 0. -1.
    9900012    2    1    2    0    0  0.37343040247E+02  0.11761109768E+02  0.18729574471E+02  0.47787270540E+02  0.19999997698E+02 0.  0.
         12    1    1    2    0    0 -0.37343040247E+02 -0.11761109768E+02 -0.18729574471E+02  0.43400729460E+02  0.00000000000E+00 0. -1.
         11    1    3    3    0    0  0.18292020326E+02  0.13521811272E+02  0.83742999051E+01  0.24239766642E+02  0.51100000000E-03 0. -1.
        -11    1    3    3    0    0  0.11631298331E+02  0.33775045410E+01  0.55496610249E+01  0.13322663981E+02  0.51100000000E-03 0.  1.
        -12    1    3    3    0    0  0.74197215892E+01 -0.51382060448E+01  0.48056135412E+01  0.10224839917E+02  0.00000000000E+00 0.  1.
</event>
<event>
 7    1  0.2647566E-010  0.4778727E+02  0.7816164E-02  0.1312668E+00
        -11   -1    0    0    0    0  0.00000000000E+00  0.00000000000E+00  0.45593999997E+02  0.45594000000E+02  0.51100000000E-03 0. -1.
         11   -1    0    0    0    0 -0.00000000000E+00 -0.00000000000E+00 -0.45593999997E+02  0.45594000000E+02  0.51100000000E-03 0.  1.
    9900012    2    1    2    0    0 -0.72119861310E+01 -0.34956434606E+02 -0.24691256523E+02  0.47787271746E+02  0.20000003197E+02 0.  0.
         12    1    1    2    0    0  0.72119861310E+01  0.34956434606E+02  0.24691256523E+02  0.43400728254E+02  0.00000000000E+00 0. -1.
         11    1    3    3    0    0 -0.74629826996E+00 -0.79569719923E-01  0.22670535638E+01  0.23880587452E+01  0.51100000000E-03 0. -1.
        -11    1    3    3    0    0  0.67813429789E+00 -0.12999928021E+02 -0.62507239679E+01  0.14440552104E+02  0.51100000000E-03 0.  1.
        -12    1    3    3    0    0 -0.71438221589E+01 -0.21876936865E+02 -0.20707586119E+02  0.30958660897E+02  0.00000000000E+00 0.  1.
</event>
<event>
 7    1  0.2647566E-010  0.4778727E+02  0.7816164E-02  0.1312668E+00
        -11   -1    0    0    0    0  0.00000000000E+00  0.00000000000E+00  0.45593999997E+02  0.45594000000E+02  0.51100000000E-03 0.  1.
         11   -1    0    0    0    0 -0.00000000000E+00 -0.00000000000E+00 -0.45593999997E+02  0.45594000000E+02  0.51100000000E-03 0. -1.
    9900012    2    1    2    0    0  0.13587998361E+02  0.19418201197E+02  0.36358255928E+02  0.47787274069E+02  0.20000013790E+02 0.  0.
         12    1    1    2    0    0 -0.13587998361E+02 -0.19418201197E+02 -0.36358255928E+02  0.43400725931E+02  0.00000000000E+00 0. -1.
         11    1    3    3    0    0  0.46037357222E+00 -0.14158482052E+01 -0.69121706096E+00  0.16414479135E+01  0.51100000000E-03 0. -1.
        -11    1    3    3    0    0  0.12788477120E+02  0.11477338133E+02  0.29408798105E+02  0.34061001804E+02  0.51100000000E-03 0.  1.
         12    1    3    3    0    0  0.33914766913E+00  0.93567112689E+01  0.76406748842E+01  0.12084824351E+02  0.00000000000E+00 0. -1.
</event>
<event>
 7    1  0.2647566E-010  0.4778727E+02  0.7816164E-02  0.1312668E+00
        -11   -1    0    0    0    0  0.00000000000E+00  0.00000000000E+00  0.45593999997E+02  0.45594000000E+02  0.51100000000E-03 0. -1.
         11   -1    0    0    0    0 -0.00000000000E+00 -0.00000000000E+00 -0.45593999997E+02  0.45594000000E+02  0.51100000000E-03 0.  1.
    9900012    2    1    2    0    0  0.97087931956E+00 -0.26710175530E+02 -0.34194255954E+02  0.47787271622E+02  0.20000002633E+02 0.  0.
         12    1    1    2    0    0 -0.97087931956E+00  0.26710175530E+02  0.34194255954E+02  0.43400728378E+02  0.00000000000E+00 0. -1.
         11    1    3    3    0    0  0.41445068210E+01 -0.34327471167E+01 -0.74911266437E+01  0.92237556456E+01  0.51100000000E-03 0. -1.
        -11    1    3    3    0    0 -0.31011357420E+01 -0.86455195057E+01 -0.20888057917E+02  0.22818260543E+02  0.51100000000E-03 0.  1.
         12    1    3    3    0    0 -0.72491759473E-01 -0.14631908908E+02 -0.58150713933E+01  0.15745255433E+02  0.00000000000E+00 0. -1.
</event>
<event>
 7    1  0.2647566E-010  0.4778727E+02  0.7816164E-02  0.1312668E+00
        -11   -1    0    0    0    0  0.00000000000E+00  0.00000000000E+00  0.45593999997E+02  0.45594000000E+02  0.51100000000E-03 0. -1.
         11   -1    0    0    0    0 -0.00000000000E+00 -0.00000000000E+00 -0.45593999997E+02  0.45594000000E+02  0.51100000000E-03 0.  1.
    9900012    2    1    2    0    0 -0.22165782657E+02  0.37257395652E+02  0.20463860313E+01  0.47787272502E+02  0.20000006645E+02 0.  0.
         12    1    1    2    0    0  0.22165782657E+02 -0.37257395652E+02 -0.20463860313E+01  0.43400727498E+02  0.00000000000E+00 0. -1.
         11    1    3    3    0    0 -0.33207573577E-01  0.25842764101E+00  0.12712007496E+01  0.12976282963E+01  0.51100000000E-03 0. -1.
        -11    1    3    3    0    0 -0.20867001270E+02  0.38696807853E+02  0.20600490180E+01  0.44012708190E+02  0.51100000000E-03 0.  1.
        -12    1    3    3    0    0 -0.12655738133E+01 -0.16978398416E+01 -0.12848637363E+01  0.24769360156E+01  0.00000000000E+00 0.  1.
</event>
<event>
 7    1  0.2647566E-010  0.4778728E+02  0.7816164E-02  0.1312668E+00
        -11   -1    0    0    0    0  0.00000000000E+00  0.00000000000E+00  0.45593999997E+02  0.45594000000E+02  0.51100000000E-03 0.  1.
         11   -1    0    0    0    0 -0.00000000000E+00 -0.00000000000E+00 -0.45593999997E+02  0.45594000000E+02  0.51100000000E-03 0. -1.
    9900012    2    1    2    0    0 -0.32809733802E+02  0.21806476867E+02 -0.18210486155E+02  0.47787275680E+02  0.20000021135E+02 0.  0.
         12    1    1    2    0    0  0.32809733802E+02 -0.21806476867E+02  0.18210486155E+02  0.43400724320E+02  0.00000000000E+00 0. -1.
         11    1    3    3    0    0 -0.11192600712E+02  0.99447550219E+01 -0.53961041453E+01  0.15915099854E+02  0.51100000000E-03 0.  1.
        -11    1    3    3    0    0 -0.68564072896E+00  0.40839806461E+01  0.24612266913E+01  0.48173268744E+01  0.51100000000E-03 0. -1.
         12    1    3    3    0    0 -0.20931492361E+02  0.77777411992E+01 -0.15275608701E+02  0.27054848952E+02  0.00000000000E+00 0. -1.
</event>
<event>
 7    1  0.2647566E-010  0.4778727E+02  0.7816164E-02  0.1312668E+00
        -11   -1    0    0    0    0  0.00000000000E+00  0.00000000000E+00  0.45593999997E+02  0.45594000000E+02  0.51100000000E-03 0.  1.
         11   -1    0    0    0    0 -0.00000000000E+00 -0.00000000000E+00 -0.45593999997E+02  0.45594000000E+02  0.51100000000E-03 0. -1.
    9900012    2    1    2    0    0 -0.21778391308E+02  0.30224210051E+02  0.22267060921E+02  0.47787271858E+02  0.20000003709E+02 0.  0.
         12    1    1    2    0    0  0.21778391308E+02 -0.30224210051E+02 -0.22267060921E+02  0.43400728142E+02  0.00000000000E+00 0. -1.
         11    1    3    3    0    0 -0.37101489701E+01 -0.74978494184E-01 -0.24675828594E+01  0.44564327196E+01  0.51100000000E-03 0. -1.
        -11    1    3    3    0    0 -0.39467241810E+01  0.92252273737E+01  0.51232647882E+01  0.11266290171E+02  0.51100000000E-03 0.  1.
         12    1    3    3    0    0 -0.14121518157E+02  0.21073961172E+02  0.19611378992E+02  0.32064548968E+02  0.00000000000E+00 0. -1.
</event>
<event>
 7    1  0.2647566E-010  0.4778724E+02  0.7816164E-02  0.1312668E+00
        -11   -1    0    0    0    0  0.00000000000E+00  0.00000000000E+00  0.45593999997E+02  0.45594000000E+02  0.51100000000E-03 0. -1.
         11   -1    0    0    0    0 -0.00000000000E+00 -0.00000000000E+00 -0.45593999997E+02  0.45594000000E+02  0.51100000000E-03 0.  1.
    9900012    2    1    2    0    0  0.13317514805E+02 -0.40567046606E+02  0.77835953237E+01  0.47787241630E+02  0.19999865889E+02 0.  0.
         12    1    1    2    0    0 -0.13317514805E+02  0.40567046606E+02 -0.77835953237E+01  0.43400758370E+02  0.00000000000E+00 0. -1.
         11    1    3    3    0    0  0.40141280682E+01 -0.24889306298E+01  0.36684382844E+01  0.59804213510E+01  0.51100000000E-03 0. -1.
        -11    1    3    3    0    0  0.23960738885E+01 -0.62624983619E+01  0.62683545921E+01  0.91789065452E+01  0.51100000000E-03 0.  1.
        -12    1    3    3    0    0  0.69073128480E+01 -0.31815617614E+02 -0.21531975528E+01  0.32627913734E+02  0.00000000000E+00 0.  1.
</event>
<event>
 7    1  0.2647566E-010  0.4778727E+02  0.7816164E-02  0.1312668E+00
        -11   -1    0    0    0    0  0.00000000000E+00  0.00000000000E+00  0.45593999997E+02  0.45594000000E+02  0.51100000000E-03 0.  1.
         11   -1    0    0    0    0 -0.00000000000E+00 -0.00000000000E+00 -0.45593999997E+02  0.45594000000E+02  0.51100000000E-03 0. -1.
    9900012    2    1    2    0    0 -0.30393421584E+02  0.30979256108E+02 -0.38542291513E+00  0.47787274944E+02  0.20000017777E+02 0.  0.
         12    1    1    2    0    0  0.30393421584E+02 -0.30979256108E+02  0.38542291513E+00  0.43400725056E+02  0.00000000000E+00 0. -1.
         11    1    3    3    0    0 -0.33212229502E+01 -0.87414038185E+00  0.28205078651E+01  0.44440868770E+01  0.51100000000E-03 0. -1.
        -11    1    3    3    0    0 -0.13370035371E+02  0.13215608254E+02  0.37867645976E+01  0.19176801968E+02  0.51100000000E-03 0.  1.
         12    1    3    3    0    0 -0.13702163263E+02  0.18637788236E+02 -0.69926953777E+01  0.24166386099E+02  0.00000000000E+00 0. -1.
</event>
<event>
 7    1  0.2647566E-010  0.4778727E+02  0.7816164E-02  0.1312668E+00
        -11   -1    0    0    0    0  0.00000000000E+00  0.00000000000E+00  0.45593999997E+02  0.45594000000E+02  0.51100000000E-03 0.  1.
         11   -1    0    0    0    0 -0.00000000000E+00 -0.00000000000E+00 -0.45593999997E+02  0.45594000000E+02  0.51100000000E-03 0. -1.
    9900012    2    1    2    0    0 -0.15342360057E+01 -0.41738026367E+02  0.11798574884E+02  0.47787273112E+02  0.20000009426E+02 0.  0.
         12    1    1    2    0    0  0.15342360057E+01  0.41738026367E+02 -0.11798574884E+02  0.43400726888E+02  0.00000000000E+00 0. -1.
         11    1    3    3    0    0 -0.39544734001E+01 -0.12947289019E+02  0.41654364137E+01  0.14164074753E+02  0.51100000000E-03 0. -1.
        -11    1    3    3    0    0  0.36967452979E+01 -0.15338391317E+02  0.11550936140E+02  0.19553933107E+02  0.51100000000E-03 0.  1.
         12    1    3    3    0    0 -0.12765079034E+01 -0.13452346031E+02 -0.39177976692E+01  0.14069265252E+02  0.00000000000E+00 0. -1.
</event>
<event>
 7    1  0.2647566E-010  0.4778727E+02  0.7816164E-02  0.1312668E+00
        -11   -1    0    0    0    0  0.00000000000E+00  0.00000000000E+00  0.45593999997E+02  0.45594000000E+02  0.51100000000E-03 0.  1.
         11   -1    0    0    0    0 -0.00000000000E+00 -0.00000000000E+00 -0.45593999997E+02  0.45594000000E+02  0.51100000000E-03 0. -1.
    9900012    2    1    2    0    0  0.38935405485E+02  0.15287781148E+02 -0.11573295440E+02  0.47787271664E+02  0.20000002826E+02 0.  0.
         12    1    1    2    0    0 -0.38935405485E+02 -0.15287781148E+02  0.11573295440E+02  0.43400728336E+02  0.00000000000E+00 0. -1.
         11    1    3    3    0    0  0.22516944128E+01  0.16794365525E+01  0.83592141594E+00  0.29307677727E+01  0.51100000000E-03 0. -1.
        -11    1    3    3    0    0  0.13373742143E+02  0.13589275609E+02 -0.15151504798E+01  0.19126449532E+02  0.51100000000E-03 0.  1.
         12    1    3    3    0    0  0.23309968930E+02  0.19068986990E-01 -0.10894066376E+02  0.25730054359E+02  0.00000000000E+00 0. -1.
</event>
<event>
 7    1  0.2647566E-010  0.4778727E+02  0.7816164E-02  0.1312668E+00
        -11   -1    0    0    0    0  0.00000000000E+00  0.00000000000E+00  0.45593999997E+02  0.45594000000E+02  0.51100000000E-03 0.  1.
         11   -1    0    0    0    0 -0.00000000000E+00 -0.00000000000E+00 -0.45593999997E+02  0.45594000000E+02  0.51100000000E-03 0. -1.
    9900012    2    1    2    0    0  0.37449804700E+02 -0.20784346315E+02  0.70104415293E+01  0.47787271731E+02  0.20000003132E+02 0.  0.
         12    1    1    2    0    0 -0.37449804700E+02  0.20784346315E+02 -0.70104415293E+01  0.43400728269E+02  0.00000000000E+00 0. -1.
         11    1    3    3    0    0  0.11232685896E+02  0.31874171629E-02 -0.62133662583E+00  0.11249857868E+02  0.51100000000E-03 0. -1.
        -11    1    3    3    0    0  0.65615836125E+01  0.20565973837E-01  0.39987482496E+01  0.76840607941E+01  0.51100000000E-03 0.  1.
         12    1    3    3    0    0  0.19655535192E+02 -0.20808099706E+02  0.36330299055E+01  0.28853353069E+02  0.00000000000E+00 0. -1.
</event>
<event>
 7    1  0.2647566E-010  0.4778727E+02  0.7816164E-02  0.1312668E+00
        -11   -1    0    0    0    0  0.00000000000E+00  0.00000000000E+00  0.45593999997E+02  0.45594000000E+02  0.51100000000E-03 0.  1.
         11   -1    0    0    0    0 -0.00000000000E+00 -0.00000000000E+00 -0.45593999997E+02  0.45594000000E+02  0.51100000000E-03 0. -1.
    9900012    2    1    2    0    0 -0.35824595476E+02  0.13699565559E+02 -0.20311174786E+02  0.47787267763E+02  0.19999985041E+02 0.  0.
         12    1    1    2    0    0  0.35824595476E+02 -0.13699565559E+02  0.20311174786E+02  0.43400732237E+02  0.00000000000E+00 0. -1.
         11    1    3    3    0    0 -0.18972516471E+02 -0.21666112997E+01 -0.76487751532E+01  0.20570715772E+02  0.51100000000E-03 0.  1.
        -11    1    3    3    0    0  0.20381143201E+00  0.20939572671E+01 -0.56637564118E+00  0.21787560130E+01  0.51100000000E-03 0. -1.
        -12    1    3    3    0    0 -0.17055890437E+02  0.13772219592E+02 -0.12096023991E+02  0.25037795979E+02  0.00000000000E+00 0.  1.
</event>
<event>
 7    1  0.2647566E-010  0.4778727E+02  0.7816164E-02  0.1312668E+00
        -11   -1    0    0    0    0  0.00000000000E+00  0.00000000000E+00  0.45593999997E+02  0.45594000000E+02  0.51100000000E-03 0.  1.
         11   -1    0    0    0    0 -0.00000000000E+00 -0.00000000000E+00 -0.45593999997E+02  0.45594000000E+02  0.51100000000E-03 0. -1.
    9900012    2    1    2    0    0 -0.34285736955E+02 -0.36650174229E+01  0.26356762613E+02  0.47787273661E+02  0.20000011930E+02 0.  0.
         12    1    1    2    0    0  0.34285736955E+02  0.36650174229E+01 -0.26356762613E+02  0.43400726339E+02  0.00000000000E+00 0. -1.
         11    1    3    3    0    0 -0.13474474749E+02 -0.91204823210E+01  0.15007106467E+02  0.22134992937E+02  0.51100000000E-03 0. -1.
        -11    1    3    3    0    0 -0.51973191696E+00 -0.14735096622E+01  0.73018373056E+00  0.17246798346E+01  0.51100000000E-03 0.  1.
        -12    1    3    3    0    0 -0.20291530290E+02  0.69289745603E+01  0.10619472415E+02  0.23927600890E+02  0.00000000000E+00 0.  1.
</event>
<event>
 7    1  0.2647566E-010  0.4778727E+02  0.7816164E-02  0.1312668E+00
        -11   -1    0    0    0    0  0.00000000000E+00  0.00000000000E+00  0.45593999997E+02  0.45594000000E+02  0.51100000000E-03 0.  1.
         11   -1    0    0    0    0 -0.00000000000E+00 -0.00000000000E+00 -0.45593999997E+02  0.45594000000E+02  0.51100000000E-03 0. -1.
    9900012    2    1    2    0    0  0.64655361716E+01  0.23195295494E+02  0.36108146663E+02  0.47787272512E+02  0.20000006691E+02 0.  0.
         12    1    1    2    0    0 -0.64655361716E+01 -0.23195295494E+02 -0.36108146663E+02  0.43400727488E+02  0.00000000000E+00 0. -1.
         11    1    3    3    0    0  0.36441115045E+01  0.11747742647E+01  0.89138185560E+01  0.97013300500E+01  0.51100000000E-03 0. -1.
        -11    1    3    3    0    0 -0.24434043943E+00 -0.12537797871E+01 -0.83384428744E+00  0.15254384818E+01  0.51100000000E-03 0.  1.
        -12    1    3    3    0    0  0.30657651065E+01  0.23274301016E+02  0.28028172395E+02  0.36560503980E+02  0.00000000000E+00 0.  1.
</event>
<event>
 7    1  0.2647566E-010  0.4778722E+02  0.7816164E-02  0.1312668E+00
        -11   -1    0    0    0    0  0.00000000000E+00  0.00000000000E+00  0.45593999997E+02  0.45594000000E+02  0.51100000000E-03 0.  1.
         11   -1    0    0    0    0 -0.00000000000E+00 -0.00000000000E+00 -0.45593999997E+02  0.45594000000E+02  0.51100000000E-03 0. -1.
    9900012    2    1    2    0    0  0.35674745792E+02  0.16491142037E+02  0.18411483985E+02  0.47787216649E+02  0.19999751987E+02 0.  0.
         12    1    1    2    0    0 -0.35674745792E+02 -0.16491142037E+02 -0.18411483985E+02  0.43400783351E+02  0.00000000000E+00 0. -1.
         11    1    3    3    0    0  0.54020038699E+01  0.47674275508E+00  0.37214244333E+01  0.65770760631E+01  0.51100000000E-03 0. -1.
        -11    1    3    3    0    0  0.95631612297E+01  0.10323116373E+02  0.13807475894E+02  0.19714643674E+02  0.51100000000E-03 0.  1.
         12    1    3    3    0    0  0.20709580692E+02  0.56912829087E+01  0.88258365785E+00  0.21495496912E+02  0.00000000000E+00 0. -1.
</event>
<event>
 7    1  0.2647566E-010  0.4778727E+02  0.7816164E-02  0.1312668E+00
        -11   -1    0    0    0    0  0.00000000000E+00  0.00000000000E+00  0.45593999997E+02  0.45594000000E+02  0.51100000000E-03 0.  1.
         11   -1    0    0    0    0 -0.00000000000E+00 -0.00000000000E+00 -0.45593999997E+02  0.45594000000E+02  0.51100000000E-03 0. -1.
    9900012    2    1    2    0    0 -0.16108074859E+02  0.23012481024E+01  0.40235031063E+02  0.47787267943E+02  0.19999985857E+02 0.  0.
         12    1    1    2    0    0  0.16108074859E+02 -0.23012481024E+01 -0.40235031063E+02  0.43400732057E+02  0.00000000000E+00 0. -1.
         11    1    3    3    0    0 -0.77826912377E+01 -0.44636240557E+00  0.19338563074E+02  0.20850648535E+02  0.51100000000E-03 0. -1.
        -11    1    3    3    0    0 -0.28250217671E+01  0.19038685976E+00  0.20673787248E+02  0.20866779209E+02  0.51100000000E-03 0.  1.
         12    1    3    3    0    0 -0.55003618543E+01  0.25572236483E+01  0.22268074055E+00  0.60698401978E+01  0.00000000000E+00 0. -1.
</event>
<event>
 7    1  0.2647566E-010  0.4778727E+02  0.7816164E-02  0.1312668E+00
        -11   -1    0    0    0    0  0.00000000000E+00  0.00000000000E+00  0.45593999997E+02  0.45594000000E+02  0.51100000000E-03 0. -1.
         11   -1    0    0    0    0 -0.00000000000E+00 -0.00000000000E+00 -0.45593999997E+02  0.45594000000E+02  0.51100000000E-03 0.  1.
    9900012    2    1    2    0    0  0.35341536381E+02  0.45263735240E+01 -0.24781265446E+02  0.47787269958E+02  0.19999995047E+02 0.  0.
         12    1    1    2    0    0 -0.35341536381E+02 -0.45263735240E+01  0.24781265446E+02  0.43400730042E+02  0.00000000000E+00 0. -1.
         11    1    3    3    0    0  0.10540475212E+01 -0.19508669027E+01 -0.87763640718E+01  0.90521524750E+01  0.51100000000E-03 0.  1.
        -11    1    3    3    0    0  0.32016456698E+01 -0.72873578679E+00 -0.75967444370E+00  0.33702665122E+01  0.51100000000E-03 0. -1.
        -12    1    3    3    0    0  0.31085843190E+02  0.72059762135E+01 -0.15245226931E+02  0.35364850971E+02  0.00000000000E+00 0.  1.
</event>
<event>
 7    1  0.2647566E-010  0.4778721E+02  0.7816164E-02  0.1312668E+00
        -11   -1    0    0    0    0  0.00000000000E+00  0.00000000000E+00  0.45593999997E+02  0.45594000000E+02  0.51100000000E-03 0.  1.
         11   -1    0    0    0    0 -0.00000000000E+00 -0.00000000000E+00 -0.45593999997E+02  0.45594000000E+02  0.51100000000E-03 0. -1.
    9900012    2    1    2    0    0 -0.34386240603E+01 -0.30382914607E+02  0.30800699934E+02  0.47787207935E+02  0.19999712259E+02 0.  0.
         12    1    1    2    0    0  0.34386240603E+01  0.30382914607E+02 -0.30800699934E+02  0.43400792065E+02  0.00000000000E+00 0. -1.
         11    1    3    3    0    0  0.62761613459E+01 -0.32374279019E+01  0.43166212398E+01  0.82767360626E+01  0.51100000000E-03 0. -1.
        -11    1    3    3    0    0 -0.34721712712E+01 -0.41045262199E+01  0.59854264488E+01  0.80453986142E+01  0.51100000000E-03 0.  1.
         12    1    3    3    0    0 -0.62426141351E+01 -0.23040960485E+02  0.20498652245E+02  0.31465073259E+02  0.00000000000E+00 0. -1.
</event>
<event>
 7    1  0.2647566E-010  0.4778727E+02  0.7816164E-02  0.1312668E+00
        -11   -1    0    0    0    0  0.00000000000E+00  0.00000000000E+00  0.45593999997E+02  0.45594000000E+02  0.51100000000E-03 0.  1.
         11   -1    0    0    0    0 -0.00000000000E+00 -0.00000000000E+00 -0.45593999997E+02  0.45594000000E+02  0.51100000000E-03 0. -1.
    9900012    2    1    2    0    0 -0.37447320372E+02  0.14726028795E+02  0.16262403670E+02  0.47787268436E+02  0.19999988108E+02 0.  0.
         12    1    1    2    0    0  0.37447320372E+02 -0.14726028795E+02 -0.16262403670E+02  0.43400731564E+02  0.00000000000E+00 0. -1.
         11    1    3    3    0    0 -0.70738892719E+01  0.59479183342E+01  0.51058049418E+01  0.10558735071E+02  0.51100000000E-03 0. -1.
        -11    1    3    3    0    0 -0.73548646916E+01  0.54325025282E+01  0.10548944333E+02  0.13960169954E+02  0.51100000000E-03 0.  1.
         12    1    3    3    0    0 -0.23018566409E+02  0.33456079325E+01  0.60765439566E+00  0.23268363411E+02  0.00000000000E+00 0. -1.
</event>
<event>
 7    1  0.2647566E-010  0.4778727E+02  0.7816164E-02  0.1312668E+00
        -11   -1    0    0    0    0  0.00000000000E+00  0.00000000000E+00  0.45593999997E+02  0.45594000000E+02  0.51100000000E-03 0.  1.
         11   -1    0    0    0    0 -0.00000000000E+00 -0.00000000000E+00 -0.45593999997E+02  0.45594000000E+02  0.51100000000E-03 0. -1.
    9900012    2    1    2    0    0  0.16071128598E+02  0.20066139288E+02  0.34967016518E+02  0.47787270000E+02  0.19999995239E+02 0.  0.
         12    1    1    2    0    0 -0.16071128598E+02 -0.20066139288E+02 -0.34967016518E+02  0.43400730000E+02  0.00000000000E+00 0. -1.
         11    1    3    3    0    0 -0.13382425918E+01  0.45902930843E+01  0.17507733096E+02  0.18148895345E+02  0.51100000000E-03 0. -1.
        -11    1    3    3    0    0  0.26875865698E+01  0.36490768576E+01  0.61067435138E+01  0.76046827736E+01  0.51100000000E-03 0.  1.
         12    1    3    3    0    0  0.14721784620E+02  0.11826769346E+02  0.11352539908E+02  0.22033691881E+02  0.00000000000E+00 0. -1.
</event>
<event>
 7    1  0.2647566E-010  0.4778727E+02  0.7816164E-02  0.1312668E+00
        -11   -1    0    0    0    0  0.00000000000E+00  0.00000000000E+00  0.45593999997E+02  0.45594000000E+02  0.51100000000E-03 0. -1.
         11   -1    0    0    0    0 -0.00000000000E+00 -0.00000000000E+00 -0.45593999997E+02  0.45594000000E+02  0.51100000000E-03 0.  1.
    9900012    2    1    2    0    0 -0.39896500415E+02 -0.12782967002E+02 -0.11335269742E+02  0.47787270388E+02  0.19999997007E+02 0.  0.
         12    1    1    2    0    0  0.39896500415E+02  0.12782967002E+02  0.11335269742E+02  0.43400729612E+02  0.00000000000E+00 0. -1.
         11    1    3    3    0    0 -0.11310668333E+01  0.13751067472E+01 -0.44331013856E+00  0.18348718995E+01  0.51100000000E-03 0. -1.
        -11    1    3    3    0    0 -0.14480379510E+02 -0.11313457610E+02 -0.11160959725E+02  0.21499831071E+02  0.51100000000E-03 0.  1.
        -12    1    3    3    0    0 -0.24285054071E+02 -0.28446161391E+01  0.26900012132E+00  0.24452567417E+02  0.00000000000E+00 0.  1.
</event>
<event>
 7    1  0.2647566E-010  0.4778726E+02  0.7816164E-02  0.1312668E+00
        -11   -1    0    0    0    0  0.00000000000E+00  0.00000000000E+00  0.45593999997E+02  0.45594000000E+02  0.51100000000E-03 0. -1.
         11   -1    0    0    0    0 -0.00000000000E+00 -0.00000000000E+00 -0.45593999997E+02  0.45594000000E+02  0.51100000000E-03 0.  1.
    9900012    2    1    2    0    0 -0.76855933195E+01  0.27260891337E+02 -0.32884637892E+02  0.47787263250E+02  0.19999964460E+02 0.  0.
         12    1    1    2    0    0  0.76855933195E+01 -0.27260891337E+02  0.32884637892E+02  0.43400736750E+02  0.00000000000E+00 0. -1.
         11    1    3    3    0    0 -0.10144026246E+02  0.55488937699E+01 -0.75587245193E+01  0.13813971448E+02  0.51100000000E-03 0. -1.
        -11    1    3    3    0    0 -0.17607426813E+01  0.10214232673E+02 -0.12516566978E+02  0.16251006525E+02  0.51100000000E-03 0.  1.
         12    1    3    3    0    0  0.42191756076E+01  0.11497764894E+02 -0.12809346395E+02  0.17722285277E+02  0.00000000000E+00 0. -1.
</event>
<event>
 7    1  0.2647566E-010  0.4778727E+02  0.7816164E-02  0.1312668E+00
        -11   -1    0    0    0    0  0.00000000000E+00  0.00000000000E+00  0.45593999997E+02  0.45594000000E+02  0.51100000000E-03 0.  1.
         11   -1    0    0    0    0 -0.00000000000E+00 -0.00000000000E+00 -0.45593999997E+02  0.45594000000E+02  0.51100000000E-03 0. -1.
    9900012    2    1    2    0    0  0.23660619326E+00  0.17388933087E+02  0.39764211949E+02  0.47787268113E+02  0.19999986636E+02 0.  0.
         12    1    1    2    0    0 -0.23660619326E+00 -0.17388933087E+02 -0.39764211949E+02  0.43400731887E+02  0.00000000000E+00 0. -1.
         11    1    3    3    0    0  0.71435019876E+01  0.96813053144E+01  0.14021192551E+02  0.18475690354E+02  0.51100000000E-03 0. -1.
        -11    1    3    3    0    0 -0.77857762321E+00  0.77125588213E+01  0.16374721487E+02  0.18116877510E+02  0.51100000000E-03 0.  1.
        -12    1    3    3    0    0 -0.61283181712E+01 -0.49310491587E-02  0.93682979111E+01  0.11194700249E+02  0.00000000000E+00 0.  1.
</event>
<event>
 7    1  0.2647566E-010  0.4778726E+02  0.7816164E-02  0.1312668E+00
        -11   -1    0    0    0    0  0.00000000000E+00  0.00000000000E+00  0.45593999997E+02  0.45594000000E+02  0.51100000000E-03 0.  1.
         11   -1    0    0    0    0 -0.00000000000E+00 -0.00000000000E+00 -0.45593999997E+02  0.45594000000E+02  0.51100000000E-03 0. -1.
    9900012    2    1    2    0    0  0.31654800959E+02  0.24366553109E+02  0.16966697859E+02  0.47787260716E+02  0.19999952910E+02 0.  0.
         12    1    1    2    0    0 -0.31654800959E+02 -0.24366553109E+02 -0.16966697859E+02  0.43400739284E+02  0.00000000000E+00 0. -1.
         11    1    3    3    0    0  0.50144958802E+00 -0.19557452447E+01  0.24035918206E+01  0.31390516167E+01  0.51100000000E-03 0. -1.
        -11    1    3    3    0    0  0.81705996393E+01  0.33479351306E+01  0.70382332392E+01  0.11291771141E+02  0.51100000000E-03 0.  1.
        -12    1    3    3    0    0  0.22982751731E+02  0.22974363223E+02  0.75248727990E+01  0.33356437959E+02  0.00000000000E+00 0.  1.
</event>
<event>
 7    1  0.2647566E-010  0.4778727E+02  0.7816164E-02  0.1312668E+00
        -11   -1    0    0    0    0  0.00000000000E+00  0.00000000000E+00  0.45593999997E+02  0.45594000000E+02  0.51100000000E-03 0. -1.
         11   -1    0    0    0    0 -0.00000000000E+00 -0.00000000000E+00 -0.45593999997E+02  0.45594000000E+02  0.51100000000E-03 0.  1.
    9900012    2    1    2    0    0  0.32490750697E+01 -0.38665444864E+02 -0.19443513462E+02  0.47787270385E+02  0.19999996993E+02 0.  0.
         12    1    1    2    0    0 -0.32490750697E+01  0.38665444864E+02  0.19443513462E+02  0.43400729615E+02  0.00000000000E+00 0. -1.
         11    1    3    3    0    0  0.10788078850E+02 -0.15056542072E+02 -0.99723360684E+01  0.21036387317E+02  0.51100000000E-03 0. -1.
        -11    1    3    3    0    0 -0.19901183663E+01 -0.27953215549E+01 -0.18746312389E+01  0.39100685736E+01  0.51100000000E-03 0.  1.
         12    1    3    3    0    0 -0.55488854137E+01 -0.20813581238E+02 -0.75965461551E+01  0.22840814494E+02  0.00000000000E+00 0. -1.
</event>
<event>
 7    1  0.2647566E-010  0.4778727E+02  0.7816164E-02  0.1312668E+00
        -11   -1    0    0    0    0  0.00000000000E+00  0.00000000000E+00  0.45593999997E+02  0.45594000000E+02  0.51100000000E-03 0.  1.
         11   -1    0    0    0    0 -0.00000000000E+00 -0.00000000000E+00 -0.45593999997E+02  0.45594000000E+02  0.51100000000E-03 0. -1.
    9900012    2    1    2    0    0 -0.72859163782E+01  0.28626794064E+02  0.31796945589E+02  0.47787266543E+02  0.19999979477E+02 0.  0.
         12    1    1    2    0    0  0.72859163782E+01 -0.28626794064E+02 -0.31796945589E+02  0.43400733457E+02  0.00000000000E+00 0. -1.
         11    1    3    3    0    0  0.82232621085E+00 -0.11126978158E+01  0.80044282234E+01  0.81231267546E+01  0.51100000000E-03 0. -1.
        -11    1    3    3    0    0  0.92028316957E+00  0.43282471627E+01  0.55852198954E+01  0.71256807502E+01  0.51100000000E-03 0.  1.
        -12    1    3    3    0    0 -0.90285257586E+01  0.25411244717E+02  0.18207297470E+02  0.32538459038E+02  0.00000000000E+00 0.  1.
</event>
<event>
 7    1  0.2647566E-010  0.4778726E+02  0.7816164E-02  0.1312668E+00
        -11   -1    0    0    0    0  0.00000000000E+00  0.00000000000E+00  0.45593999997E+02  0.45594000000E+02  0.51100000000E-03 0. -1.
         11   -1    0    0    0    0 -0.00000000000E+00 -0.00000000000E+00 -0.45593999997E+02  0.45594000000E+02  0.51100000000E-03 0.  1.
    9900012    2    1    2    0    0 -0.30041145290E+02  0.70791874802E+01 -0.30512924340E+02  0.47787264321E+02  0.19999969343E+02 0.  0.
         12    1    1    2    0    0  0.30041145290E+02 -0.70791874802E+01  0.30512924340E+02  0.43400735679E+02  0.00000000000E+00 0. -1.
         11    1    3    3    0    0 -0.73678668825E+01 -0.47640108326E+01 -0.14868621045E+02  0.17264331834E+02  0.51100000000E-03 0.  1.
        -11    1    3    3    0    0 -0.17482859800E+01 -0.60502347191E+00 -0.13382508193E+01  0.22833030429E+01  0.51100000000E-03 0. -1.
        -12    1    3    3    0    0 -0.20924992428E+02  0.12448221785E+02 -0.14306052475E+02  0.28239629444E+02  0.00000000000E+00 0.  1.
</event>
<event>
 7    1  0.2647566E-010  0.4778728E+02  0.7816164E-02  0.1312668E+00
        -11   -1    0    0    0    0  0.00000000000E+00  0.00000000000E+00  0.45593999997E+02  0.45594000000E+02  0.51100000000E-03 0.  1.
         11   -1    0    0    0    0 -0.00000000000E+00 -0.00000000000E+00 -0.45593999997E+02  0.45594000000E+02  0.51100000000E-03 0. -1.
    9900012    2    1    2    0    0  0.12463387427E+02 -0.30150161813E+02  0.28622611144E+02  0.47787283967E+02  0.20000058917E+02 0.  0.
         12    1    1    2    0    0 -0.12463387427E+02  0.30150161813E+02 -0.28622611144E+02  0.43400716033E+02  0.00000000000E+00 0. -1.
         11    1    3    3    0    0  0.21735279779E+01 -0.91230981003E+01  0.14712529033E+02  0.17447454073E+02  0.51100000000E-03 0. -1.
        -11    1    3    3    0    0 -0.22966563317E+01 -0.99016889844E+01  0.52247315786E+01  0.11428731136E+02  0.51100000000E-03 0.  1.
        -12    1    3    3    0    0  0.12586515781E+02 -0.11125374728E+02  0.86853505325E+01  0.18911098758E+02  0.00000000000E+00 0.  1.
</event>
<event>
 7    1  0.2647566E-010  0.4778727E+02  0.7816164E-02  0.1312668E+00
        -11   -1    0    0    0    0  0.00000000000E+00  0.00000000000E+00  0.45593999997E+02  0.45594000000E+02  0.51100000000E-03 0.  1.
         11   -1    0    0    0    0 -0.00000000000E+00 -0.00000000000E+00 -0.45593999997E+02  0.45594000000E+02  0.51100000000E-03 0. -1.
    9900012    2    1    2    0    0  0.72756899446E+01 -0.19905379051E+02  0.37874311294E+02  0.47787271488E+02  0.20000002024E+02 0.  0.
         12    1    1    2    0    0 -0.72756899446E+01  0.19905379051E+02 -0.37874311294E+02  0.43400728512E+02  0.00000000000E+00 0. -1.
         11    1    3    3    0    0 -0.17145729054E+01 -0.52846058396E+01  0.91983810642E+01  0.10746024083E+02  0.51100000000E-03 0.  1.
        -11    1    3    3    0    0  0.76780742961E+01 -0.16470275209E+02  0.16149139590E+02  0.24310851489E+02  0.51100000000E-03 0. -1.
        -12    1    3    3    0    0  0.13121885540E+01  0.18495019981E+01  0.12526790641E+02  0.12730395917E+02  0.00000000000E+00 0.  1.
</event>
<event>
 7    1  0.2647566E-010  0.4778727E+02  0.7816164E-02  0.1312668E+00
        -11   -1    0    0    0    0  0.00000000000E+00  0.00000000000E+00  0.45593999997E+02  0.45594000000E+02  0.51100000000E-03 0. -1.
         11   -1    0    0    0    0 -0.00000000000E+00 -0.00000000000E+00 -0.45593999997E+02  0.45594000000E+02  0.51100000000E-03 0.  1.
    9900012    2    1    2    0    0 -0.82915757529E+01 -0.26668170016E+02 -0.33221708489E+02  0.47787269183E+02  0.19999991514E+02 0.  0.
         12    1    1    2    0    0  0.82915757529E+01  0.26668170016E+02  0.33221708489E+02  0.43400730817E+02  0.00000000000E+00 0. -1.
         11    1    3    3    0    0  0.23940181646E+01 -0.10666565530E+01 -0.55328121772E+00  0.26786562940E+01  0.51100000000E-03 0. -1.
        -11    1    3    3    0    0 -0.22705567111E+01 -0.19715607716E+02 -0.15830915874E+02  0.25386581358E+02  0.51100000000E-03 0.  1.
        -12    1    3    3    0    0 -0.84150372064E+01 -0.58859057473E+01 -0.16837511397E+02  0.19722031531E+02  0.00000000000E+00 0.  1.
</event>
<event>
 7    1  0.2647566E-010  0.4778728E+02  0.7816164E-02  0.1312668E+00
        -11   -1    0    0    0    0  0.00000000000E+00  0.00000000000E+00  0.45593999997E+02  0.45594000000E+02  0.51100000000E-03 0.  1.
         11   -1    0    0    0    0 -0.00000000000E+00 -0.00000000000E+00 -0.45593999997E+02  0.45594000000E+02  0.51100000000E-03 0. -1.
    9900012    2    1    2    0    0  0.58996694093E+01  0.34535524176E+02  0.25614726201E+02  0.47787277338E+02  0.20000028694E+02 0.  0.
         12    1    1    2    0    0 -0.58996694093E+01 -0.34535524176E+02 -0.25614726201E+02  0.43400722662E+02  0.00000000000E+00 0. -1.
         11    1    3    3    0    0 -0.41028722261E+01  0.60962314402E+01  0.57439327069E+00  0.73707208716E+01  0.51100000000E-03 0. -1.
        -11    1    3    3    0    0 -0.26551432377E+00  0.13979887749E+02  0.11498866244E+02  0.18103361138E+02  0.51100000000E-03 0.  1.
        -12    1    3    3    0    0  0.10268055959E+02  0.14459404987E+02  0.13541466686E+02  0.22313195329E+02  0.00000000000E+00 0.  1.
</event>
<event>
 7    1  0.2647566E-010  0.4778727E+02  0.7816164E-02  0.1312668E+00
        -11   -1    0    0    0    0  0.00000000000E+00  0.00000000000E+00  0.45593999997E+02  0.45594000000E+02  0.51100000000E-03 0.  1.
         11   -1    0    0    0    0 -0.00000000000E+00 -0.00000000000E+00 -0.45593999997E+02  0.45594000000E+02  0.51100000000E-03 0. -1.
    9900012    2    1    2    0    0  0.21458473547E+02 -0.36112097011E+02  0.10912086424E+02  0.47787271117E+02  0.20000000330E+02 0.  0.
         12    1    1    2    0    0 -0.21458473547E+02  0.36112097011E+02 -0.10912086424E+02  0.43400728883E+02  0.00000000000E+00 0. -1.
         11    1    3    3    0    0 -0.24930170486E+01 -0.52775199104E+00 -0.13056223695E+01  0.28632684473E+01  0.51100000000E-03 0. -1.
        -11    1    3    3    0    0  0.49845524787E+01 -0.54845526122E+01  0.39523634470E+01  0.83992415043E+01  0.51100000000E-03 0.  1.
        -12    1    3    3    0    0  0.18966938116E+02 -0.30099792407E+02  0.82653453468E+01  0.36524761165E+02  0.00000000000E+00 0.  1.
</event>
<event>
 7    1  0.2647566E-010  0.4778728E+02  0.7816164E-02  0.1312668E+00
        -11   -1    0    0    0    0  0.00000000000E+00  0.00000000000E+00  0.45593999997E+02  0.45594000000E+02  0.51100000000E-03 0. -1.
         11   -1    0    0    0    0 -0.00000000000E+00 -0.00000000000E+00 -0.45593999997E+02  0.45594000000E+02  0.51100000000E-03 0.  1.
    9900012    2    1    2    0    0  0.50235243542E+01  0.59659072094E+01 -0.42694203910E+02  0.47787275430E+02  0.20000019993E+02 0.  0.
         12    1    1    2    0    0 -0.50235243542E+01 -0.59659072094E+01  0.42694203910E+02  0.43400724570E+02  0.00000000000E+00 0. -1.
         11    1    3    3    0    0 -0.46491012380E-01  0.54021560277E+00 -0.19630034867E+02  0.19637521825E+02  0.51100000000E-03 0. -1.
        -11    1    3    3    0    0  0.82373367120E+01  0.50372617000E+01 -0.23015000304E+02  0.24958324479E+02  0.51100000000E-03 0.  1.
         12    1    3    3    0    0 -0.31673213454E+01  0.38842990665E+00 -0.49168738927E-01  0.31914291254E+01  0.00000000000E+00 0. -1.
</event>
<event>
 7    1  0.2647566E-010  0.4778727E+02  0.7816164E-02  0.1312668E+00
        -11   -1    0    0    0    0  0.00000000000E+00  0.00000000000E+00  0.45593999997E+02  0.45594000000E+02  0.51100000000E-03 0. -1.
         11   -1    0    0    0    0 -0.00000000000E+00 -0.00000000000E+00 -0.45593999997E+02  0.45594000000E+02  0.51100000000E-03 0.  1.
    9900012    2    1    2    0    0 -0.40542913094E+02 -0.66168143205E+01 -0.14004047548E+02  0.47787269803E+02  0.19999994340E+02 0.  0.
         12    1    1    2    0    0  0.40542913094E+02  0.66168143205E+01  0.14004047548E+02  0.43400730197E+02  0.00000000000E+00 0. -1.
         11    1    3    3    0    0 -0.41436240289E-02  0.28448222506E+01 -0.99010398221E+00  0.30121980287E+01  0.51100000000E-03 0. -1.
        -11    1    3    3    0    0 -0.18918995712E+02 -0.57945370240E+01 -0.11285072896E+02  0.22778453165E+02  0.51100000000E-03 0.  1.
        -12    1    3    3    0    0 -0.21619773758E+02 -0.36670995472E+01 -0.17288706697E+01  0.21996618609E+02  0.00000000000E+00 0.  1.
</event>
<event>
 7    1  0.2647566E-010  0.4778727E+02  0.7816164E-02  0.1312668E+00
        -11   -1    0    0    0    0  0.00000000000E+00  0.00000000000E+00  0.45593999997E+02  0.45594000000E+02  0.51100000000E-03 0. -1.
         11   -1    0    0    0    0 -0.00000000000E+00 -0.00000000000E+00 -0.45593999997E+02  0.45594000000E+02  0.51100000000E-03 0.  1.
    9900012    2    1    2    0    0 -0.26322888534E+02 -0.34506384852E+02 -0.19587385358E+00  0.47787269328E+02  0.19999992173E+02 0.  0.
         12    1    1    2    0    0  0.26322888534E+02  0.34506384852E+02  0.19587385358E+00  0.43400730672E+02  0.00000000000E+00 0. -1.
         11    1    3    3    0    0 -0.21120715912E+01 -0.83512491258E+01  0.39405788045E+01  0.94727171362E+01  0.51100000000E-03 0. -1.
        -11    1    3    3    0    0 -0.15869804073E+02 -0.13415107915E+02  0.38280737791E+01  0.21129835560E+02  0.51100000000E-03 0.  1.
        -12    1    3    3    0    0 -0.83410128701E+01 -0.12740027812E+02 -0.79645264372E+01  0.17184716632E+02  0.00000000000E+00 0.  1.
</event>
<event>
 7    1  0.2647566E-010  0.4778727E+02  0.7816164E-02  0.1312668E+00
        -11   -1    0    0    0    0  0.00000000000E+00  0.00000000000E+00  0.45593999997E+02  0.45594000000E+02  0.51100000000E-03 0.  1.
         11   -1    0    0    0    0 -0.00000000000E+00 -0.00000000000E+00 -0.45593999997E+02  0.45594000000E+02  0.51100000000E-03 0. -1.
    9900012    2    1    2    0    0  0.34733542143E+02 -0.22182406537E+02  0.13606808856E+02  0.47787270089E+02  0.19999995645E+02 0.  0.
         12    1    1    2    0    0 -0.34733542143E+02  0.22182406537E+02 -0.13606808856E+02  0.43400729911E+02  0.00000000000E+00 0. -1.
         11    1    3    3    0    0 -0.56459090005E+00 -0.43119831535E+01  0.26609351147E+01  0.50982877073E+01  0.51100000000E-03 0. -1.
        -11    1    3    3    0    0  0.12316640454E+02 -0.12695090090E+02  0.52977142336E+01  0.18464309379E+02  0.51100000000E-03 0.  1.
         12    1    3    3    0    0  0.22981492589E+02 -0.51753332932E+01  0.56481595073E+01  0.24224673003E+02  0.00000000000E+00 0. -1.
</event>
<event>
 7    1  0.2647566E-010  0.4778726E+02  0.7816164E-02  0.1312668E+00
        -11   -1    0    0    0    0  0.00000000000E+00  0.00000000000E+00  0.45593999997E+02  0.45594000000E+02  0.51100000000E-03 0. -1.
         11   -1    0    0    0    0 -0.00000000000E+00 -0.00000000000E+00 -0.45593999997E+02  0.45594000000E+02  0.51100000000E-03 0.  1.
    9900012    2    1    2    0    0  0.14811093146E+02 -0.27466759728E+02  0.30163431750E+02  0.47787262851E+02  0.19999962643E+02 0.  0.
         12    1    1    2    0    0 -0.14811093146E+02  0.27466759728E+02 -0.30163431750E+02  0.43400737149E+02  0.00000000000E+00 0. -1.
         11    1    3    3    0    0  0.54060748684E+01 -0.10005852647E+02  0.18515606979E+02  0.21729483076E+02  0.51100000000E-03 0. -1.
        -11    1    3    3    0    0  0.74736192846E+01 -0.37035053988E+01  0.83017594241E+01  0.11768183685E+02  0.51100000000E-03 0.  1.
        -12    1    3    3    0    0  0.19313989929E+01 -0.13757401682E+02  0.33460653465E+01  0.14289596090E+02  0.00000000000E+00 0.  1.
</event>
<event>
 7    1  0.2647566E-010  0.4778728E+02  0.7816164E-02  0.1312668E+00
        -11   -1    0    0    0    0  0.00000000000E+00  0.00000000000E+00  0.45593999997E+02  0.45594000000E+02  0.51100000000E-03 0.  1.
         11   -1    0    0    0    0 -0.00000000000E+00 -0.00000000000E+00 -0.45593999997E+02  0.45594000000E+02  0.51100000000E-03 0. -1.
    9900012    2    1    2    0    0  0.21769270058E+02  0.28433586038E+02  0.24520453635E+02  0.47787279035E+02  0.20000036433E+02 0.  0.
         12    1    1    2    0    0 -0.21769270058E+02 -0.28433586038E+02 -0.24520453635E+02  0.43400720965E+02  0.00000000000E+00 0. -1.
         11    1    3    3    0    0  0.31851858528E+01  0.20000523083E+01  0.76322541241E+01  0.85086380479E+01  0.51100000000E-03 0. -1.
        -11    1    3    3    0    0  0.11625240782E+02  0.21339345186E+02  0.18454181311E+02  0.30513450876E+02  0.51100000000E-03 0.  1.
        -12    1    3    3    0    0  0.69588434226E+01  0.50941885434E+01 -0.15659818005E+01  0.87651901118E+01  0.00000000000E+00 0.  1.
</event>
<event>
 7    1  0.2647566E-010  0.4778728E+02  0.7816164E-02  0.1312668E+00
        -11   -1    0    0    0    0  0.00000000000E+00  0.00000000000E+00  0.45593999997E+02  0.45594000000E+02  0.51100000000E-03 0.  1.
         11   -1    0    0    0    0 -0.00000000000E+00 -0.00000000000E+00 -0.45593999997E+02  0.45594000000E+02  0.51100000000E-03 0. -1.
    9900012    2    1    2    0    0  0.28587028565E+02 -0.32655815100E+02  0.47537301461E-01  0.47787277405E+02  0.20000028999E+02 0.  0.
         12    1    1    2    0    0 -0.28587028565E+02  0.32655815100E+02 -0.47537301461E-01  0.43400722595E+02  0.00000000000E+00 0. -1.
         11    1    3    3    0    0  0.12854633827E+00 -0.79856317168E+01 -0.61876339262E-01  0.79869059729E+01  0.51100000000E-03 0. -1.
        -11    1    3    3    0    0 -0.23862404685E+00 -0.21828784593E+01 -0.24035890317E+01  0.32556320889E+01  0.51100000000E-03 0.  1.
        -12    1    3    3    0    0  0.28697106273E+02 -0.22487304924E+02  0.25130026725E+01  0.36544739343E+02  0.00000000000E+00 0.  1.
</event>
<event>
 7    1  0.2647566E-010  0.4778728E+02  0.7816164E-02  0.1312668E+00
        -11   -1    0    0    0    0  0.00000000000E+00  0.00000000000E+00  0.45593999997E+02  0.45594000000E+02  0.51100000000E-03 0.  1.
         11   -1    0    0    0    0 -0.00000000000E+00 -0.00000000000E+00 -0.45593999997E+02  0.45594000000E+02  0.51100000000E-03 0. -1.
    9900012    2    1    2    0    0  0.33344167518E+02  0.64641925546E+01  0.27018579147E+02  0.47787275214E+02  0.20000019012E+02 0.  0.
         12    1    1    2    0    0 -0.33344167518E+02 -0.64641925546E+01 -0.27018579147E+02  0.43400724786E+02  0.00000000000E+00 0. -1.
         11    1    3    3    0    0  0.23573042811E+02 -0.30557591800E+01  0.18367268381E+02  0.30039683081E+02  0.51100000000E-03 0. -1.
        -11    1    3    3    0    0  0.10029888803E+02  0.71967467211E+01  0.48054397513E+01  0.13247040584E+02  0.51100000000E-03 0.  1.
        -12    1    3    3    0    0 -0.25876409643E+00  0.23232050135E+01  0.38458710145E+01  0.45005515498E+01  0.00000000000E+00 0.  1.
</event>
<event>
 7    1  0.2647566E-010  0.4778727E+02  0.7816164E-02  0.1312668E+00
        -11   -1    0    0    0    0  0.00000000000E+00  0.00000000000E+00  0.45593999997E+02  0.45594000000E+02  0.51100000000E-03 0.  1.
         11   -1    0    0    0    0 -0.00000000000E+00 -0.00000000000E+00 -0.45593999997E+02  0.45594000000E+02  0.51100000000E-03 0. -1.
    9900012    2    1    2    0    0  0.20737257544E+02  0.76660308284E+01  0.37347310118E+02  0.47787268990E+02  0.19999990635E+02 0.  0.
         12    1    1    2    0    0 -0.20737257544E+02 -0.76660308284E+01 -0.37347310118E+02  0.43400731010E+02  0.00000000000E+00 0. -1.
         11    1    3    3    0    0 -0.61520784206E+00 -0.55467282762E+00 -0.24193254092E+00  0.86294510261E+00  0.51100000000E-03 0. -1.
        -11    1    3    3    0    0  0.20642691425E+02  0.83693947942E+00  0.28221351271E+02  0.34975217580E+02  0.51100000000E-03 0.  1.
        -12    1    3    3    0    0  0.70977396072E+00  0.73837641766E+01  0.93678913881E+01  0.11949106308E+02  0.00000000000E+00 0.  1.
</event>
<event>
 7    1  0.2647566E-010  0.4778727E+02  0.7816164E-02  0.1312668E+00
        -11   -1    0    0    0    0  0.00000000000E+00  0.00000000000E+00  0.45593999997E+02  0.45594000000E+02  0.51100000000E-03 0. -1.
         11   -1    0    0    0    0 -0.00000000000E+00 -0.00000000000E+00 -0.45593999997E+02  0.45594000000E+02  0.51100000000E-03 0.  1.
    9900012    2    1    2    0    0 -0.10073602594E+02 -0.31841969498E+02 -0.27717055763E+02  0.47787266470E+02  0.19999979143E+02 0.  0.
         12    1    1    2    0    0  0.10073602594E+02  0.31841969498E+02  0.27717055763E+02  0.43400733530E+02  0.00000000000E+00 0. -1.
         11    1    3    3    0    0 -0.55630970418E+01 -0.72364453288E+01 -0.18564098265E+01  0.93145288339E+01  0.51100000000E-03 0. -1.
        -11    1    3    3    0    0  0.40866300996E+01 -0.75514797102E+01 -0.40853241270E+01  0.95086941726E+01  0.51100000000E-03 0.  1.
        -12    1    3    3    0    0 -0.85971356514E+01 -0.17054044459E+02 -0.21775321810E+02  0.28964043464E+02  0.00000000000E+00 0.  1.
</event>
<event>
 7    1  0.2647566E-010  0.4778727E+02  0.7816164E-02  0.1312668E+00
        -11   -1    0    0    0    0  0.00000000000E+00  0.00000000000E+00  0.45593999997E+02  0.45594000000E+02  0.51100000000E-03 0.  1.
         11   -1    0    0    0    0 -0.00000000000E+00 -0.00000000000E+00 -0.45593999997E+02  0.45594000000E+02  0.51100000000E-03 0. -1.
    9900012    2    1    2    0    0  0.40377975168E+01 -0.73897473657E+01  0.42575942485E+02  0.47787273584E+02  0.20000011581E+02 0.  0.
         12    1    1    2    0    0 -0.40377975168E+01  0.73897473657E+01 -0.42575942485E+02  0.43400726416E+02  0.00000000000E+00 0. -1.
         11    1    3    3    0    0  0.25306021145E+01 -0.74831967670E+01  0.29922096719E+02  0.30947278608E+02  0.51100000000E-03 0. -1.
        -11    1    3    3    0    0 -0.35189705928E+01 -0.26420006786E+01  0.90887822193E+01  0.10097984161E+02  0.51100000000E-03 0.  1.
         12    1    3    3    0    0  0.50261659951E+01  0.27354500800E+01  0.35650635467E+01  0.67420108159E+01  0.00000000000E+00 0. -1.
</event>
<event>
 7    1  0.2647566E-010  0.4778727E+02  0.7816164E-02  0.1312668E+00
        -11   -1    0    0    0    0  0.00000000000E+00  0.00000000000E+00  0.45593999997E+02  0.45594000000E+02  0.51100000000E-03 0.  1.
         11   -1    0    0    0    0 -0.00000000000E+00 -0.00000000000E+00 -0.45593999997E+02  0.45594000000E+02  0.51100000000E-03 0. -1.
    9900012    2    1    2    0    0  0.23046769476E+02 -0.29851818785E+02  0.21478795172E+02  0.47787270627E+02  0.19999998097E+02 0.  0.
         12    1    1    2    0    0 -0.23046769476E+02  0.29851818785E+02 -0.21478795172E+02  0.43400729373E+02  0.00000000000E+00 0. -1.
         11    1    3    3    0    0  0.19792913251E+01 -0.82783157632E+00  0.11332838045E+01  0.24263618261E+01  0.51100000000E-03 0. -1.
        -11    1    3    3    0    0  0.19234982987E+02 -0.12357112570E+02  0.16398571448E+02  0.28135314951E+02  0.51100000000E-03 0.  1.
         12    1    3    3    0    0  0.18324951634E+01 -0.16666874639E+02  0.39469399192E+01  0.17225593850E+02  0.00000000000E+00 0. -1.
</event>
<event>
 7    1  0.2647566E-010  0.4778727E+02  0.7816164E-02  0.1312668E+00
        -11   -1    0    0    0    0  0.00000000000E+00  0.00000000000E+00  0.45593999997E+02  0.45594000000E+02  0.51100000000E-03 0. -1.
         11   -1    0    0    0    0 -0.00000000000E+00 -0.00000000000E+00 -0.45593999997E+02  0.45594000000E+02  0.51100000000E-03 0.  1.
    9900012    2    1    2    0    0  0.17480568357E+02 -0.38702783596E+02 -0.89525307129E+01  0.47787268044E+02  0.19999986320E+02 0.  0.
         12    1    1    2    0    0 -0.17480568357E+02  0.38702783596E+02  0.89525307129E+01  0.43400731956E+02  0.00000000000E+00 0. -1.
         11    1    3    3    0    0  0.13781171007E+02 -0.21024179455E+02 -0.39373151302E+01  0.25444827505E+02  0.51100000000E-03 0. -1.
        -11    1    3    3    0    0  0.43311397255E+01 -0.76492457537E+00 -0.29397740009E+01  0.52901939818E+01  0.51100000000E-03 0.  1.
        -12    1    3    3    0    0 -0.63174237536E+00 -0.16913679565E+02 -0.20754415817E+01  0.17052246557E+02  0.00000000000E+00 0.  1.
</event>
<event>
 7    1  0.2647566E-010  0.4778727E+02  0.7816164E-02  0.1312668E+00
        -11   -1    0    0    0    0  0.00000000000E+00  0.00000000000E+00  0.45593999997E+02  0.45594000000E+02  0.51100000000E-03 0.  1.
         11   -1    0    0    0    0 -0.00000000000E+00 -0.00000000000E+00 -0.45593999997E+02  0.45594000000E+02  0.51100000000E-03 0. -1.
    9900012    2    1    2    0    0 -0.74099961760E+01 -0.39337664416E+02  0.16770905433E+02  0.47787272425E+02  0.20000006294E+02 0.  0.
         12    1    1    2    0    0  0.74099961760E+01  0.39337664416E+02 -0.16770905433E+02  0.43400727575E+02  0.00000000000E+00 0. -1.
         11    1    3    3    0    0  0.35996851908E+01 -0.12310294152E+02  0.31187663276E+01  0.13199537085E+02  0.51100000000E-03 0. -1.
        -11    1    3    3    0    0  0.14985217307E+01 -0.10807033780E+02  0.73571242086E+01  0.13159210591E+02  0.51100000000E-03 0.  1.
        -12    1    3    3    0    0 -0.12508203097E+02 -0.16220336483E+02  0.62950148970E+01  0.21428524749E+02  0.00000000000E+00 0.  1.
</event>
<event>
 7    1  0.2647566E-010  0.4778727E+02  0.7816164E-02  0.1312668E+00
        -11   -1    0    0    0    0  0.00000000000E+00  0.00000000000E+00  0.45593999997E+02  0.45594000000E+02  0.51100000000E-03 0.  1.
         11   -1    0    0    0    0 -0.00000000000E+00 -0.00000000000E+00 -0.45593999997E+02  0.45594000000E+02  0.51100000000E-03 0. -1.
    9900012    2    1    2    0    0  0.17129405349E+02 -0.15512967783E+02  0.36736283981E+02  0.47787271230E+02  0.20000000846E+02 0.  0.
         12    1    1    2    0    0 -0.17129405349E+02  0.15512967783E+02 -0.36736283981E+02  0.43400728770E+02  0.00000000000E+00 0. -1.
         11    1    3    3    0    0  0.44610509420E+00 -0.74362517227E+01  0.73185211476E+01  0.10443064756E+02  0.51100000000E-03 0. -1.
        -11    1    3    3    0    0  0.79804556821E+00  0.15397217524E+01  0.11190259368E+02  0.11323847614E+02  0.51100000000E-03 0.  1.
         12    1    3    3    0    0  0.15885254686E+02 -0.96164378128E+01  0.18227503466E+02  0.26020358861E+02  0.00000000000E+00 0. -1.
</event>
<event>
 7    1  0.2647566E-010  0.4778727E+02  0.7816164E-02  0.1312668E+00
        -11   -1    0    0    0    0  0.00000000000E+00  0.00000000000E+00  0.45593999997E+02  0.45594000000E+02  0.51100000000E-03 0.  1.
         11   -1    0    0    0    0 -0.00000000000E+00 -0.00000000000E+00 -0.45593999997E+02  0.45594000000E+02  0.51100000000E-03 0. -1.
    9900012    2    1    2    0    0  0.16405916633E+02 -0.13762072020E+01  0.40156882244E+02  0.47787271453E+02  0.20000001864E+02 0.  0.
         12    1    1    2    0    0 -0.16405916633E+02  0.13762072020E+01 -0.40156882244E+02  0.43400728547E+02  0.00000000000E+00 0. -1.
         11    1    3    3    0    0  0.53284553748E+01 -0.40096413644E+01  0.89406906203E+01  0.11153726264E+02  0.51100000000E-03 0. -1.
        -11    1    3    3    0    0  0.74067597796E+01 -0.27541763042E+01  0.28492827556E+02  0.29568341177E+02  0.51100000000E-03 0.  1.
         12    1    3    3    0    0  0.36707014785E+01  0.53876104666E+01  0.27233640674E+01  0.70652040118E+01  0.00000000000E+00 0. -1.
</event>
<event>
 7    1  0.2647566E-010  0.4778727E+02  0.7816164E-02  0.1312668E+00
        -11   -1    0    0    0    0  0.00000000000E+00  0.00000000000E+00  0.45593999997E+02  0.45594000000E+02  0.51100000000E-03 0. -1.
         11   -1    0    0    0    0 -0.00000000000E+00 -0.00000000000E+00 -0.45593999997E+02  0.45594000000E+02  0.51100000000E-03 0.  1.
    9900012    2    1    2    0    0  0.34236763031E+01 -0.42350099393E+02 -0.88527248866E+01  0.47787271712E+02  0.20000003042E+02 0.  0.
         12    1    1    2    0    0 -0.34236763031E+01  0.42350099393E+02  0.88527248866E+01  0.43400728288E+02  0.00000000000E+00 0. -1.
         11    1    3    3    0    0  0.59872071714E+01 -0.35031844140E+02 -0.17431725843E+01  0.35582515432E+02  0.51100000000E-03 0.  1.
        -11    1    3    3    0    0  0.12315734039E+01 -0.43814689785E+01 -0.55097106372E+01  0.71463945473E+01  0.51100000000E-03 0. -1.
        -12    1    3    3    0    0 -0.37951042722E+01 -0.29367862746E+01 -0.15998416651E+01  0.50583617321E+01  0.00000000000E+00 0.  1.
</event>
<event>
 7    1  0.2647566E-010  0.4778728E+02  0.7816164E-02  0.1312668E+00
        -11   -1    0    0    0    0  0.00000000000E+00  0.00000000000E+00  0.45593999997E+02  0.45594000000E+02  0.51100000000E-03 0.  1.
         11   -1    0    0    0    0 -0.00000000000E+00 -0.00000000000E+00 -0.45593999997E+02  0.45594000000E+02  0.51100000000E-03 0. -1.
    9900012    2    1    2    0    0  0.99100128025E+01 -0.98528906782E+01  0.41089348168E+02  0.47787281788E+02  0.20000048984E+02 0.  0.
         12    1    1    2    0    0 -0.99100128025E+01  0.98528906782E+01 -0.41089348168E+02  0.43400718212E+02  0.00000000000E+00 0. -1.
         11    1    3    3    0    0 -0.21066411593E+00 -0.35535598703E+00 -0.14220686721E+01  0.14808567846E+01  0.51100000000E-03 0. -1.
        -11    1    3    3    0    0  0.19793522867E+01 -0.30466456086E+01  0.13844543726E+01  0.38880070872E+01  0.51100000000E-03 0.  1.
        -12    1    3    3    0    0  0.81413246318E+01 -0.64508890826E+01  0.41126962467E+02  0.42418417916E+02  0.00000000000E+00 0.  1.
</event>
<event>
 7    1  0.2647566E-010  0.4778726E+02  0.7816164E-02  0.1312668E+00
        -11   -1    0    0    0    0  0.00000000000E+00  0.00000000000E+00  0.45593999997E+02  0.45594000000E+02  0.51100000000E-03 0.  1.
         11   -1    0    0    0    0 -0.00000000000E+00 -0.00000000000E+00 -0.45593999997E+02  0.45594000000E+02  0.51100000000E-03 0. -1.
    9900012    2    1    2    0    0 -0.35722931199E+02 -0.28401745601E+01  0.24483257750E+02  0.47787259050E+02  0.19999945312E+02 0.  0.
         12    1    1    2    0    0  0.35722931199E+02  0.28401745601E+01 -0.24483257750E+02  0.43400740950E+02  0.00000000000E+00 0. -1.
         11    1    3    3    0    0 -0.27286498506E+01 -0.41156831175E+01  0.10492078110E+02  0.11596037291E+02  0.51100000000E-03 0. -1.
        -11    1    3    3    0    0 -0.99045129698E+01 -0.18250455618E+01  0.38355474551E+01  0.10776900900E+02  0.51100000000E-03 0.  1.
         12    1    3    3    0    0 -0.23089768379E+02  0.31005541192E+01  0.10155632184E+02  0.25414320858E+02  0.00000000000E+00 0. -1.
</event>
<event>
 7    1  0.2647566E-010  0.4778727E+02  0.7816164E-02  0.1312668E+00
        -11   -1    0    0    0    0  0.00000000000E+00  0.00000000000E+00  0.45593999997E+02  0.45594000000E+02  0.51100000000E-03 0. -1.
         11   -1    0    0    0    0 -0.00000000000E+00 -0.00000000000E+00 -0.45593999997E+02  0.45594000000E+02  0.51100000000E-03 0.  1.
    9900012    2    1    2    0    0 -0.11773857670E+01 -0.42710525977E+02  0.76189255097E+01  0.47787270831E+02  0.19999999027E+02 0.  0.
         12    1    1    2    0    0  0.11773857670E+01  0.42710525977E+02 -0.76189255097E+01  0.43400729169E+02  0.00000000000E+00 0. -1.
         11    1    3    3    0    0 -0.80336514045E+01 -0.14519878904E+02  0.22918068995E+01  0.16751681032E+02  0.51100000000E-03 0. -1.
        -11    1    3    3    0    0  0.32058420657E+00 -0.63657981201E+01  0.52426985213E+01  0.82530023619E+01  0.51100000000E-03 0.  1.
        -12    1    3    3    0    0  0.65356814309E+01 -0.21824848953E+02  0.84420088924E-01  0.22782587437E+02  0.00000000000E+00 0.  1.
</event>
<event>
 7    1  0.2647566E-010  0.4778727E+02  0.7816164E-02  0.1312668E+00
        -11   -1    0    0    0    0  0.00000000000E+00  0.00000000000E+00  0.45593999997E+02  0.45594000000E+02  0.51100000000E-03 0. -1.
         11   -1    0    0    0    0 -0.00000000000E+00 -0.00000000000E+00 -0.45593999997E+02  0.45594000000E+02  0.51100000000E-03 0.  1.
    9900012    2    1    2    0    0 -0.62757680358E+01  0.36846836981E+02 -0.22057849809E+02  0.47787269613E+02  0.19999993473E+02 0.  0.
         12    1    1    2    0    0  0.62757680358E+01 -0.36846836981E+02  0.22057849809E+02  0.43400730387E+02  0.00000000000E+00 0. -1.
         11    1    3    3    0    0 -0.42004944352E+01  0.93964507429E+01 -0.78076372371E+01  0.12918848229E+02  0.51100000000E-03 0.  1.
        -11    1    3    3    0    0 -0.15354328606E+01  0.27883412812E+02 -0.16553630691E+02  0.32463286239E+02  0.51100000000E-03 0. -1.
         12    1    3    3    0    0 -0.53984074004E+00 -0.43302657457E+00  0.23034181184E+01  0.24051351453E+01  0.00000000000E+00 0. -1.
</event>
<event>
 7    1  0.2647566E-010  0.4778727E+02  0.7816164E-02  0.1312668E+00
        -11   -1    0    0    0    0  0.00000000000E+00  0.00000000000E+00  0.45593999997E+02  0.45594000000E+02  0.51100000000E-03 0. -1.
         11   -1    0    0    0    0 -0.00000000000E+00 -0.00000000000E+00 -0.45593999997E+02  0.45594000000E+02  0.51100000000E-03 0.  1.
    9900012    2    1    2    0    0 -0.29862187132E+02  0.12308687690E+02 -0.28989130685E+02  0.47787266010E+02  0.19999977047E+02 0.  0.
         12    1    1    2    0    0  0.29862187132E+02 -0.12308687690E+02  0.28989130685E+02  0.43400733990E+02  0.00000000000E+00 0. -1.
         11    1    3    3    0    0 -0.13235225408E+02  0.33449262637E+00 -0.93954845096E+01  0.16234475857E+02  0.51100000000E-03 0. -1.
        -11    1    3    3    0    0 -0.13312151198E+02  0.24846668941E+01 -0.15799052290E+02  0.20808579784E+02  0.51100000000E-03 0.  1.
        -12    1    3    3    0    0 -0.33148105259E+01  0.94895281697E+01 -0.37945938850E+01  0.10744210369E+02  0.00000000000E+00 0.  1.
</event>
<event>
 7    1  0.2647566E-010  0.4778727E+02  0.7816164E-02  0.1312668E+00
        -11   -1    0    0    0    0  0.00000000000E+00  0.00000000000E+00  0.45593999997E+02  0.45594000000E+02  0.51100000000E-03 0.  1.
         11   -1    0    0    0    0 -0.00000000000E+00 -0.00000000000E+00 -0.45593999997E+02  0.45594000000E+02  0.51100000000E-03 0. -1.
    9900012    2    1    2    0    0  0.15538064570E+02 -0.15542683221E+02  0.37424816489E+02  0.47787270265E+02  0.19999996445E+02 0.  0.
         12    1    1    2    0    0 -0.15538064570E+02  0.15542683221E+02 -0.37424816489E+02  0.43400729735E+02  0.00000000000E+00 0. -1.
         11    1    3    3    0    0  0.50389950709E+01  0.28839501371E+01  0.62668499170E+01  0.85429531113E+01  0.51100000000E-03 0. -1.
        -11    1    3    3    0    0  0.48859727936E+01 -0.30610485649E+01  0.15748639005E+02  0.16770878904E+02  0.51100000000E-03 0.  1.
        -12    1    3    3    0    0  0.56130967054E+01 -0.15365584793E+02  0.15409327568E+02  0.22473438249E+02  0.00000000000E+00 0.  1.
</event>
<event>
 7    1  0.2647566E-010  0.4778727E+02  0.7816164E-02  0.1312668E+00
        -11   -1    0    0    0    0  0.00000000000E+00  0.00000000000E+00  0.45593999997E+02  0.45594000000E+02  0.51100000000E-03 0.  1.
         11   -1    0    0    0    0 -0.00000000000E+00 -0.00000000000E+00 -0.45593999997E+02  0.45594000000E+02  0.51100000000E-03 0. -1.
    9900012    2    1    2    0    0 -0.18621001994E+02  0.44611301774E+01  0.38948432388E+02  0.47787265177E+02  0.19999973246E+02 0.  0.
         12    1    1    2    0    0  0.18621001994E+02 -0.44611301774E+01 -0.38948432388E+02  0.43400734823E+02  0.00000000000E+00 0. -1.
         11    1    3    3    0    0 -0.30430929555E+01  0.39289125567E+01  0.17334565667E+02  0.18032857116E+02  0.51100000000E-03 0. -1.
        -11    1    3    3    0    0 -0.30879363731E+01  0.55655555172E+01  0.10572202802E+02  0.12340268700E+02  0.51100000000E-03 0.  1.
        -12    1    3    3    0    0 -0.12489972666E+02 -0.50333378965E+01  0.11041663919E+02  0.17414139361E+02  0.00000000000E+00 0.  1.
</event>
<event>
 7    1  0.2647566E-010  0.4778727E+02  0.7816164E-02  0.1312668E+00
        -11   -1    0    0    0    0  0.00000000000E+00  0.00000000000E+00  0.45593999997E+02  0.45594000000E+02  0.51100000000E-03 0.  1.
         11   -1    0    0    0    0 -0.00000000000E+00 -0.00000000000E+00 -0.45593999997E+02  0.45594000000E+02  0.51100000000E-03 0. -1.
    9900012    2    1    2    0    0 -0.15342561200E+02 -0.40567582389E+02  0.15812353279E+01  0.47787271547E+02  0.20000002293E+02 0.  0.
         12    1    1    2    0    0  0.15342561200E+02  0.40567582389E+02 -0.15812353279E+01  0.43400728453E+02  0.00000000000E+00 0. -1.
         11    1    3    3    0    0  0.27499775211E+00 -0.11175766153E+02  0.12658021797E+01  0.11250583464E+02  0.51100000000E-03 0.  1.
        -11    1    3    3    0    0 -0.11494466642E+02 -0.29718076845E+02  0.23054511902E+01  0.31946861508E+02  0.51100000000E-03 0. -1.
         12    1    3    3    0    0 -0.41230923103E+01  0.32626060883E+00 -0.19900180419E+01  0.45898265753E+01  0.00000000000E+00 0. -1.
</event>
<event>
 7    1  0.2647566E-010  0.4778727E+02  0.7816164E-02  0.1312668E+00
        -11   -1    0    0    0    0  0.00000000000E+00  0.00000000000E+00  0.45593999997E+02  0.45594000000E+02  0.51100000000E-03 0.  1.
         11   -1    0    0    0    0 -0.00000000000E+00 -0.00000000000E+00 -0.45593999997E+02  0.45594000000E+02  0.51100000000E-03 0. -1.
    9900012    2    1    2    0    0 -0.19064543003E+02  0.26989019139E+02  0.28138218253E+02  0.47787270968E+02  0.19999999652E+02 0.  0.
         12    1    1    2    0    0  0.19064543003E+02 -0.26989019139E+02 -0.28138218253E+02  0.43400729032E+02  0.00000000000E+00 0. -1.
         11    1    3    3    0    0 -0.15644687104E+00 -0.32716446067E+00  0.26199177727E+01  0.26448972768E+01  0.51100000000E-03 0. -1.
        -11    1    3    3    0    0 -0.18606221374E+02  0.29581203057E+02  0.23746079770E+02  0.42250625473E+02  0.51100000000E-03 0.  1.
        -12    1    3    3    0    0 -0.30187475837E+00 -0.22650194576E+01  0.17722207104E+01  0.28917482185E+01  0.00000000000E+00 0.  1.
</event>
<event>
 7    1  0.2647566E-010  0.4778727E+02  0.7816164E-02  0.1312668E+00
        -11   -1    0    0    0    0  0.00000000000E+00  0.00000000000E+00  0.45593999997E+02  0.45594000000E+02  0.51100000000E-03 0.  1.
         11   -1    0    0    0    0 -0.00000000000E+00 -0.00000000000E+00 -0.45593999997E+02  0.45594000000E+02  0.51100000000E-03 0. -1.
    9900012    2    1    2    0    0 -0.20825608118E+02 -0.16395075469E+02  0.34367410346E+02  0.47787270202E+02  0.19999996157E+02 0.  0.
         12    1    1    2    0    0  0.20825608118E+02  0.16395075469E+02 -0.34367410346E+02  0.43400729798E+02  0.00000000000E+00 0. -1.
         11    1    3    3    0    0 -0.75043681814E+01 -0.25742654395E+01  0.61864821854E+01  0.10060563923E+02  0.51100000000E-03 0. -1.
        -11    1    3    3    0    0 -0.11528293260E+02 -0.92505383986E+01  0.77012925369E+01  0.16666850727E+02  0.51100000000E-03 0.  1.
         12    1    3    3    0    0 -0.17929466762E+01 -0.45702716314E+01  0.20479635624E+02  0.21059855552E+02  0.00000000000E+00 0. -1.
</event>
<event>
 7    1  0.2647566E-010  0.4778728E+02  0.7816164E-02  0.1312668E+00
        -11   -1    0    0    0    0  0.00000000000E+00  0.00000000000E+00  0.45593999997E+02  0.45594000000E+02  0.51100000000E-03 0. -1.
         11   -1    0    0    0    0 -0.00000000000E+00 -0.00000000000E+00 -0.45593999997E+02  0.45594000000E+02  0.51100000000E-03 0.  1.
    9900012    2    1    2    0    0  0.11149415360E+01 -0.74590676347E+00 -0.43379986900E+02  0.47787277253E+02  0.20000028308E+02 0.  0.
         12    1    1    2    0    0 -0.11149415360E+01  0.74590676347E+00  0.43379986900E+02  0.43400722747E+02  0.00000000000E+00 0. -1.
         11    1    3    3    0    0 -0.27858148479E+01 -0.32952852878E+01 -0.92651894232E+01  0.10220734064E+02  0.51100000000E-03 0. -1.
        -11    1    3    3    0    0 -0.28329277414E+01 -0.32420016465E+01 -0.31004728697E+01  0.53055618497E+01  0.51100000000E-03 0.  1.
        -12    1    3    3    0    0  0.67336841254E+01  0.57913801708E+01 -0.31014324607E+02  0.32260981340E+02  0.00000000000E+00 0.  1.
</event>
<event>
 7    1  0.2647566E-010  0.4778727E+02  0.7816164E-02  0.1312668E+00
        -11   -1    0    0    0    0  0.00000000000E+00  0.00000000000E+00  0.45593999997E+02  0.45594000000E+02  0.51100000000E-03 0.  1.
         11   -1    0    0    0    0 -0.00000000000E+00 -0.00000000000E+00 -0.45593999997E+02  0.45594000000E+02  0.51100000000E-03 0. -1.
    9900012    2    1    2    0    0  0.40480441883E+02  0.42833431160E+01  0.15053573699E+02  0.47787270923E+02  0.19999999447E+02 0.  0.
         12    1    1    2    0    0 -0.40480441883E+02 -0.42833431160E+01 -0.15053573699E+02  0.43400729077E+02  0.00000000000E+00 0. -1.
         11    1    3    3    0    0  0.35728753920E+02  0.57164154021E+00  0.10325517319E+02  0.37195254252E+02  0.51100000000E-03 0. -1.
        -11    1    3    3    0    0  0.26846631132E+01  0.52846388273E+01  0.94384466749E+00  0.60021385009E+01  0.51100000000E-03 0.  1.
        -12    1    3    3    0    0  0.20670248502E+01 -0.15729372516E+01  0.37842117131E+01  0.45898781703E+01  0.00000000000E+00 0.  1.
</event>
<event>
 7    1  0.2647566E-010  0.4778726E+02  0.7816164E-02  0.1312668E+00
        -11   -1    0    0    0    0  0.00000000000E+00  0.00000000000E+00  0.45593999997E+02  0.45594000000E+02  0.51100000000E-03 0.  1.
         11   -1    0    0    0    0 -0.00000000000E+00 -0.00000000000E+00 -0.45593999997E+02  0.45594000000E+02  0.51100000000E-03 0. -1.
    9900012    2    1    2    0    0 -0.62991132539E+01  0.43964707381E+01  0.42715530027E+02  0.47787259358E+02  0.19999946718E+02 0.  0.
         12    1    1    2    0    0  0.62991132539E+01 -0.43964707381E+01 -0.42715530027E+02  0.43400740642E+02  0.00000000000E+00 0. -1.
         11    1    3    3    0    0  0.32441461905E+00 -0.13727752292E+01  0.60769786254E+00  0.15359211009E+01  0.51100000000E-03 0. -1.
        -11    1    3    3    0    0 -0.56336876984E+01  0.76344930283E+01  0.42944390620E+02  0.43980047827E+02  0.51100000000E-03 0.  1.
        -12    1    3    3    0    0 -0.98984017450E+00 -0.18652470611E+01 -0.83655845531E+00  0.22712904303E+01  0.00000000000E+00 0.  1.
</event>
<event>
 7    1  0.2647566E-010  0.4778727E+02  0.7816164E-02  0.1312668E+00
        -11   -1    0    0    0    0  0.00000000000E+00  0.00000000000E+00  0.45593999997E+02  0.45594000000E+02  0.51100000000E-03 0.  1.
         11   -1    0    0    0    0 -0.00000000000E+00 -0.00000000000E+00 -0.45593999997E+02  0.45594000000E+02  0.51100000000E-03 0. -1.
    9900012    2    1    2    0    0 -0.11679839436E+02 -0.32789604702E+02  0.25923857999E+02  0.47787271443E+02  0.20000001815E+02 0.  0.
         12    1    1    2    0    0  0.11679839436E+02  0.32789604702E+02 -0.25923857999E+02  0.43400728557E+02  0.00000000000E+00 0. -1.
         11    1    3    3    0    0 -0.31926071104E+01 -0.66332218323E+01  0.23888151922E+01  0.77394321705E+01  0.51100000000E-03 0. -1.
        -11    1    3    3    0    0  0.49550849810E+01 -0.53801923337E+01  0.30555987317E+01  0.79269174706E+01  0.51100000000E-03 0.  1.
        -12    1    3    3    0    0 -0.13442317306E+02 -0.20776190536E+02  0.20479444075E+02  0.32120921802E+02  0.00000000000E+00 0.  1.
</event>
<event>
 7    1  0.2647566E-010  0.4778727E+02  0.7816164E-02  0.1312668E+00
        -11   -1    0    0    0    0  0.00000000000E+00  0.00000000000E+00  0.45593999997E+02  0.45594000000E+02  0.51100000000E-03 0.  1.
         11   -1    0    0    0    0 -0.00000000000E+00 -0.00000000000E+00 -0.45593999997E+02  0.45594000000E+02  0.51100000000E-03 0. -1.
    9900012    2    1    2    0    0 -0.10798083818E+02  0.37337890421E+02  0.19310786082E+02  0.47787272652E+02  0.20000007328E+02 0.  0.
         12    1    1    2    0    0  0.10798083818E+02 -0.37337890421E+02 -0.19310786082E+02  0.43400727348E+02  0.00000000000E+00 0. -1.
         11    1    3    3    0    0 -0.73749460419E+01  0.15991856490E+02  0.27794183104E+01  0.17828473561E+02  0.51100000000E-03 0. -1.
        -11    1    3    3    0    0 -0.79118142318E+01  0.15374203930E+02  0.96464593614E+01  0.19799422451E+02  0.51100000000E-03 0.  1.
         12    1    3    3    0    0  0.44886764557E+01  0.59718300017E+01  0.68849084105E+01  0.10159376640E+02  0.00000000000E+00 0. -1.
</event>
<event>
 7    1  0.2647566E-010  0.4778727E+02  0.7816164E-02  0.1312668E+00
        -11   -1    0    0    0    0  0.00000000000E+00  0.00000000000E+00  0.45593999997E+02  0.45594000000E+02  0.51100000000E-03 0.  1.
         11   -1    0    0    0    0 -0.00000000000E+00 -0.00000000000E+00 -0.45593999997E+02  0.45594000000E+02  0.51100000000E-03 0. -1.
    9900012    2    1    2    0    0 -0.31191123185E+02 -0.12565149225E+02  0.27438191923E+02  0.47787268248E+02  0.19999987251E+02 0.  0.
         12    1    1    2    0    0  0.31191123185E+02  0.12565149225E+02 -0.27438191923E+02  0.43400731752E+02  0.00000000000E+00 0. -1.
         11    1    3    3    0    0 -0.12674483146E+02 -0.24902718022E+01  0.17136853158E+02  0.21459629845E+02  0.51100000000E-03 0. -1.
        -11    1    3    3    0    0 -0.41985286662E+01  0.10576483726E+01  0.64789178785E+01  0.77924733030E+01  0.51100000000E-03 0.  1.
        -12    1    3    3    0    0 -0.14318111372E+02 -0.11132525795E+02  0.38224208872E+01  0.18535165100E+02  0.00000000000E+00 0.  1.
</event>
<event>
 7    1  0.2647566E-010  0.4778726E+02  0.7816164E-02  0.1312668E+00
        -11   -1    0    0    0    0  0.00000000000E+00  0.00000000000E+00  0.45593999997E+02  0.45594000000E+02  0.51100000000E-03 0.  1.
         11   -1    0    0    0    0 -0.00000000000E+00 -0.00000000000E+00 -0.45593999997E+02  0.45594000000E+02  0.51100000000E-03 0. -1.
    9900012    2    1    2    0    0 -0.41851409078E+02  0.13382302336E+01  0.11414588564E+02  0.47787261135E+02  0.19999954817E+02 0.  0.
         12    1    1    2    0    0  0.41851409078E+02 -0.13382302336E+01 -0.11414588564E+02  0.43400738865E+02  0.00000000000E+00 0. -1.
         11    1    3    3    0    0 -0.70763282278E+01 -0.48261024514E+01 -0.24132598896E+01  0.88988487804E+01  0.51100000000E-03 0. -1.
        -11    1    3    3    0    0 -0.75736968879E+00  0.70918651130E+00  0.23593158387E+01  0.25773874061E+01  0.51100000000E-03 0.  1.
        -12    1    3    3    0    0 -0.34017711161E+02  0.54551461737E+01  0.11468532615E+02  0.36311024948E+02  0.00000000000E+00 0.  1.
</event>
<event>
 7    1  0.2647566E-010  0.4778727E+02  0.7816164E-02  0.1312668E+00
        -11   -1    0    0    0    0  0.00000000000E+00  0.00000000000E+00  0.45593999997E+02  0.45594000000E+02  0.51100000000E-03 0.  1.
         11   -1    0    0    0    0 -0.00000000000E+00 -0.00000000000E+00 -0.45593999997E+02  0.45594000000E+02  0.51100000000E-03 0. -1.
    9900012    2    1    2    0    0  0.10745668503E+02  0.16789175664E+02  0.38552268492E+02  0.47787271700E+02  0.20000002990E+02 0.  0.
         12    1    1    2    0    0 -0.10745668503E+02 -0.16789175664E+02 -0.38552268492E+02  0.43400728300E+02  0.00000000000E+00 0. -1.
         11    1    3    3    0    0  0.24688567603E+01  0.38715002169E+01  0.84013952966E+01  0.95742994952E+01  0.51100000000E-03 0. -1.
        -11    1    3    3    0    0  0.44367707289E+01  0.85159759937E+01  0.30868675680E+02  0.32327726801E+02  0.51100000000E-03 0.  1.
         12    1    3    3    0    0  0.38400410135E+01  0.44016994532E+01 -0.71780248396E+00  0.58852454042E+01  0.00000000000E+00 0. -1.
</event>
<event>
 7    1  0.2647566E-010  0.4778727E+02  0.7816164E-02  0.1312668E+00
        -11   -1    0    0    0    0  0.00000000000E+00  0.00000000000E+00  0.45593999997E+02  0.45594000000E+02  0.51100000000E-03 0.  1.
         11   -1    0    0    0    0 -0.00000000000E+00 -0.00000000000E+00 -0.45593999997E+02  0.45594000000E+02  0.51100000000E-03 0. -1.
    9900012    2    1    2    0    0 -0.17358544698E+02  0.38488413828E+02  0.10047212258E+02  0.47787267895E+02  0.19999985641E+02 0.  0.
         12    1    1    2    0    0  0.17358544698E+02 -0.38488413828E+02 -0.10047212258E+02  0.43400732105E+02  0.00000000000E+00 0. -1.
         11    1    3    3    0    0 -0.10645604525E+02  0.14694040573E+02  0.40891669597E+01  0.18600134697E+02  0.51100000000E-03 0. -1.
        -11    1    3    3    0    0 -0.11187561350E+02  0.18186734386E+02  0.37347936968E+01  0.21676427769E+02  0.51100000000E-03 0.  1.
         12    1    3    3    0    0  0.44746211765E+01  0.56076388687E+01  0.22232516018E+01  0.75107054289E+01  0.00000000000E+00 0. -1.
</event>
<event>
 7    1  0.2647566E-010  0.4778727E+02  0.7816164E-02  0.1312668E+00
        -11   -1    0    0    0    0  0.00000000000E+00  0.00000000000E+00  0.45593999997E+02  0.45594000000E+02  0.51100000000E-03 0.  1.
         11   -1    0    0    0    0 -0.00000000000E+00 -0.00000000000E+00 -0.45593999997E+02  0.45594000000E+02  0.51100000000E-03 0. -1.
    9900012    2    1    2    0    0  0.34376151710E+02 -0.77103486486E+01  0.25346677333E+02  0.47787270346E+02  0.19999996815E+02 0.  0.
         12    1    1    2    0    0 -0.34376151710E+02  0.77103486486E+01 -0.25346677333E+02  0.43400729654E+02  0.00000000000E+00 0. -1.
         11    1    3    3    0    0  0.21786655157E+02  0.95070409601E+00  0.16206636055E+02  0.27170153361E+02  0.51100000000E-03 0. -1.
        -11    1    3    3    0    0  0.13308703411E+02 -0.42192745428E+01  0.65032729285E+01  0.15401831813E+02  0.51100000000E-03 0.  1.
         12    1    3    3    0    0 -0.71920685700E+00 -0.44417782018E+01  0.26367683492E+01  0.52152851719E+01  0.00000000000E+00 0. -1.
</event>
<event>
 7    1  0.2647566E-010  0.4778727E+02  0.7816164E-02  0.1312668E+00
        -11   -1    0    0    0    0  0.00000000000E+00  0.00000000000E+00  0.45593999997E+02  0.45594000000E+02  0.51100000000E-03 0.  1.
         11   -1    0    0    0    0 -0.00000000000E+00 -0.00000000000E+00 -0.45593999997E+02  0.45594000000E+02  0.51100000000E-03 0. -1.
    9900012    2    1    2    0    0  0.32198921805E+02  0.84317038613E+01  0.27852451877E+02  0.47787271078E+02  0.20000000152E+02 0.  0.
         12    1    1    2    0    0 -0.32198921805E+02 -0.84317038613E+01 -0.27852451877E+02  0.43400728922E+02  0.00000000000E+00 0. -1.
         11    1    3    3    0    0  0.77528598936E+01 -0.19206573835E+01  0.10490281104E+01  0.80558191112E+01  0.51100000000E-03 0. -1.
        -11    1    3    3    0    0  0.25128229330E+01  0.61777804635E+01  0.38064872094E+01  0.76791012289E+01  0.51100000000E-03 0.  1.
        -12    1    3    3    0    0  0.21933238978E+02  0.41745807813E+01  0.22996936558E+02  0.32052350738E+02  0.00000000000E+00 0.  1.
</event>
<event>
 7    1  0.2647566E-010  0.4778727E+02  0.7816164E-02  0.1312668E+00
        -11   -1    0    0    0    0  0.00000000000E+00  0.00000000000E+00  0.45593999997E+02  0.45594000000E+02  0.51100000000E-03 0.  1.
         11   -1    0    0    0    0 -0.00000000000E+00 -0.00000000000E+00 -0.45593999997E+02  0.45594000000E+02  0.51100000000E-03 0. -1.
    9900012    2    1    2    0    0 -0.41296240068E+02  0.49424118806E+01 -0.12402285033E+02  0.47787267829E+02  0.19999985340E+02 0.  0.
         12    1    1    2    0    0  0.41296240068E+02 -0.49424118806E+01  0.12402285033E+02  0.43400732171E+02  0.00000000000E+00 0. -1.
         11    1    3    3    0    0 -0.76867455299E+00  0.90572131563E+00 -0.27562181516E+01  0.30013214474E+01  0.51100000000E-03 0. -1.
        -11    1    3    3    0    0 -0.29010242375E+02  0.95228206722E+01 -0.38542321198E+01  0.30775532192E+02  0.51100000000E-03 0.  1.
         12    1    3    3    0    0 -0.11517323140E+02 -0.54861301072E+01 -0.57918347618E+01  0.14010414190E+02  0.00000000000E+00 0. -1.
</event>
<event>
 7    1  0.2647566E-010  0.4778726E+02  0.7816164E-02  0.1312668E+00
        -11   -1    0    0    0    0  0.00000000000E+00  0.00000000000E+00  0.45593999997E+02  0.45594000000E+02  0.51100000000E-03 0.  1.
         11   -1    0    0    0    0 -0.00000000000E+00 -0.00000000000E+00 -0.45593999997E+02  0.45594000000E+02  0.51100000000E-03 0. -1.
    9900012    2    1    2    0    0  0.30028982229E+01 -0.36955637459E+02  0.22558532203E+02  0.47787263682E+02  0.19999966433E+02 0.  0.
         12    1    1    2    0    0 -0.30028982229E+01  0.36955637459E+02 -0.22558532203E+02  0.43400736318E+02  0.00000000000E+00 0. -1.
         11    1    3    3    0    0  0.11749059988E+01  0.13608208359E+01  0.42046703367E+00  0.18463559356E+01  0.51100000000E-03 0. -1.
        -11    1    3    3    0    0  0.60357401225E+01 -0.10480745770E+02  0.70921537664E+01  0.14020514828E+02  0.51100000000E-03 0.  1.
         12    1    3    3    0    0 -0.42077478984E+01 -0.27835712525E+02  0.15045911403E+02  0.31920392919E+02  0.00000000000E+00 0. -1.
</event>
<event>
 7    1  0.2647566E-010  0.4778725E+02  0.7816164E-02  0.1312668E+00
        -11   -1    0    0    0    0  0.00000000000E+00  0.00000000000E+00  0.45593999997E+02  0.45594000000E+02  0.51100000000E-03 0. -1.
         11   -1    0    0    0    0 -0.00000000000E+00 -0.00000000000E+00 -0.45593999997E+02  0.45594000000E+02  0.51100000000E-03 0.  1.
    9900012    2    1    2    0    0 -0.54312431689E+01  0.34444033658E+02 -0.25840571788E+02  0.47787251074E+02  0.19999908947E+02 0.  0.
         12    1    1    2    0    0  0.54312431689E+01 -0.34444033658E+02  0.25840571788E+02  0.43400748926E+02  0.00000000000E+00 0. -1.
         11    1    3    3    0    0 -0.26153413896E+01  0.24509316229E+02 -0.21048145100E+02  0.32412513093E+02  0.51100000000E-03 0. -1.
        -11    1    3    3    0    0 -0.63727076540E+01  0.83228876464E+01 -0.46489889700E+01  0.11467125199E+02  0.51100000000E-03 0.  1.
         12    1    3    3    0    0  0.35568058747E+01  0.16118297817E+01 -0.14343771851E+00  0.39076127820E+01  0.00000000000E+00 0. -1.
</event>
<event>
 7    1  0.2647566E-010  0.4778727E+02  0.7816164E-02  0.1312668E+00
        -11   -1    0    0    0    0  0.00000000000E+00  0.00000000000E+00  0.45593999997E+02  0.45594000000E+02  0.51100000000E-03 0.  1.
         11   -1    0    0    0    0 -0.00000000000E+00 -0.00000000000E+00 -0.45593999997E+02  0.45594000000E+02  0.51100000000E-03 0. -1.
    9900012    2    1    2    0    0  0.25758545818E+02 -0.23037840220E+02  0.26256022637E+02  0.47787268562E+02  0.19999988682E+02 0.  0.
         12    1    1    2    0    0 -0.25758545818E+02  0.23037840220E+02 -0.26256022637E+02  0.43400731438E+02  0.00000000000E+00 0. -1.
         11    1    3    3    0    0  0.16354321929E+01 -0.62272505235E+01  0.78350952655E+01  0.10141104753E+02  0.51100000000E-03 0. -1.
        -11    1    3    3    0    0  0.12264526958E+02 -0.11339758582E+02  0.18033363348E+02  0.24580702596E+02  0.51100000000E-03 0.  1.
         12    1    3    3    0    0  0.11858586668E+02 -0.54708311138E+01  0.38756402313E+00  0.13065461213E+02  0.00000000000E+00 0. -1.
</event>
<event>
 7    1  0.2647566E-010  0.4778727E+02  0.7816164E-02  0.1312668E+00
        -11   -1    0    0    0    0  0.00000000000E+00  0.00000000000E+00  0.45593999997E+02  0.45594000000E+02  0.51100000000E-03 0. -1.
         11   -1    0    0    0    0 -0.00000000000E+00 -0.00000000000E+00 -0.45593999997E+02  0.45594000000E+02  0.51100000000E-03 0.  1.
    9900012    2    1    2    0    0 -0.40363946328E+02 -0.11043765812E+01 -0.15910855896E+02  0.47787272516E+02  0.20000006709E+02 0.  0.
         12    1    1    2    0    0  0.40363946328E+02  0.11043765812E+01  0.15910855896E+02  0.43400727484E+02  0.00000000000E+00 0. -1.
         11    1    3    3    0    0 -0.14031783837E+02 -0.25502932609E+01 -0.11801865425E+02  0.18511590454E+02  0.51100000000E-03 0. -1.
        -11    1    3    3    0    0 -0.67338043858E+01  0.19221764624E+01 -0.64646595570E+01  0.95305145353E+01  0.51100000000E-03 0.  1.
        -12    1    3    3    0    0 -0.19598358106E+02 -0.47625978275E+00  0.23556690865E+01  0.19745167527E+02  0.00000000000E+00 0.  1.
</event>
<event>
 7    1  0.2647566E-010  0.4778727E+02  0.7816164E-02  0.1312668E+00
        -11   -1    0    0    0    0  0.00000000000E+00  0.00000000000E+00  0.45593999997E+02  0.45594000000E+02  0.51100000000E-03 0.  1.
         11   -1    0    0    0    0 -0.00000000000E+00 -0.00000000000E+00 -0.45593999997E+02  0.45594000000E+02  0.51100000000E-03 0. -1.
    9900012    2    1    2    0    0 -0.10958920391E+02  0.41292876322E+02  0.76435433191E+01  0.47787270449E+02  0.19999997287E+02 0.  0.
         12    1    1    2    0    0  0.10958920391E+02 -0.41292876322E+02 -0.76435433191E+01  0.43400729551E+02  0.00000000000E+00 0. -1.
         11    1    3    3    0    0 -0.92011687365E+01  0.11232328713E+02 -0.11708277119E+01  0.14567002170E+02  0.51100000000E-03 0. -1.
        -11    1    3    3    0    0 -0.30096721957E+01  0.16657735155E+01  0.20486699005E+01  0.40037453407E+01  0.51100000000E-03 0.  1.
        -12    1    3    3    0    0  0.12519205414E+01  0.28394774093E+02  0.67657011304E+01  0.29216522938E+02  0.00000000000E+00 0.  1.
</event>
<event>
 7    1  0.2647566E-010  0.4778727E+02  0.7816164E-02  0.1312668E+00
        -11   -1    0    0    0    0  0.00000000000E+00  0.00000000000E+00  0.45593999997E+02  0.45594000000E+02  0.51100000000E-03 0.  1.
         11   -1    0    0    0    0 -0.00000000000E+00 -0.00000000000E+00 -0.45593999997E+02  0.45594000000E+02  0.51100000000E-03 0. -1.
    9900012    2    1    2    0    0 -0.85176509990E+01 -0.19291099322E+02  0.37933184642E+02  0.47787269722E+02  0.19999993971E+02 0.  0.
         12    1    1    2    0    0  0.85176509990E+01  0.19291099322E+02 -0.37933184642E+02  0.43400730278E+02  0.00000000000E+00 0. -1.
         11    1    3    3    0    0 -0.47300747724E+01  0.20623725069E+01  0.81700253371E+01  0.96631414136E+01  0.51100000000E-03 0. -1.
        -11    1    3    3    0    0 -0.36739675394E+01 -0.90769405000E+01  0.20585493442E+02  0.22795864248E+02  0.51100000000E-03 0.  1.
         12    1    3    3    0    0 -0.11360868721E+00 -0.12276531329E+02  0.91776658629E+01  0.15328264060E+02  0.00000000000E+00 0. -1.
</event>
<event>
 7    1  0.2647566E-010  0.4778727E+02  0.7816164E-02  0.1312668E+00
        -11   -1    0    0    0    0  0.00000000000E+00  0.00000000000E+00  0.45593999997E+02  0.45594000000E+02  0.51100000000E-03 0.  1.
         11   -1    0    0    0    0 -0.00000000000E+00 -0.00000000000E+00 -0.45593999997E+02  0.45594000000E+02  0.51100000000E-03 0. -1.
    9900012    2    1    2    0    0 -0.29173192103E+02 -0.17439981444E+02  0.26988797079E+02  0.47787271227E+02  0.20000000832E+02 0.  0.
         12    1    1    2    0    0  0.29173192103E+02  0.17439981444E+02 -0.26988797079E+02  0.43400728773E+02  0.00000000000E+00 0. -1.
         11    1    3    3    0    0 -0.13421758027E+02 -0.85233594868E+01  0.23257416048E+01  0.16068612875E+02  0.51100000000E-03 0. -1.
        -11    1    3    3    0    0 -0.61020342577E+01 -0.76822699041E+01  0.91970711525E+01  0.13447609862E+02  0.51100000000E-03 0.  1.
         12    1    3    3    0    0 -0.96493998186E+01 -0.12343520536E+01  0.15465984322E+02  0.18271048489E+02  0.00000000000E+00 0. -1.
</event>
<event>
 7    1  0.2647566E-010  0.4778728E+02  0.7816164E-02  0.1312668E+00
        -11   -1    0    0    0    0  0.00000000000E+00  0.00000000000E+00  0.45593999997E+02  0.45594000000E+02  0.51100000000E-03 0.  1.
         11   -1    0    0    0    0 -0.00000000000E+00 -0.00000000000E+00 -0.45593999997E+02  0.45594000000E+02  0.51100000000E-03 0. -1.
    9900012    2    1    2    0    0 -0.54218266005E+01  0.22370341043E+02  0.36793944248E+02  0.47787277709E+02  0.20000030387E+02 0.  0.
         12    1    1    2    0    0  0.54218266005E+01 -0.22370341043E+02 -0.36793944248E+02  0.43400722291E+02  0.00000000000E+00 0. -1.
         11    1    3    3    0    0 -0.22202759517E+01  0.92774444719E+00 -0.64527650927E+00  0.24913283797E+01  0.51100000000E-03 0. -1.
        -11    1    3    3    0    0 -0.59413033716E+01  0.17219131111E+02  0.35501171963E+02  0.39901513418E+02  0.51100000000E-03 0.  1.
         12    1    3    3    0    0  0.27397527228E+01  0.42234654843E+01  0.19380487935E+01  0.53944359117E+01  0.00000000000E+00 0. -1.
</event>
<event>
 7    1  0.2647566E-010  0.4778728E+02  0.7816164E-02  0.1312668E+00
        -11   -1    0    0    0    0  0.00000000000E+00  0.00000000000E+00  0.45593999997E+02  0.45594000000E+02  0.51100000000E-03 0. -1.
         11   -1    0    0    0    0 -0.00000000000E+00 -0.00000000000E+00 -0.45593999997E+02  0.45594000000E+02  0.51100000000E-03 0.  1.
    9900012    2    1    2    0    0 -0.29899758949E+02  0.31444192947E+02 -0.94324519023E+00  0.47787279191E+02  0.20000037142E+02 0.  0.
         12    1    1    2    0    0  0.29899758949E+02 -0.31444192947E+02  0.94324519023E+00  0.43400720809E+02  0.00000000000E+00 0. -1.
         11    1    3    3    0    0 -0.94335007810E+01  0.71539828096E+01  0.48158460712E+01  0.12781345026E+02  0.51100000000E-03 0. -1.
        -11    1    3    3    0    0 -0.91171795492E+01  0.94662828155E+01  0.42624738905E+01  0.13816734679E+02  0.51100000000E-03 0.  1.
        -12    1    3    3    0    0 -0.11349078619E+02  0.14823927322E+02 -0.10021565152E+02  0.21189199485E+02  0.00000000000E+00 0.  1.
</event>
<event>
 7    1  0.2647566E-010  0.4778727E+02  0.7816164E-02  0.1312668E+00
        -11   -1    0    0    0    0  0.00000000000E+00  0.00000000000E+00  0.45593999997E+02  0.45594000000E+02  0.51100000000E-03 0.  1.
         11   -1    0    0    0    0 -0.00000000000E+00 -0.00000000000E+00 -0.45593999997E+02  0.45594000000E+02  0.51100000000E-03 0. -1.
    9900012    2    1    2    0    0 -0.58317297755E+01  0.42516448831E+02  0.64780745998E+01  0.47787274846E+02  0.20000017334E+02 0.  0.
         12    1    1    2    0    0  0.58317297755E+01 -0.42516448831E+02 -0.64780745998E+01  0.43400725154E+02  0.00000000000E+00 0. -1.
         11    1    3    3    0    0  0.20153795377E+01  0.19607384767E+02  0.35984124164E+01  0.20036463367E+02  0.51100000000E-03 0.  1.
        -11    1    3    3    0    0  0.35395944043E+01  0.56363703158E+01  0.23417764782E+01  0.70555875885E+01  0.51100000000E-03 0. -1.
         12    1    3    3    0    0 -0.11386703717E+02  0.17272693748E+02  0.53788570521E+00  0.20695223891E+02  0.00000000000E+00 0. -1.
</event>
<event>
 7    1  0.2647566E-010  0.4778727E+02  0.7816164E-02  0.1312668E+00
        -11   -1    0    0    0    0  0.00000000000E+00  0.00000000000E+00  0.45593999997E+02  0.45594000000E+02  0.51100000000E-03 0.  1.
         11   -1    0    0    0    0 -0.00000000000E+00 -0.00000000000E+00 -0.45593999997E+02  0.45594000000E+02  0.51100000000E-03 0. -1.
    9900012    2    1    2    0    0 -0.24003134861E+02 -0.13720143385E+02  0.33454902147E+02  0.47787270797E+02  0.19999998872E+02 0.  0.
         12    1    1    2    0    0  0.24003134861E+02  0.13720143385E+02 -0.33454902147E+02  0.43400729203E+02  0.00000000000E+00 0. -1.
         11    1    3    3    0    0 -0.16925919704E+02 -0.17351738589E+01  0.83057416949E+01  0.18933645489E+02  0.51100000000E-03 0. -1.
        -11    1    3    3    0    0 -0.24594332563E+01 -0.23302296788E+01  0.50218370889E+01  0.60578569071E+01  0.51100000000E-03 0.  1.
         12    1    3    3    0    0 -0.46177819009E+01 -0.96547398476E+01  0.20127323363E+02  0.22795768401E+02  0.00000000000E+00 0. -1.
</event>
<event>
 7    1  0.2647566E-010  0.4778727E+02  0.7816164E-02  0.1312668E+00
        -11   -1    0    0    0    0  0.00000000000E+00  0.00000000000E+00  0.45593999997E+02  0.45594000000E+02  0.51100000000E-03 0. -1.
         11   -1    0    0    0    0 -0.00000000000E+00 -0.00000000000E+00 -0.45593999997E+02  0.45594000000E+02  0.51100000000E-03 0.  1.
    9900012    2    1    2    0    0  0.15120562171E+02  0.17514832039E+02 -0.36718151987E+02  0.47787269280E+02  0.19999991954E+02 0.  0.
         12    1    1    2    0    0 -0.15120562171E+02 -0.17514832039E+02  0.36718151987E+02  0.43400730720E+02  0.00000000000E+00 0. -1.
         11    1    3    3    0    0 -0.88008910308E+00  0.24789878303E+01 -0.94248092219E+01  0.97850378958E+01  0.51100000000E-03 0. -1.
        -11    1    3    3    0    0  0.54546996497E+01  0.11554387629E+02 -0.22565901731E+02  0.25932171968E+02  0.51100000000E-03 0.  1.
         12    1    3    3    0    0  0.10545951625E+02  0.34814565791E+01 -0.47274410334E+01  0.12070059416E+02  0.00000000000E+00 0. -1.
</event>
<event>
 7    1  0.2647566E-010  0.4778727E+02  0.7816164E-02  0.1312668E+00
        -11   -1    0    0    0    0  0.00000000000E+00  0.00000000000E+00  0.45593999997E+02  0.45594000000E+02  0.51100000000E-03 0.  1.
         11   -1    0    0    0    0 -0.00000000000E+00 -0.00000000000E+00 -0.45593999997E+02  0.45594000000E+02  0.51100000000E-03 0. -1.
    9900012    2    1    2    0    0  0.90383680852E+01  0.34799636773E+02  0.24308775634E+02  0.47787269707E+02  0.19999993900E+02 0.  0.
         12    1    1    2    0    0 -0.90383680852E+01 -0.34799636773E+02 -0.24308775634E+02  0.43400730293E+02  0.00000000000E+00 0. -1.
         11    1    3    3    0    0 -0.22121646452E+01  0.13106235787E+02  0.82830010809E+00  0.13317401032E+02  0.51100000000E-03 0. -1.
        -11    1    3    3    0    0  0.44609161581E+01  0.71399715368E+01  0.42983308313E+01  0.94527569900E+01  0.51100000000E-03 0.  1.
        -12    1    3    3    0    0  0.67896165723E+01  0.14553429449E+02  0.19182144695E+02  0.25017111684E+02  0.00000000000E+00 0.  1.
</event>
<event>
 7    1  0.2647566E-010  0.4778727E+02  0.7816164E-02  0.1312668E+00
        -11   -1    0    0    0    0  0.00000000000E+00  0.00000000000E+00  0.45593999997E+02  0.45594000000E+02  0.51100000000E-03 0.  1.
         11   -1    0    0    0    0 -0.00000000000E+00 -0.00000000000E+00 -0.45593999997E+02  0.45594000000E+02  0.51100000000E-03 0. -1.
    9900012    2    1    2    0    0 -0.38644955604E+02 -0.12431504993E+02  0.15350851280E+02  0.47787267920E+02  0.19999985756E+02 0.  0.
         12    1    1    2    0    0  0.38644955604E+02  0.12431504993E+02 -0.15350851280E+02  0.43400732080E+02  0.00000000000E+00 0. -1.
         11    1    3    3    0    0 -0.13058534066E+02  0.16729413703E+00  0.42272077408E+01  0.13726710634E+02  0.51100000000E-03 0.  1.
        -11    1    3    3    0    0  0.13670995518E+01 -0.48495678304E+00 -0.13533741776E+01  0.19838765565E+01  0.51100000000E-03 0. -1.
         12    1    3    3    0    0 -0.26953521089E+02 -0.12113842347E+02  0.12477017717E+02  0.32076680730E+02  0.00000000000E+00 0. -1.
</event>
<event>
 7    1  0.2647566E-010  0.4778727E+02  0.7816164E-02  0.1312668E+00
        -11   -1    0    0    0    0  0.00000000000E+00  0.00000000000E+00  0.45593999997E+02  0.45594000000E+02  0.51100000000E-03 0.  1.
         11   -1    0    0    0    0 -0.00000000000E+00 -0.00000000000E+00 -0.45593999997E+02  0.45594000000E+02  0.51100000000E-03 0. -1.
    9900012    2    1    2    0    0 -0.23572854767E+02 -0.15233195925E+02  0.33104287762E+02  0.47787267193E+02  0.19999982442E+02 0.  0.
         12    1    1    2    0    0  0.23572854767E+02  0.15233195925E+02 -0.33104287762E+02  0.43400732807E+02  0.00000000000E+00 0. -1.
         11    1    3    3    0    0 -0.41801987698E+00  0.10454060326E+01  0.11354993432E+02  0.11410674410E+02  0.51100000000E-03 0. -1.
        -11    1    3    3    0    0 -0.66213952320E+01 -0.10999409993E+01  0.48203955242E+01  0.82637133476E+01  0.51100000000E-03 0.  1.
         12    1    3    3    0    0 -0.16533439658E+02 -0.15178660958E+02  0.16928898805E+02  0.28112879435E+02  0.00000000000E+00 0. -1.
</event>
<event>
 7    1  0.2647566E-010  0.4778727E+02  0.7816164E-02  0.1312668E+00
        -11   -1    0    0    0    0  0.00000000000E+00  0.00000000000E+00  0.45593999997E+02  0.45594000000E+02  0.51100000000E-03 0. -1.
         11   -1    0    0    0    0 -0.00000000000E+00 -0.00000000000E+00 -0.45593999997E+02  0.45594000000E+02  0.51100000000E-03 0.  1.
    9900012    2    1    2    0    0 -0.78001779924E+01  0.38326362573E+02 -0.18811435573E+02  0.47787274739E+02  0.20000016847E+02 0.  0.
         12    1    1    2    0    0  0.78001779924E+01 -0.38326362573E+02  0.18811435573E+02  0.43400725261E+02  0.00000000000E+00 0. -1.
         11    1    3    3    0    0 -0.41217956626E+01  0.11639910996E+02 -0.63079939845E+01  0.13866056247E+02  0.51100000000E-03 0. -1.
        -11    1    3    3    0    0 -0.69798934468E+01  0.26894714185E+02 -0.92592620637E+01  0.29287855808E+02  0.51100000000E-03 0.  1.
         12    1    3    3    0    0  0.33015111171E+01 -0.20826260768E+00 -0.32441795251E+01  0.46333626840E+01  0.00000000000E+00 0. -1.
</event>
<event>
 7    1  0.2647566E-010  0.4778727E+02  0.7816164E-02  0.1312668E+00
        -11   -1    0    0    0    0  0.00000000000E+00  0.00000000000E+00  0.45593999997E+02  0.45594000000E+02  0.51100000000E-03 0.  1.
         11   -1    0    0    0    0 -0.00000000000E+00 -0.00000000000E+00 -0.45593999997E+02  0.45594000000E+02  0.51100000000E-03 0. -1.
    9900012    2    1    2    0    0 -0.66565436119E+01 -0.12836789378E+02  0.40921026578E+02  0.47787272465E+02  0.20000006477E+02 0.  0.
         12    1    1    2    0    0  0.66565436119E+01  0.12836789378E+02 -0.40921026578E+02  0.43400727535E+02  0.00000000000E+00 0. -1.
         11    1    3    3    0    0 -0.81759032951E+00 -0.40990846211E+01  0.25058692275E+02  0.25404901249E+02  0.51100000000E-03 0. -1.
        -11    1    3    3    0    0  0.21683200564E+01 -0.71073196525E+01  0.92867535666E+01  0.11893670442E+02  0.51100000000E-03 0.  1.
         12    1    3    3    0    0 -0.80072733388E+01 -0.16303851042E+01  0.65755807359E+01  0.10488700774E+02  0.00000000000E+00 0. -1.
</event>
<event>
 7    1  0.2647566E-010  0.4778725E+02  0.7816164E-02  0.1312668E+00
        -11   -1    0    0    0    0  0.00000000000E+00  0.00000000000E+00  0.45593999997E+02  0.45594000000E+02  0.51100000000E-03 0.  1.
         11   -1    0    0    0    0 -0.00000000000E+00 -0.00000000000E+00 -0.45593999997E+02  0.45594000000E+02  0.51100000000E-03 0. -1.
    9900012    2    1    2    0    0 -0.71767478070E+01  0.13380708428E+02  0.40658036009E+02  0.47787251628E+02  0.19999911474E+02 0.  0.
         12    1    1    2    0    0  0.71767478070E+01 -0.13380708428E+02 -0.40658036009E+02  0.43400748372E+02  0.00000000000E+00 0. -1.
         11    1    3    3    0    0  0.11955491932E+01  0.81096960043E+00  0.13716323199E+01  0.19920805828E+01  0.51100000000E-03 0. -1.
        -11    1    3    3    0    0 -0.84154540135E+01 -0.13169363629E+01  0.85574693448E+01  0.12074123963E+02  0.51100000000E-03 0.  1.
        -12    1    3    3    0    0  0.43157013259E-01  0.13886675190E+02  0.30728934344E+02  0.33721047082E+02  0.00000000000E+00 0.  1.
</event>
<event>
 7    1  0.2647566E-010  0.4778727E+02  0.7816164E-02  0.1312668E+00
        -11   -1    0    0    0    0  0.00000000000E+00  0.00000000000E+00  0.45593999997E+02  0.45594000000E+02  0.51100000000E-03 0. -1.
         11   -1    0    0    0    0 -0.00000000000E+00 -0.00000000000E+00 -0.45593999997E+02  0.45594000000E+02  0.51100000000E-03 0.  1.
    9900012    2    1    2    0    0  0.42635662295E+02 -0.75987755570E+01 -0.28428887143E+01  0.47787272984E+02  0.20000008843E+02 0.  0.
         12    1    1    2    0    0 -0.42635662295E+02  0.75987755570E+01  0.28428887143E+01  0.43400727016E+02  0.00000000000E+00 0. -1.
         11    1    3    3    0    0  0.61506105441E+01 -0.80969435773E-01  0.57622977022E+01  0.84285610388E+01  0.51100000000E-03 0. -1.
        -11    1    3    3    0    0  0.10099200754E+02  0.13964554585E+01  0.44797982469E-01  0.10195388705E+02  0.51100000000E-03 0.  1.
        -12    1    3    3    0    0  0.26385850996E+02 -0.89142615798E+01 -0.86499843990E+01  0.29163323240E+02  0.00000000000E+00 0.  1.
</event>
<event>
 7    1  0.2647566E-010  0.4778727E+02  0.7816164E-02  0.1312668E+00
        -11   -1    0    0    0    0  0.00000000000E+00  0.00000000000E+00  0.45593999997E+02  0.45594000000E+02  0.51100000000E-03 0. -1.
         11   -1    0    0    0    0 -0.00000000000E+00 -0.00000000000E+00 -0.45593999997E+02  0.45594000000E+02  0.51100000000E-03 0.  1.
    9900012    2    1    2    0    0  0.57142790506E+00 -0.42824887698E+02 -0.70232404185E+01  0.47787269106E+02  0.19999991161E+02 0.  0.
         12    1    1    2    0    0 -0.57142790506E+00  0.42824887698E+02  0.70232404185E+01  0.43400730894E+02  0.00000000000E+00 0. -1.
         11    1    3    3    0    0 -0.37288924970E+00 -0.33167437944E+01  0.30504430156E+01  0.45216190289E+01  0.51100000000E-03 0. -1.
        -11    1    3    3    0    0  0.61703292268E+01 -0.15353730210E+02  0.81010358624E-01  0.16547403333E+02  0.51100000000E-03 0.  1.
        -12    1    3    3    0    0 -0.52260120721E+01 -0.24154413694E+02 -0.10154693793E+02  0.26718246744E+02  0.00000000000E+00 0.  1.
</event>
<event>
 7    1  0.2647566E-010  0.4778728E+02  0.7816164E-02  0.1312668E+00
        -11   -1    0    0    0    0  0.00000000000E+00  0.00000000000E+00  0.45593999997E+02  0.45594000000E+02  0.51100000000E-03 0.  1.
         11   -1    0    0    0    0 -0.00000000000E+00 -0.00000000000E+00 -0.45593999997E+02  0.45594000000E+02  0.51100000000E-03 0. -1.
    9900012    2    1    2    0    0  0.11926357725E+01  0.39676008587E+02  0.17550338096E+02  0.47787281057E+02  0.20000045651E+02 0.  0.
         12    1    1    2    0    0 -0.11926357725E+01 -0.39676008587E+02 -0.17550338096E+02  0.43400718943E+02  0.00000000000E+00 0. -1.
         11    1    3    3    0    0  0.35208224906E+00  0.20649377566E+01 -0.15247880504E+01  0.25909281558E+01  0.51100000000E-03 0. -1.
        -11    1    3    3    0    0  0.43688588147E+00  0.14023220293E+02  0.16199432229E+02  0.21430426535E+02  0.51100000000E-03 0.  1.
        -12    1    3    3    0    0  0.40366764195E+00  0.23587850538E+02  0.28756939170E+01  0.23765926367E+02  0.00000000000E+00 0.  1.
</event>
<event>
 7    1  0.2647566E-010  0.4778727E+02  0.7816164E-02  0.1312668E+00
        -11   -1    0    0    0    0  0.00000000000E+00  0.00000000000E+00  0.45593999997E+02  0.45594000000E+02  0.51100000000E-03 0. -1.
         11   -1    0    0    0    0 -0.00000000000E+00 -0.00000000000E+00 -0.45593999997E+02  0.45594000000E+02  0.51100000000E-03 0.  1.
    9900012    2    1    2    0    0 -0.81756573564E+01 -0.10977839007E+02 -0.41185786643E+02  0.47787270238E+02  0.19999996321E+02 0.  0.
         12    1    1    2    0    0  0.81756573564E+01  0.10977839007E+02  0.41185786643E+02  0.43400729762E+02  0.00000000000E+00 0. -1.
         11    1    3    3    0    0  0.18994034618E+01  0.16646042862E+01 -0.40344899485E+01  0.47598057046E+01  0.51100000000E-03 0. -1.
        -11    1    3    3    0    0 -0.22362072473E-01 -0.87053241318E+01 -0.75656501757E+01  0.11533526397E+02  0.51100000000E-03 0.  1.
        -12    1    3    3    0    0 -0.10052698746E+02 -0.39371191615E+01 -0.29585646519E+02  0.31493938136E+02  0.00000000000E+00 0.  1.
</event>
<event>
 7    1  0.2647566E-010  0.4778725E+02  0.7816164E-02  0.1312668E+00
        -11   -1    0    0    0    0  0.00000000000E+00  0.00000000000E+00  0.45593999997E+02  0.45594000000E+02  0.51100000000E-03 0.  1.
         11   -1    0    0    0    0 -0.00000000000E+00 -0.00000000000E+00 -0.45593999997E+02  0.45594000000E+02  0.51100000000E-03 0. -1.
    9900012    2    1    2    0    0  0.27063500801E+02 -0.14449572382E+02  0.30698558240E+02  0.47787254665E+02  0.19999925319E+02 0.  0.
         12    1    1    2    0    0 -0.27063500801E+02  0.14449572382E+02 -0.30698558240E+02  0.43400745335E+02  0.00000000000E+00 0. -1.
         11    1    3    3    0    0  0.27008226343E+02 -0.14033041076E+02  0.29346846707E+02  0.42280112866E+02  0.51100000000E-03 0. -1.
        -11    1    3    3    0    0  0.26998408756E-01 -0.26044723707E+01  0.19325210253E+01  0.32432457536E+01  0.51100000000E-03 0.  1.
         12    1    3    3    0    0  0.28276049201E-01  0.21879410652E+01 -0.58080949199E+00  0.22638960457E+01  0.00000000000E+00 0. -1.
</event>
<event>
 7    1  0.2647566E-010  0.4778727E+02  0.7816164E-02  0.1312668E+00
        -11   -1    0    0    0    0  0.00000000000E+00  0.00000000000E+00  0.45593999997E+02  0.45594000000E+02  0.51100000000E-03 0. -1.
         11   -1    0    0    0    0 -0.00000000000E+00 -0.00000000000E+00 -0.45593999997E+02  0.45594000000E+02  0.51100000000E-03 0.  1.
    9900012    2    1    2    0    0 -0.68496129837E+01  0.82901231327E+01 -0.42047359273E+02  0.47787265428E+02  0.19999974391E+02 0.  0.
         12    1    1    2    0    0  0.68496129837E+01 -0.82901231327E+01  0.42047359273E+02  0.43400734572E+02  0.00000000000E+00 0. -1.
         11    1    3    3    0    0  0.54385459179E+00  0.23055223954E+01 -0.17818661840E+01  0.29641623929E+01  0.51100000000E-03 0. -1.
        -11    1    3    3    0    0 -0.11972026587E+02  0.65361765165E+01 -0.21208830953E+02  0.25216374337E+02  0.51100000000E-03 0.  1.
        -12    1    3    3    0    0  0.45785590113E+01 -0.55157577922E+00 -0.19056662136E+02  0.19606728698E+02  0.00000000000E+00 0.  1.
</event>
<event>
 7    1  0.2647566E-010  0.4778727E+02  0.7816164E-02  0.1312668E+00
        -11   -1    0    0    0    0  0.00000000000E+00  0.00000000000E+00  0.45593999997E+02  0.45594000000E+02  0.51100000000E-03 0.  1.
         11   -1    0    0    0    0 -0.00000000000E+00 -0.00000000000E+00 -0.45593999997E+02  0.45594000000E+02  0.51100000000E-03 0. -1.
    9900012    2    1    2    0    0 -0.23758207519E+01 -0.12018952951E+02  0.41635603501E+02  0.47787271514E+02  0.20000002139E+02 0.  0.
         12    1    1    2    0    0  0.23758207519E+01  0.12018952951E+02 -0.41635603501E+02  0.43400728486E+02  0.00000000000E+00 0. -1.
         11    1    3    3    0    0  0.64279519453E+00 -0.25060952794E+01  0.12094584285E+01  0.28559567859E+01  0.51100000000E-03 0. -1.
        -11    1    3    3    0    0 -0.68050215606E+00 -0.73428494358E+00  0.33481232547E+02  0.33496196660E+02  0.51100000000E-03 0.  1.
        -12    1    3    3    0    0 -0.23381137904E+01 -0.87785727278E+01  0.69449125249E+01  0.11435118067E+02  0.00000000000E+00 0.  1.
</event>
<event>
 7    1  0.2647566E-010  0.4778726E+02  0.7816164E-02  0.1312668E+00
        -11   -1    0    0    0    0  0.00000000000E+00  0.00000000000E+00  0.45593999997E+02  0.45594000000E+02  0.51100000000E-03 0. -1.
         11   -1    0    0    0    0 -0.00000000000E+00 -0.00000000000E+00 -0.45593999997E+02  0.45594000000E+02  0.51100000000E-03 0.  1.
    9900012    2    1    2    0    0 -0.10486068559E+02 -0.38262371364E+02  0.17597090041E+02  0.47787259521E+02  0.19999947460E+02 0.  0.
         12    1    1    2    0    0  0.10486068559E+02  0.38262371364E+02 -0.17597090041E+02  0.43400740479E+02  0.00000000000E+00 0. -1.
         11    1    3    3    0    0  0.62061271193E+00 -0.51919851796E+01  0.12317281993E+01  0.53720596480E+01  0.51100000000E-03 0. -1.
        -11    1    3    3    0    0 -0.74425173647E+00  0.21532236854E+01  0.18464859295E+01  0.29325404406E+01  0.51100000000E-03 0.  1.
        -12    1    3    3    0    0 -0.10362429534E+02 -0.35223609870E+02  0.14518875912E+02  0.39482659432E+02  0.00000000000E+00 0.  1.
</event>
<event>
 7    1  0.2647566E-010  0.4778729E+02  0.7816164E-02  0.1312668E+00
        -11   -1    0    0    0    0  0.00000000000E+00  0.00000000000E+00  0.45593999997E+02  0.45594000000E+02  0.51100000000E-03 0.  1.
         11   -1    0    0    0    0 -0.00000000000E+00 -0.00000000000E+00 -0.45593999997E+02  0.45594000000E+02  0.51100000000E-03 0. -1.
    9900012    2    1    2    0    0 -0.87170191129E+01 -0.26592803827E+02  0.33173146340E+02  0.47787294064E+02  0.20000104957E+02 0.  0.
         12    1    1    2    0    0  0.87170191129E+01  0.26592803827E+02 -0.33173146340E+02  0.43400705936E+02  0.00000000000E+00 0. -1.
         11    1    3    3    0    0 -0.99764082099E+01 -0.11466295373E+02  0.14446435656E+02  0.20969123820E+02  0.51100000000E-03 0. -1.
        -11    1    3    3    0    0 -0.25680595287E+01 -0.49223857363E+01  0.49057835376E+00  0.55736414006E+01  0.51100000000E-03 0.  1.
        -12    1    3    3    0    0  0.38274486257E+01 -0.10204122718E+02  0.18236132330E+02  0.21244528843E+02  0.00000000000E+00 0.  1.
</event>
<event>
 7    1  0.2647566E-010  0.4778728E+02  0.7816164E-02  0.1312668E+00
        -11   -1    0    0    0    0  0.00000000000E+00  0.00000000000E+00  0.45593999997E+02  0.45594000000E+02  0.51100000000E-03 0.  1.
         11   -1    0    0    0    0 -0.00000000000E+00 -0.00000000000E+00 -0.45593999997E+02  0.45594000000E+02  0.51100000000E-03 0. -1.
    9900012    2    1    2    0    0  0.22862742893E+02 -0.14872936188E+02  0.33759643912E+02  0.47787276497E+02  0.20000024862E+02 0.  0.
         12    1    1    2    0    0 -0.22862742893E+02  0.14872936188E+02 -0.33759643912E+02  0.43400723503E+02  0.00000000000E+00 0. -1.
         11    1    3    3    0    0  0.33798094293E+01  0.25094255193E+01  0.62829866722E+01  0.75628202411E+01  0.51100000000E-03 0. -1.
        -11    1    3    3    0    0  0.31495039371E+01  0.60956812310E+00  0.94168759766E+01  0.99482913994E+01  0.51100000000E-03 0.  1.
        -12    1    3    3    0    0  0.16333429527E+02 -0.17991929831E+02  0.18059781264E+02  0.30276164857E+02  0.00000000000E+00 0.  1.
</event>
<event>
 7    1  0.2647566E-010  0.4778727E+02  0.7816164E-02  0.1312668E+00
        -11   -1    0    0    0    0  0.00000000000E+00  0.00000000000E+00  0.45593999997E+02  0.45594000000E+02  0.51100000000E-03 0.  1.
         11   -1    0    0    0    0 -0.00000000000E+00 -0.00000000000E+00 -0.45593999997E+02  0.45594000000E+02  0.51100000000E-03 0. -1.
    9900012    2    1    2    0    0  0.14929536984E+02  0.21749226576E+02  0.34463071540E+02  0.47787271537E+02  0.20000002244E+02 0.  0.
         12    1    1    2    0    0 -0.14929536984E+02 -0.21749226576E+02 -0.34463071540E+02  0.43400728463E+02  0.00000000000E+00 0. -1.
         11    1    3    3    0    0  0.58787108298E+01  0.29227725297E+01  0.26338563211E+00  0.65704803883E+01  0.51100000000E-03 0. -1.
        -11    1    3    3    0    0 -0.12384277757E+01 -0.14614683032E+00  0.91411873857E+00  0.15461809664E+01  0.51100000000E-03 0.  1.
         12    1    3    3    0    0  0.10289253930E+02  0.18972600876E+02  0.33285567169E+02  0.39670610182E+02  0.00000000000E+00 0. -1.
</event>
<event>
 7    1  0.2647566E-010  0.4778728E+02  0.7816164E-02  0.1312668E+00
        -11   -1    0    0    0    0  0.00000000000E+00  0.00000000000E+00  0.45593999997E+02  0.45594000000E+02  0.51100000000E-03 0. -1.
         11   -1    0    0    0    0 -0.00000000000E+00 -0.00000000000E+00 -0.45593999997E+02  0.45594000000E+02  0.51100000000E-03 0.  1.
    9900012    2    1    2    0    0 -0.40199968091E+02 -0.45033228641E+01 -0.15725940003E+02  0.47787279496E+02  0.20000038532E+02 0.  0.
         12    1    1    2    0    0  0.40199968091E+02  0.45033228641E+01  0.15725940003E+02  0.43400720504E+02  0.00000000000E+00 0. -1.
         11    1    3    3    0    0 -0.14497418141E+02  0.29716537898E+01 -0.10605859605E+02  0.18206870055E+02  0.51100000000E-03 0. -1.
        -11    1    3    3    0    0 -0.22279449687E+02 -0.18920451610E+01 -0.54811798880E+01  0.23021664720E+02  0.51100000000E-03 0.  1.
        -12    1    3    3    0    0 -0.34231002633E+01 -0.55829314930E+01  0.36109948982E+00  0.65587447205E+01  0.00000000000E+00 0.  1.
</event>
<event>
 7    1  0.2647566E-010  0.4778727E+02  0.7816164E-02  0.1312668E+00
        -11   -1    0    0    0    0  0.00000000000E+00  0.00000000000E+00  0.45593999997E+02  0.45594000000E+02  0.51100000000E-03 0.  1.
         11   -1    0    0    0    0 -0.00000000000E+00 -0.00000000000E+00 -0.45593999997E+02  0.45594000000E+02  0.51100000000E-03 0. -1.
    9900012    2    1    2    0    0 -0.31188299341E+02  0.63849339503E+01  0.29498236676E+02  0.47787270002E+02  0.19999995247E+02 0.  0.
         12    1    1    2    0    0  0.31188299341E+02 -0.63849339503E+01 -0.29498236676E+02  0.43400729998E+02  0.00000000000E+00 0. -1.
         11    1    3    3    0    0 -0.14342756311E+01 -0.30909201592E+01  0.73543351459E+01  0.81053796775E+01  0.51100000000E-03 0. -1.
        -11    1    3    3    0    0 -0.67336929201E+01  0.40757486254E+01  0.11041588149E+02  0.13559904731E+02  0.51100000000E-03 0.  1.
         12    1    3    3    0    0 -0.23020330790E+02  0.54001054841E+01  0.11102313381E+02  0.26121985593E+02  0.00000000000E+00 0. -1.
</event>
<event>
 7    1  0.2647566E-010  0.4778727E+02  0.7816164E-02  0.1312668E+00
        -11   -1    0    0    0    0  0.00000000000E+00  0.00000000000E+00  0.45593999997E+02  0.45594000000E+02  0.51100000000E-03 0.  1.
         11   -1    0    0    0    0 -0.00000000000E+00 -0.00000000000E+00 -0.45593999997E+02  0.45594000000E+02  0.51100000000E-03 0. -1.
    9900012    2    1    2    0    0  0.22687530281E+02  0.59179890624E+01  0.36522283243E+02  0.47787265005E+02  0.19999972464E+02 0.  0.
         12    1    1    2    0    0 -0.22687530281E+02 -0.59179890624E+01 -0.36522283243E+02  0.43400734995E+02  0.00000000000E+00 0. -1.
         11    1    3    3    0    0  0.27986416456E+01  0.40654482396E+01  0.58411864226E+01  0.76472036415E+01  0.51100000000E-03 0. -1.
        -11    1    3    3    0    0  0.21856817063E+02  0.47260381686E+01  0.25774055240E+02  0.34122687653E+02  0.51100000000E-03 0.  1.
         12    1    3    3    0    0 -0.19679284281E+01 -0.28734973459E+01  0.49070415812E+01  0.60173737108E+01  0.00000000000E+00 0. -1.
</event>
<event>
 7    1  0.2647566E-010  0.4778727E+02  0.7816164E-02  0.1312668E+00
        -11   -1    0    0    0    0  0.00000000000E+00  0.00000000000E+00  0.45593999997E+02  0.45594000000E+02  0.51100000000E-03 0. -1.
         11   -1    0    0    0    0 -0.00000000000E+00 -0.00000000000E+00 -0.45593999997E+02  0.45594000000E+02  0.51100000000E-03 0.  1.
    9900012    2    1    2    0    0 -0.38037890710E+02  0.13025134523E+02 -0.16342827430E+02  0.47787271119E+02  0.20000000341E+02 0.  0.
         12    1    1    2    0    0  0.38037890710E+02 -0.13025134523E+02  0.16342827430E+02  0.43400728881E+02  0.00000000000E+00 0. -1.
         11    1    3    3    0    0 -0.10520013014E+02  0.50187589780E+00 -0.42098941457E+00  0.10540388303E+02  0.51100000000E-03 0. -1.
        -11    1    3    3    0    0 -0.12132384711E+02  0.69454584467E+01  0.59894770488E+00  0.13992601275E+02  0.51100000000E-03 0.  1.
        -12    1    3    3    0    0 -0.15385492984E+02  0.55778001789E+01 -0.16520785720E+02  0.23254281541E+02  0.00000000000E+00 0.  1.
</event>
<event>
 7    1  0.2647566E-010  0.4778727E+02  0.7816164E-02  0.1312668E+00
        -11   -1    0    0    0    0  0.00000000000E+00  0.00000000000E+00  0.45593999997E+02  0.45594000000E+02  0.51100000000E-03 0.  1.
         11   -1    0    0    0    0 -0.00000000000E+00 -0.00000000000E+00 -0.45593999997E+02  0.45594000000E+02  0.51100000000E-03 0. -1.
    9900012    2    1    2    0    0  0.31608510914E+02 -0.20467529358E+02  0.21577890234E+02  0.47787273426E+02  0.20000010857E+02 0.  0.
         12    1    1    2    0    0 -0.31608510914E+02  0.20467529358E+02 -0.21577890234E+02  0.43400726574E+02  0.00000000000E+00 0. -1.
         11    1    3    3    0    0  0.12547964453E+02 -0.40002121239E+01  0.96178145806E+01  0.16308141111E+02  0.51100000000E-03 0. -1.
        -11    1    3    3    0    0  0.20677860125E+02 -0.11222077559E+02  0.86335052387E+01  0.25060852680E+02  0.51100000000E-03 0.  1.
         12    1    3    3    0    0 -0.16173136636E+01 -0.52452396754E+01  0.33265704144E+01  0.64182796340E+01  0.00000000000E+00 0. -1.
</event>
<event>
 7    1  0.2647566E-010  0.4778727E+02  0.7816164E-02  0.1312668E+00
        -11   -1    0    0    0    0  0.00000000000E+00  0.00000000000E+00  0.45593999997E+02  0.45594000000E+02  0.51100000000E-03 0.  1.
         11   -1    0    0    0    0 -0.00000000000E+00 -0.00000000000E+00 -0.45593999997E+02  0.45594000000E+02  0.51100000000E-03 0. -1.
    9900012    2    1    2    0    0 -0.35040303170E+02 -0.10759588028E+02  0.23238576747E+02  0.47787273854E+02  0.20000012811E+02 0.  0.
         12    1    1    2    0    0  0.35040303170E+02  0.10759588028E+02 -0.23238576747E+02  0.43400726146E+02  0.00000000000E+00 0. -1.
         11    1    3    3    0    0 -0.14719791876E+02 -0.11982978414E+02  0.49546286617E+01  0.19616635542E+02  0.51100000000E-03 0. -1.
        -11    1    3    3    0    0 -0.76868198577E+01  0.33385445864E+01  0.52136885245E+01  0.98699355506E+01  0.51100000000E-03 0.  1.
        -12    1    3    3    0    0 -0.12633691436E+02 -0.21151541996E+01  0.13070259561E+02  0.18300702762E+02  0.00000000000E+00 0.  1.
</event>
<event>
 7    1  0.2647566E-010  0.4778727E+02  0.7816164E-02  0.1312668E+00
        -11   -1    0    0    0    0  0.00000000000E+00  0.00000000000E+00  0.45593999997E+02  0.45594000000E+02  0.51100000000E-03 0. -1.
         11   -1    0    0    0    0 -0.00000000000E+00 -0.00000000000E+00 -0.45593999997E+02  0.45594000000E+02  0.51100000000E-03 0.  1.
    9900012    2    1    2    0    0 -0.28520211840E+02  0.95115658800E+01 -0.31300973929E+02  0.47787270308E+02  0.19999996642E+02 0.  0.
         12    1    1    2    0    0  0.28520211840E+02 -0.95115658800E+01  0.31300973929E+02  0.43400729692E+02  0.00000000000E+00 0. -1.
         11    1    3    3    0    0 -0.55337914518E+01  0.18015997297E+01 -0.45824601497E+01  0.74072633747E+01  0.51100000000E-03 0. -1.
        -11    1    3    3    0    0 -0.15484428810E+02  0.11967406460E+02 -0.10998507794E+02  0.22448909259E+02  0.51100000000E-03 0.  1.
         12    1    3    3    0    0 -0.75019915786E+01 -0.42574403099E+01 -0.15720005985E+02  0.17931097675E+02  0.00000000000E+00 0. -1.
</event>
<event>
 7    1  0.2647566E-010  0.4778727E+02  0.7816164E-02  0.1312668E+00
        -11   -1    0    0    0    0  0.00000000000E+00  0.00000000000E+00  0.45593999997E+02  0.45594000000E+02  0.51100000000E-03 0.  1.
         11   -1    0    0    0    0 -0.00000000000E+00 -0.00000000000E+00 -0.45593999997E+02  0.45594000000E+02  0.51100000000E-03 0. -1.
    9900012    2    1    2    0    0 -0.79620595066E+01  0.41173954106E+00  0.42662155917E+02  0.47787268802E+02  0.19999989775E+02 0.  0.
         12    1    1    2    0    0  0.79620595066E+01 -0.41173954106E+00 -0.42662155917E+02  0.43400731198E+02  0.00000000000E+00 0. -1.
         11    1    3    3    0    0  0.46921655206E+00 -0.26633451584E+01  0.10018598049E+02  0.10377180674E+02  0.51100000000E-03 0. -1.
        -11    1    3    3    0    0 -0.34649928858E+01 -0.41282428715E+01  0.25647132493E+02  0.26207326653E+02  0.51100000000E-03 0.  1.
         12    1    3    3    0    0 -0.49662831728E+01  0.72033275709E+01  0.69964253752E+01  0.11202761475E+02  0.00000000000E+00 0. -1.
</event>
<event>
 7    1  0.2647566E-010  0.4778726E+02  0.7816164E-02  0.1312668E+00
        -11   -1    0    0    0    0  0.00000000000E+00  0.00000000000E+00  0.45593999997E+02  0.45594000000E+02  0.51100000000E-03 0.  1.
         11   -1    0    0    0    0 -0.00000000000E+00 -0.00000000000E+00 -0.45593999997E+02  0.45594000000E+02  0.51100000000E-03 0. -1.
    9900012    2    1    2    0    0 -0.38477221688E+01  0.15347360429E+02  0.40413826508E+02  0.47787264856E+02  0.19999971785E+02 0.  0.
         12    1    1    2    0    0  0.38477221688E+01 -0.15347360429E+02 -0.40413826508E+02  0.43400735144E+02  0.00000000000E+00 0. -1.
         11    1    3    3    0    0 -0.57561801831E+01  0.30312386876E+01  0.27521042026E+02  0.28279493856E+02  0.51100000000E-03 0. -1.
        -11    1    3    3    0    0  0.30339756812E+01  0.11156615156E+01  0.41162625563E+01  0.52338634626E+01  0.51100000000E-03 0.  1.
         12    1    3    3    0    0 -0.11255176669E+01  0.11200460226E+02  0.87765219254E+01  0.14273907538E+02  0.00000000000E+00 0. -1.
</event>
<event>
 7    1  0.2647566E-010  0.4778727E+02  0.7816164E-02  0.1312668E+00
        -11   -1    0    0    0    0  0.00000000000E+00  0.00000000000E+00  0.45593999997E+02  0.45594000000E+02  0.51100000000E-03 0. -1.
         11   -1    0    0    0    0 -0.00000000000E+00 -0.00000000000E+00 -0.45593999997E+02  0.45594000000E+02  0.51100000000E-03 0.  1.
    9900012    2    1    2    0    0 -0.55483445928E+01 -0.28081790185E+02 -0.32622882430E+02  0.47787268143E+02  0.19999986771E+02 0.  0.
         12    1    1    2    0    0  0.55483445928E+01  0.28081790185E+02  0.32622882430E+02  0.43400731857E+02  0.00000000000E+00 0. -1.
         11    1    3    3    0    0 -0.91596828905E+01 -0.99618769124E+01 -0.15336008161E+02  0.20453164274E+02  0.51100000000E-03 0.  1.
        -11    1    3    3    0    0 -0.28382717757E+01 -0.14418059259E+01 -0.16804124575E+01  0.35997746165E+01  0.51100000000E-03 0. -1.
        -12    1    3    3    0    0  0.64496100735E+01 -0.16678107347E+02 -0.15606461811E+02  0.23734329252E+02  0.00000000000E+00 0.  1.
</event>
<event>
 7    1  0.2647566E-010  0.4778726E+02  0.7816164E-02  0.1312668E+00
        -11   -1    0    0    0    0  0.00000000000E+00  0.00000000000E+00  0.45593999997E+02  0.45594000000E+02  0.51100000000E-03 0.  1.
         11   -1    0    0    0    0 -0.00000000000E+00 -0.00000000000E+00 -0.45593999997E+02  0.45594000000E+02  0.51100000000E-03 0. -1.
    9900012    2    1    2    0    0 -0.24791135922E+02  0.92289987783E+01  0.34407106419E+02  0.47787264858E+02  0.19999971792E+02 0.  0.
         12    1    1    2    0    0  0.24791135922E+02 -0.92289987783E+01 -0.34407106419E+02  0.43400735142E+02  0.00000000000E+00 0. -1.
         11    1    3    3    0    0 -0.35268303657E+01  0.53424153458E+01  0.32982422351E+00  0.64100482397E+01  0.51100000000E-03 0. -1.
        -11    1    3    3    0    0 -0.26152442850E+01  0.35914775139E+01  0.98209130561E+01  0.10779079131E+02  0.51100000000E-03 0.  1.
        -12    1    3    3    0    0 -0.18649061272E+02  0.29510591851E+00  0.24256369139E+02  0.30598137487E+02  0.00000000000E+00 0.  1.
</event>
<event>
 7    1  0.2647566E-010  0.4778727E+02  0.7816164E-02  0.1312668E+00
        -11   -1    0    0    0    0  0.00000000000E+00  0.00000000000E+00  0.45593999997E+02  0.45594000000E+02  0.51100000000E-03 0.  1.
         11   -1    0    0    0    0 -0.00000000000E+00 -0.00000000000E+00 -0.45593999997E+02  0.45594000000E+02  0.51100000000E-03 0. -1.
    9900012    2    1    2    0    0  0.30944616306E+02 -0.24833141398E+02  0.17588886055E+02  0.47787273017E+02  0.20000008994E+02 0.  0.
         12    1    1    2    0    0 -0.30944616306E+02  0.24833141398E+02 -0.17588886055E+02  0.43400726983E+02  0.00000000000E+00 0. -1.
         11    1    3    3    0    0  0.22393717959E+02 -0.15195192336E+02  0.61866704342E+01  0.27760536117E+02  0.51100000000E-03 0.  1.
        -11    1    3    3    0    0  0.48003993709E+01  0.81117249686E+00  0.13549250985E+01  0.50534797144E+01  0.51100000000E-03 0. -1.
        -12    1    3    3    0    0  0.37504989754E+01 -0.10449121558E+02  0.10047290523E+02  0.14973257186E+02  0.00000000000E+00 0.  1.
</event>
<event>
 7    1  0.2647566E-010  0.4778727E+02  0.7816164E-02  0.1312668E+00
        -11   -1    0    0    0    0  0.00000000000E+00  0.00000000000E+00  0.45593999997E+02  0.45594000000E+02  0.51100000000E-03 0.  1.
         11   -1    0    0    0    0 -0.00000000000E+00 -0.00000000000E+00 -0.45593999997E+02  0.45594000000E+02  0.51100000000E-03 0. -1.
    9900012    2    1    2    0    0  0.31725498394E+02 -0.18571668878E+02  0.23069667646E+02  0.47787266152E+02  0.19999977694E+02 0.  0.
         12    1    1    2    0    0 -0.31725498394E+02  0.18571668878E+02 -0.23069667646E+02  0.43400733848E+02  0.00000000000E+00 0. -1.
         11    1    3    3    0    0  0.49268243990E+01 -0.45846470383E+01  0.10791656293E+00  0.67308419510E+01  0.51100000000E-03 0. -1.
        -11    1    3    3    0    0 -0.45582883268E+00 -0.31066165577E+01 -0.86356166448E+00  0.32564682358E+01  0.51100000000E-03 0.  1.
        -12    1    3    3    0    0  0.27254502827E+02 -0.10880405282E+02  0.23825312748E+02  0.37799955965E+02  0.00000000000E+00 0.  1.
</event>
<event>
 7    1  0.2647566E-010  0.4778728E+02  0.7816164E-02  0.1312668E+00
        -11   -1    0    0    0    0  0.00000000000E+00  0.00000000000E+00  0.45593999997E+02  0.45594000000E+02  0.51100000000E-03 0.  1.
         11   -1    0    0    0    0 -0.00000000000E+00 -0.00000000000E+00 -0.45593999997E+02  0.45594000000E+02  0.51100000000E-03 0. -1.
    9900012    2    1    2    0    0  0.30340091191E+02 -0.23865182624E+02  0.19838211596E+02  0.47787277489E+02  0.20000029382E+02 0.  0.
         12    1    1    2    0    0 -0.30340091191E+02  0.23865182624E+02 -0.19838211596E+02  0.43400722511E+02  0.00000000000E+00 0. -1.
         11    1    3    3    0    0  0.10975535629E+02 -0.40581431606E+01 -0.59991866434E+00  0.11717116152E+02  0.51100000000E-03 0. -1.
        -11    1    3    3    0    0  0.44025167582E+01 -0.85417946791E+01  0.20549087733E+01  0.98268540477E+01  0.51100000000E-03 0.  1.
        -12    1    3    3    0    0  0.14962038805E+02 -0.11265244785E+02  0.18383221487E+02  0.26243307289E+02  0.00000000000E+00 0.  1.
</event>
<event>
 7    1  0.2647566E-010  0.4778727E+02  0.7816164E-02  0.1312668E+00
        -11   -1    0    0    0    0  0.00000000000E+00  0.00000000000E+00  0.45593999997E+02  0.45594000000E+02  0.51100000000E-03 0.  1.
         11   -1    0    0    0    0 -0.00000000000E+00 -0.00000000000E+00 -0.45593999997E+02  0.45594000000E+02  0.51100000000E-03 0. -1.
    9900012    2    1    2    0    0  0.22510552872E+02 -0.29544748863E+02  0.22450079425E+02  0.47787271409E+02  0.20000001664E+02 0.  0.
         12    1    1    2    0    0 -0.22510552872E+02  0.29544748863E+02 -0.22450079425E+02  0.43400728591E+02  0.00000000000E+00 0. -1.
         11    1    3    3    0    0  0.64629680968E+01 -0.13550799070E+02  0.31283797987E+01  0.15335607992E+02  0.51100000000E-03 0. -1.
        -11    1    3    3    0    0  0.12736571146E+02 -0.11173333324E+02  0.61230733409E+01  0.18015428097E+02  0.51100000000E-03 0.  1.
         12    1    3    3    0    0  0.33110136294E+01 -0.48206164691E+01  0.13198626285E+02  0.14436235320E+02  0.00000000000E+00 0. -1.
</event>
<event>
 7    1  0.2647566E-010  0.4778727E+02  0.7816164E-02  0.1312668E+00
        -11   -1    0    0    0    0  0.00000000000E+00  0.00000000000E+00  0.45593999997E+02  0.45594000000E+02  0.51100000000E-03 0.  1.
         11   -1    0    0    0    0 -0.00000000000E+00 -0.00000000000E+00 -0.45593999997E+02  0.45594000000E+02  0.51100000000E-03 0. -1.
    9900012    2    1    2    0    0  0.34065830007E+01 -0.19583881090E+02  0.38580952997E+02  0.47787272582E+02  0.20000007009E+02 0.  0.
         12    1    1    2    0    0 -0.34065830007E+01  0.19583881090E+02 -0.38580952997E+02  0.43400727418E+02  0.00000000000E+00 0. -1.
         11    1    3    3    0    0  0.73993823743E+01 -0.47134586213E+01  0.11334826219E+02  0.14333381924E+02  0.51100000000E-03 0. -1.
        -11    1    3    3    0    0  0.21588570268E+01 -0.11347266385E+02  0.21174257505E+02  0.24119914992E+02  0.51100000000E-03 0.  1.
         12    1    3    3    0    0 -0.61516564005E+01 -0.35231560836E+01  0.60718692728E+01  0.93339756655E+01  0.00000000000E+00 0. -1.
</event>
<event>
 7    1  0.2647566E-010  0.4778727E+02  0.7816164E-02  0.1312668E+00
        -11   -1    0    0    0    0  0.00000000000E+00  0.00000000000E+00  0.45593999997E+02  0.45594000000E+02  0.51100000000E-03 0.  1.
         11   -1    0    0    0    0 -0.00000000000E+00 -0.00000000000E+00 -0.45593999997E+02  0.45594000000E+02  0.51100000000E-03 0. -1.
    9900012    2    1    2    0    0 -0.38720140406E+02  0.16175913330E+02  0.11077634917E+02  0.47787269125E+02  0.19999991247E+02 0.  0.
         12    1    1    2    0    0  0.38720140406E+02 -0.16175913330E+02 -0.11077634917E+02  0.43400730875E+02  0.00000000000E+00 0. -1.
         11    1    3    3    0    0 -0.82122868009E+01  0.50527956947E+01 -0.53481494809E+01  0.11026110011E+02  0.51100000000E-03 0. -1.
        -11    1    3    3    0    0 -0.35845101266E+01 -0.32418860569E+00  0.13024875841E+01  0.38275691068E+01  0.51100000000E-03 0.  1.
        -12    1    3    3    0    0 -0.26923343479E+02  0.11447306241E+02  0.15123296813E+02  0.32933590007E+02  0.00000000000E+00 0.  1.
</event>
<event>
 7    1  0.2647566E-010  0.4778725E+02  0.7816164E-02  0.1312668E+00
        -11   -1    0    0    0    0  0.00000000000E+00  0.00000000000E+00  0.45593999997E+02  0.45594000000E+02  0.51100000000E-03 0.  1.
         11   -1    0    0    0    0 -0.00000000000E+00 -0.00000000000E+00 -0.45593999997E+02  0.45594000000E+02  0.51100000000E-03 0. -1.
    9900012    2    1    2    0    0  0.14397322748E+02  0.15653426651E+01  0.40913220320E+02  0.47787253498E+02  0.19999920000E+02 0.  0.
         12    1    1    2    0    0 -0.14397322748E+02 -0.15653426651E+01 -0.40913220320E+02  0.43400746502E+02  0.00000000000E+00 0. -1.
         11    1    3    3    0    0  0.29395253717E+01 -0.45971449389E+01  0.44553010693E+01  0.70444487988E+01  0.51100000000E-03 0. -1.
        -11    1    3    3    0    0  0.23274878897E+01 -0.12040160891E+01  0.19301324719E+00  0.26275671246E+01  0.51100000000E-03 0.  1.
        -12    1    3    3    0    0  0.91303094870E+01  0.73665036930E+01  0.36264906003E+02  0.38115237575E+02  0.00000000000E+00 0.  1.
</event>
<event>
 7    1  0.2647566E-010  0.4778727E+02  0.7816164E-02  0.1312668E+00
        -11   -1    0    0    0    0  0.00000000000E+00  0.00000000000E+00  0.45593999997E+02  0.45594000000E+02  0.51100000000E-03 0.  1.
         11   -1    0    0    0    0 -0.00000000000E+00 -0.00000000000E+00 -0.45593999997E+02  0.45594000000E+02  0.51100000000E-03 0. -1.
    9900012    2    1    2    0    0 -0.15150469651E+02 -0.15734075364E+02  0.37503673408E+02  0.47787269852E+02  0.19999994565E+02 0.  0.
         12    1    1    2    0    0  0.15150469651E+02  0.15734075364E+02 -0.37503673408E+02  0.43400730148E+02  0.00000000000E+00 0. -1.
         11    1    3    3    0    0 -0.63494344892E+01 -0.80323086776E+01  0.17540390744E+02  0.20310061761E+02  0.51100000000E-03 0. -1.
        -11    1    3    3    0    0 -0.91898777896E+01  0.69063753698E+00  0.15319374311E+02  0.17877753313E+02  0.51100000000E-03 0.  1.
         12    1    3    3    0    0  0.38884262753E+00 -0.83924042237E+01  0.46439083537E+01  0.95994547783E+01  0.00000000000E+00 0. -1.
</event>
<event>
 7    1  0.2647566E-010  0.4778727E+02  0.7816164E-02  0.1312668E+00
        -11   -1    0    0    0    0  0.00000000000E+00  0.00000000000E+00  0.45593999997E+02  0.45594000000E+02  0.51100000000E-03 0. -1.
         11   -1    0    0    0    0 -0.00000000000E+00 -0.00000000000E+00 -0.45593999997E+02  0.45594000000E+02  0.51100000000E-03 0.  1.
    9900012    2    1    2    0    0  0.53850855277E+01 -0.40479393526E+02  0.14698409899E+02  0.47787266136E+02  0.19999977621E+02 0.  0.
         12    1    1    2    0    0 -0.53850855277E+01  0.40479393526E+02 -0.14698409899E+02  0.43400733864E+02  0.00000000000E+00 0. -1.
         11    1    3    3    0    0 -0.16989887093E+01 -0.11523719575E+01  0.72565853177E+00  0.21774077084E+01  0.51100000000E-03 0. -1.
        -11    1    3    3    0    0 -0.38448265148E+01 -0.12512429378E+02  0.98057953397E+01  0.16355341707E+02  0.51100000000E-03 0.  1.
        -12    1    3    3    0    0  0.10928900752E+02 -0.26814592191E+02  0.41669560278E+01  0.29254516720E+02  0.00000000000E+00 0.  1.
</event>
<event>
 7    1  0.2647566E-010  0.4778727E+02  0.7816164E-02  0.1312668E+00
        -11   -1    0    0    0    0  0.00000000000E+00  0.00000000000E+00  0.45593999997E+02  0.45594000000E+02  0.51100000000E-03 0.  1.
         11   -1    0    0    0    0 -0.00000000000E+00 -0.00000000000E+00 -0.45593999997E+02  0.45594000000E+02  0.51100000000E-03 0. -1.
    9900012    2    1    2    0    0  0.21443003305E+02  0.28835214019E+00  0.37732454155E+02  0.47787266893E+02  0.19999981071E+02 0.  0.
         12    1    1    2    0    0 -0.21443003305E+02 -0.28835214019E+00 -0.37732454155E+02  0.43400733107E+02  0.00000000000E+00 0. -1.
         11    1    3    3    0    0  0.46889262741E+00  0.40014263192E+01  0.10104131210E+02  0.10877717622E+02  0.51100000000E-03 0. -1.
        -11    1    3    3    0    0  0.12591288527E+02 -0.46923601646E+00  0.24210685172E+02  0.27293186072E+02  0.51100000000E-03 0.  1.
        -12    1    3    3    0    0  0.83828221501E+01 -0.32438381626E+01  0.34176377728E+01  0.96163631988E+01  0.00000000000E+00 0.  1.
</event>
<event>
 7    1  0.2647566E-010  0.4778728E+02  0.7816164E-02  0.1312668E+00
        -11   -1    0    0    0    0  0.00000000000E+00  0.00000000000E+00  0.45593999997E+02  0.45594000000E+02  0.51100000000E-03 0. -1.
         11   -1    0    0    0    0 -0.00000000000E+00 -0.00000000000E+00 -0.45593999997E+02  0.45594000000E+02  0.51100000000E-03 0.  1.
    9900012    2    1    2    0    0 -0.39793395985E+02  0.16159419313E+02 -0.62435108014E+01  0.47787278535E+02  0.20000034153E+02 0.  0.
         12    1    1    2    0    0  0.39793395985E+02 -0.16159419313E+02  0.62435108014E+01  0.43400721465E+02  0.00000000000E+00 0. -1.
         11    1    3    3    0    0 -0.16431120651E+02  0.16064035747E+01  0.42929308758E+00  0.16515040148E+02  0.51100000000E-03 0. -1.
        -11    1    3    3    0    0 -0.75236357112E+01  0.13356020367E+00 -0.63571303702E+01  0.98506872576E+01  0.51100000000E-03 0.  1.
        -12    1    3    3    0    0 -0.15838639623E+02  0.14419455534E+02 -0.31567351886E+00  0.21421551129E+02  0.00000000000E+00 0.  1.
</event>
<event>
 7    1  0.2647566E-010  0.4778728E+02  0.7816164E-02  0.1312668E+00
        -11   -1    0    0    0    0  0.00000000000E+00  0.00000000000E+00  0.45593999997E+02  0.45594000000E+02  0.51100000000E-03 0.  1.
         11   -1    0    0    0    0 -0.00000000000E+00 -0.00000000000E+00 -0.45593999997E+02  0.45594000000E+02  0.51100000000E-03 0. -1.
    9900012    2    1    2    0    0  0.23824582575E+01 -0.14698341783E+02  0.40766468084E+02  0.47787282511E+02  0.20000052281E+02 0.  0.
         12    1    1    2    0    0 -0.23824582575E+01  0.14698341783E+02 -0.40766468084E+02  0.43400717489E+02  0.00000000000E+00 0. -1.
         11    1    3    3    0    0  0.29786162201E+01 -0.12808000083E+02  0.25545025368E+02  0.28730912656E+02  0.51100000000E-03 0. -1.
        -11    1    3    3    0    0 -0.32341590273E+01 -0.47346249411E+01  0.35186347557E+01  0.67273507975E+01  0.51100000000E-03 0.  1.
        -12    1    3    3    0    0  0.26380010648E+01  0.28442832413E+01  0.11702807960E+02  0.12329019057E+02  0.00000000000E+00 0.  1.
</event>
<event>
 7    1  0.2647566E-010  0.4778727E+02  0.7816164E-02  0.1312668E+00
        -11   -1    0    0    0    0  0.00000000000E+00  0.00000000000E+00  0.45593999997E+02  0.45594000000E+02  0.51100000000E-03 0.  1.
         11   -1    0    0    0    0 -0.00000000000E+00 -0.00000000000E+00 -0.45593999997E+02  0.45594000000E+02  0.51100000000E-03 0. -1.
    9900012    2    1    2    0    0  0.33335325756E+01 -0.15453055169E+02  0.40419229437E+02  0.47787268880E+02  0.19999990131E+02 0.  0.
         12    1    1    2    0    0 -0.33335325756E+01  0.15453055169E+02 -0.40419229437E+02  0.43400731120E+02  0.00000000000E+00 0. -1.
         11    1    3    3    0    0 -0.12765815749E+01 -0.22217772546E+01 -0.11795033516E+01  0.28208479406E+01  0.51100000000E-03 0. -1.
        -11    1    3    3    0    0  0.65845011439E+00 -0.10108407668E+02  0.16453955607E+02  0.19322166481E+02  0.51100000000E-03 0.  1.
        -12    1    3    3    0    0  0.39516640361E+01 -0.31228702466E+01  0.25144777181E+02  0.25644254458E+02  0.00000000000E+00 0.  1.
</event>
<event>
 7    1  0.2647566E-010  0.4778727E+02  0.7816164E-02  0.1312668E+00
        -11   -1    0    0    0    0  0.00000000000E+00  0.00000000000E+00  0.45593999997E+02  0.45594000000E+02  0.51100000000E-03 0.  1.
         11   -1    0    0    0    0 -0.00000000000E+00 -0.00000000000E+00 -0.45593999997E+02  0.45594000000E+02  0.51100000000E-03 0. -1.
    9900012    2    1    2    0    0  0.62325000048E+01 -0.32486419516E+02  0.28096475466E+02  0.47787269097E+02  0.19999991122E+02 0.  0.
         12    1    1    2    0    0 -0.62325000048E+01  0.32486419516E+02 -0.28096475466E+02  0.43400730903E+02  0.00000000000E+00 0. -1.
         11    1    3    3    0    0  0.12534414600E+01 -0.35326109407E+01  0.34150960382E+01  0.50708319597E+01  0.51100000000E-03 0. -1.
        -11    1    3    3    0    0  0.11270770467E+02 -0.21941570547E+02  0.21647592661E+02  0.32818913042E+02  0.51100000000E-03 0.  1.
         12    1    3    3    0    0 -0.62917119219E+01 -0.70122380285E+01  0.30337867665E+01  0.98975240955E+01  0.00000000000E+00 0. -1.
</event>
<event>
 7    1  0.2647566E-010  0.4778727E+02  0.7816164E-02  0.1312668E+00
        -11   -1    0    0    0    0  0.00000000000E+00  0.00000000000E+00  0.45593999997E+02  0.45594000000E+02  0.51100000000E-03 0.  1.
         11   -1    0    0    0    0 -0.00000000000E+00 -0.00000000000E+00 -0.45593999997E+02  0.45594000000E+02  0.51100000000E-03 0. -1.
    9900012    2    1    2    0    0 -0.75042722720E+01  0.15116679756E+02  0.39984936664E+02  0.47787271098E+02  0.20000000245E+02 0.  0.
         12    1    1    2    0    0  0.75042722720E+01 -0.15116679756E+02 -0.39984936664E+02  0.43400728902E+02  0.00000000000E+00 0. -1.
         11    1    3    3    0    0  0.43879257755E+01  0.39541089182E+00  0.82566738973E+01  0.93585739562E+01  0.51100000000E-03 0. -1.
        -11    1    3    3    0    0 -0.50976043604E+01  0.60248070282E+01  0.23127561609E+02  0.24437020607E+02  0.51100000000E-03 0.  1.
        -12    1    3    3    0    0 -0.67945936871E+01  0.86964618357E+01  0.86007011583E+01  0.13991676535E+02  0.00000000000E+00 0.  1.
</event>
<event>
 7    1  0.2647566E-010  0.4778727E+02  0.7816164E-02  0.1312668E+00
        -11   -1    0    0    0    0  0.00000000000E+00  0.00000000000E+00  0.45593999997E+02  0.45594000000E+02  0.51100000000E-03 0.  1.
         11   -1    0    0    0    0 -0.00000000000E+00 -0.00000000000E+00 -0.45593999997E+02  0.45594000000E+02  0.51100000000E-03 0. -1.
    9900012    2    1    2    0    0 -0.31742047464E+02  0.11740733809E+02  0.27170228456E+02  0.47787265882E+02  0.19999976464E+02 0.  0.
         12    1    1    2    0    0  0.31742047464E+02 -0.11740733809E+02 -0.27170228456E+02  0.43400734118E+02  0.00000000000E+00 0. -1.
         11    1    3    3    0    0  0.10717286025E+01 -0.19460076145E+00 -0.11663575462E+01  0.15958890439E+01  0.51100000000E-03 0. -1.
        -11    1    3    3    0    0 -0.89114403670E+01 -0.88307642219E+00  0.10150459406E+02  0.13536078450E+02  0.51100000000E-03 0.  1.
        -12    1    3    3    0    0 -0.23902335700E+02  0.12818410993E+02  0.18186126596E+02  0.32655298389E+02  0.00000000000E+00 0.  1.
</event>
<event>
 7    1  0.2647566E-010  0.4778728E+02  0.7816164E-02  0.1312668E+00
        -11   -1    0    0    0    0  0.00000000000E+00  0.00000000000E+00  0.45593999997E+02  0.45594000000E+02  0.51100000000E-03 0.  1.
         11   -1    0    0    0    0 -0.00000000000E+00 -0.00000000000E+00 -0.45593999997E+02  0.45594000000E+02  0.51100000000E-03 0. -1.
    9900012    2    1    2    0    0 -0.37805255179E+02  0.14977354782E+02  0.15167852198E+02  0.47787283235E+02  0.20000055581E+02 0.  0.
         12    1    1    2    0    0  0.37805255179E+02 -0.14977354782E+02 -0.15167852198E+02  0.43400716765E+02  0.00000000000E+00 0. -1.
         11    1    3    3    0    0 -0.25309429133E+02  0.13094367496E+02  0.11823536384E+02  0.30851672176E+02  0.51100000000E-03 0.  1.
        -11    1    3    3    0    0 -0.10267465639E+02  0.30764903254E+01  0.67705538225E+01  0.12677777514E+02  0.51100000000E-03 0. -1.
         12    1    3    3    0    0 -0.22283604078E+01 -0.11935030390E+01 -0.34262380085E+01  0.42578335456E+01  0.00000000000E+00 0. -1.
</event>
<event>
 7    1  0.2647566E-010  0.4778727E+02  0.7816164E-02  0.1312668E+00
        -11   -1    0    0    0    0  0.00000000000E+00  0.00000000000E+00  0.45593999997E+02  0.45594000000E+02  0.51100000000E-03 0. -1.
         11   -1    0    0    0    0 -0.00000000000E+00 -0.00000000000E+00 -0.45593999997E+02  0.45594000000E+02  0.51100000000E-03 0.  1.
    9900012    2    1    2    0    0  0.20894765365E+01 -0.32636834336E+02 -0.28532335543E+02  0.47787273748E+02  0.20000012325E+02 0.  0.
         12    1    1    2    0    0 -0.20894765365E+01  0.32636834336E+02  0.28532335543E+02  0.43400726252E+02  0.00000000000E+00 0. -1.
         11    1    3    3    0    0  0.17863354236E+01 -0.88599789860E+01 -0.41048322233E+01  0.99267250249E+01  0.51100000000E-03 0.  1.
        -11    1    3    3    0    0  0.77988304379E+01 -0.15679327473E+02 -0.17893595025E+02  0.25036849031E+02  0.51100000000E-03 0. -1.
         12    1    3    3    0    0 -0.74956893251E+01 -0.80975278766E+01 -0.65339082948E+01  0.12823699691E+02  0.00000000000E+00 0. -1.
</event>
<event>
 7    1  0.2647566E-010  0.4778729E+02  0.7816164E-02  0.1312668E+00
        -11   -1    0    0    0    0  0.00000000000E+00  0.00000000000E+00  0.45593999997E+02  0.45594000000E+02  0.51100000000E-03 0. -1.
         11   -1    0    0    0    0 -0.00000000000E+00 -0.00000000000E+00 -0.45593999997E+02  0.45594000000E+02  0.51100000000E-03 0.  1.
    9900012    2    1    2    0    0 -0.34372913608E+02 -0.23823922141E+02  0.11599349628E+02  0.47787293003E+02  0.20000100117E+02 0.  0.
         12    1    1    2    0    0  0.34372913608E+02  0.23823922141E+02 -0.11599349628E+02  0.43400706997E+02  0.00000000000E+00 0. -1.
         11    1    3    3    0    0 -0.15918782837E+02 -0.12449356969E+02 -0.14021860905E+01  0.20257350815E+02  0.51100000000E-03 0.  1.
        -11    1    3    3    0    0 -0.75249822176E+01 -0.20055345963E+01 -0.48672733325E+00  0.78028475668E+01  0.51100000000E-03 0. -1.
        -12    1    3    3    0    0 -0.10929148553E+02 -0.93690305761E+01  0.13488263052E+02  0.19727094621E+02  0.00000000000E+00 0.  1.
</event>
<event>
 7    1  0.2647566E-010  0.4778727E+02  0.7816164E-02  0.1312668E+00
        -11   -1    0    0    0    0  0.00000000000E+00  0.00000000000E+00  0.45593999997E+02  0.45594000000E+02  0.51100000000E-03 0.  1.
         11   -1    0    0    0    0 -0.00000000000E+00 -0.00000000000E+00 -0.45593999997E+02  0.45594000000E+02  0.51100000000E-03 0. -1.
    9900012    2    1    2    0    0  0.24810991680E+02 -0.17569414795E+02  0.30973432735E+02  0.47787272128E+02  0.20000004941E+02 0.  0.
         12    1    1    2    0    0 -0.24810991680E+02  0.17569414795E+02 -0.30973432735E+02  0.43400727872E+02  0.00000000000E+00 0. -1.
         11    1    3    3    0    0  0.41940759122E+00 -0.47839659253E+00 -0.17096616687E+01  0.18242010059E+01  0.51100000000E-03 0. -1.
        -11    1    3    3    0    0 -0.33282945461E+00 -0.32138378020E+01  0.69903818998E+01  0.77009719016E+01  0.51100000000E-03 0.  1.
        -12    1    3    3    0    0  0.24724413544E+02 -0.13877180400E+02  0.25692712504E+02  0.38262099221E+02  0.00000000000E+00 0.  1.
</event>
<event>
 7    1  0.2647566E-010  0.4778727E+02  0.7816164E-02  0.1312668E+00
        -11   -1    0    0    0    0  0.00000000000E+00  0.00000000000E+00  0.45593999997E+02  0.45594000000E+02  0.51100000000E-03 0.  1.
         11   -1    0    0    0    0 -0.00000000000E+00 -0.00000000000E+00 -0.45593999997E+02  0.45594000000E+02  0.51100000000E-03 0. -1.
    9900012    2    1    2    0    0  0.52675142205E+01  0.13967533391E+02  0.40752722150E+02  0.47787273535E+02  0.20000011356E+02 0.  0.
         12    1    1    2    0    0 -0.52675142205E+01 -0.13967533391E+02 -0.40752722150E+02  0.43400726465E+02  0.00000000000E+00 0. -1.
         11    1    3    3    0    0  0.24702688465E+00  0.32264527611E+01  0.47452165270E+01  0.57435267781E+01  0.51100000000E-03 0. -1.
        -11    1    3    3    0    0  0.15288330917E+01  0.66317060476E+01  0.36013883399E+02  0.36651284472E+02  0.51100000000E-03 0.  1.
        -12    1    3    3    0    0  0.34916542442E+01  0.41093745823E+01 -0.63777763031E-02  0.53924622849E+01  0.00000000000E+00 0.  1.
</event>
<event>
 7    1  0.2647566E-010  0.4778727E+02  0.7816164E-02  0.1312668E+00
        -11   -1    0    0    0    0  0.00000000000E+00  0.00000000000E+00  0.45593999997E+02  0.45594000000E+02  0.51100000000E-03 0.  1.
         11   -1    0    0    0    0 -0.00000000000E+00 -0.00000000000E+00 -0.45593999997E+02  0.45594000000E+02  0.51100000000E-03 0. -1.
    9900012    2    1    2    0    0 -0.78680853048E+01  0.35190764382E+00  0.42680121024E+02  0.47787270329E+02  0.19999996736E+02 0.  0.
         12    1    1    2    0    0  0.78680853048E+01 -0.35190764382E+00 -0.42680121024E+02  0.43400729671E+02  0.00000000000E+00 0. -1.
         11    1    3    3    0    0 -0.26447354713E+01  0.26190832069E+01  0.75378077869E+00  0.37976845947E+01  0.51100000000E-03 0.  1.
        -11    1    3    3    0    0  0.29791308456E+01 -0.10571451716E+01  0.36638464729E+01  0.48390647596E+01  0.51100000000E-03 0. -1.
        -12    1    3    3    0    0 -0.82024806792E+01 -0.12100303915E+01  0.38262493773E+02  0.39150520974E+02  0.00000000000E+00 0.  1.
</event>
<event>
 7    1  0.2647566E-010  0.4778727E+02  0.7816164E-02  0.1312668E+00
        -11   -1    0    0    0    0  0.00000000000E+00  0.00000000000E+00  0.45593999997E+02  0.45594000000E+02  0.51100000000E-03 0. -1.
         11   -1    0    0    0    0 -0.00000000000E+00 -0.00000000000E+00 -0.45593999997E+02  0.45594000000E+02  0.51100000000E-03 0.  1.
    9900012    2    1    2    0    0  0.37248604258E+02  0.22182763701E+02 -0.20223086858E+01  0.47787271239E+02  0.20000000888E+02 0.  0.
         12    1    1    2    0    0 -0.37248604258E+02 -0.22182763701E+02  0.20223086858E+01  0.43400728761E+02  0.00000000000E+00 0. -1.
         11    1    3    3    0    0  0.12886027302E+02  0.48439765539E+01  0.18994737213E+01  0.13896827305E+02  0.51100000000E-03 0. -1.
        -11    1    3    3    0    0  0.24592109104E+02  0.14681849946E+02  0.59224596434E+00  0.28647500826E+02  0.51100000000E-03 0.  1.
         12    1    3    3    0    0 -0.22953214796E+00  0.26569372009E+01 -0.45140283714E+01  0.52429431081E+01  0.00000000000E+00 0. -1.
</event>
<event>
 7    1  0.2647566E-010  0.4778727E+02  0.7816164E-02  0.1312668E+00
        -11   -1    0    0    0    0  0.00000000000E+00  0.00000000000E+00  0.45593999997E+02  0.45594000000E+02  0.51100000000E-03 0. -1.
         11   -1    0    0    0    0 -0.00000000000E+00 -0.00000000000E+00 -0.45593999997E+02  0.45594000000E+02  0.51100000000E-03 0.  1.
    9900012    2    1    2    0    0  0.27342890142E+02 -0.16166563208E+02 -0.29574177754E+02  0.47787269625E+02  0.19999993528E+02 0.  0.
         12    1    1    2    0    0 -0.27342890142E+02  0.16166563208E+02  0.29574177754E+02  0.43400730375E+02  0.00000000000E+00 0. -1.
         11    1    3    3    0    0  0.91482265578E+00  0.19210271653E+01  0.12733188739E+01  0.24796344644E+01  0.51100000000E-03 0. -1.
        -11    1    3    3    0    0  0.46512578586E+01  0.27624715174E+00 -0.51261584798E+01  0.69273381019E+01  0.51100000000E-03 0.  1.
        -12    1    3    3    0    0  0.21776809627E+02 -0.18363837525E+02 -0.25721338148E+02  0.38380297059E+02  0.00000000000E+00 0.  1.
</event>
<event>
 7    1  0.2647566E-010  0.4778727E+02  0.7816164E-02  0.1312668E+00
        -11   -1    0    0    0    0  0.00000000000E+00  0.00000000000E+00  0.45593999997E+02  0.45594000000E+02  0.51100000000E-03 0.  1.
         11   -1    0    0    0    0 -0.00000000000E+00 -0.00000000000E+00 -0.45593999997E+02  0.45594000000E+02  0.51100000000E-03 0. -1.
    9900012    2    1    2    0    0  0.33787257648E+02  0.26281611827E+02  0.71639298157E+01  0.47787265098E+02  0.19999972889E+02 0.  0.
         12    1    1    2    0    0 -0.33787257648E+02 -0.26281611827E+02 -0.71639298157E+01  0.43400734902E+02  0.00000000000E+00 0. -1.
         11    1    3    3    0    0  0.36476684885E+01  0.48754742201E+01 -0.33964967396E+01  0.69722252285E+01  0.51100000000E-03 0. -1.
        -11    1    3    3    0    0  0.11103736811E+02  0.16215860019E+02  0.62031973498E+01  0.20608899654E+02  0.51100000000E-03 0.  1.
        -12    1    3    3    0    0  0.19035852349E+02  0.51902775881E+01  0.43572292055E+01  0.20206140216E+02  0.00000000000E+00 0.  1.
</event>
<event>
 7    1  0.2647566E-010  0.4778726E+02  0.7816164E-02  0.1312668E+00
        -11   -1    0    0    0    0  0.00000000000E+00  0.00000000000E+00  0.45593999997E+02  0.45594000000E+02  0.51100000000E-03 0. -1.
         11   -1    0    0    0    0 -0.00000000000E+00 -0.00000000000E+00 -0.45593999997E+02  0.45594000000E+02  0.51100000000E-03 0.  1.
    9900012    2    1    2    0    0  0.42511272671E+02 -0.41997453051E+01 -0.76666623837E+01  0.47787264098E+02  0.19999968330E+02 0.  0.
         12    1    1    2    0    0 -0.42511272671E+02  0.41997453051E+01  0.76666623837E+01  0.43400735902E+02  0.00000000000E+00 0. -1.
         11    1    3    3    0    0  0.77253955203E+01 -0.31747235813E+01  0.13189631535E+01  0.84557832177E+01  0.51100000000E-03 0. -1.
        -11    1    3    3    0    0  0.34003812073E+02 -0.42610265844E+01 -0.58642125836E+01  0.34767866954E+02  0.51100000000E-03 0.  1.
         12    1    3    3    0    0  0.78206507713E+00  0.32360048606E+01 -0.31214129536E+01  0.45636139264E+01  0.00000000000E+00 0. -1.
</event>
<event>
 7    1  0.2647566E-010  0.4778728E+02  0.7816164E-02  0.1312668E+00
        -11   -1    0    0    0    0  0.00000000000E+00  0.00000000000E+00  0.45593999997E+02  0.45594000000E+02  0.51100000000E-03 0.  1.
         11   -1    0    0    0    0 -0.00000000000E+00 -0.00000000000E+00 -0.45593999997E+02  0.45594000000E+02  0.51100000000E-03 0. -1.
    9900012    2    1    2    0    0  0.62341338022E+01 -0.18394325862E+02  0.38812462893E+02  0.47787275075E+02  0.20000018375E+02 0.  0.
         12    1    1    2    0    0 -0.62341338022E+01  0.18394325862E+02 -0.38812462893E+02  0.43400724925E+02  0.00000000000E+00 0. -1.
         11    1    3    3    0    0 -0.16777067434E+01 -0.90868566868E+01  0.14355093559E+02  0.17072034903E+02  0.51100000000E-03 0. -1.
        -11    1    3    3    0    0 -0.24631100814E+00  0.22207455028E+01  0.10940408760E+02  0.11166240361E+02  0.51100000000E-03 0.  1.
        -12    1    3    3    0    0  0.81581515537E+01 -0.11528214678E+02  0.13516960574E+02  0.19548999811E+02  0.00000000000E+00 0.  1.
</event>
<event>
 7    1  0.2647566E-010  0.4778727E+02  0.7816164E-02  0.1312668E+00
        -11   -1    0    0    0    0  0.00000000000E+00  0.00000000000E+00  0.45593999997E+02  0.45594000000E+02  0.51100000000E-03 0.  1.
         11   -1    0    0    0    0 -0.00000000000E+00 -0.00000000000E+00 -0.45593999997E+02  0.45594000000E+02  0.51100000000E-03 0. -1.
    9900012    2    1    2    0    0  0.18849049597E+02 -0.15755672112E+02  0.35778419325E+02  0.47787272313E+02  0.20000005782E+02 0.  0.
         12    1    1    2    0    0 -0.18849049597E+02  0.15755672112E+02 -0.35778419325E+02  0.43400727687E+02  0.00000000000E+00 0. -1.
         11    1    3    3    0    0 -0.11896221153E+01  0.85552420271E+00  0.11565433437E+01  0.18667391905E+01  0.51100000000E-03 0. -1.
        -11    1    3    3    0    0  0.11742507205E+02 -0.12144808938E+02  0.31926695555E+02  0.36120586221E+02  0.51100000000E-03 0.  1.
        -12    1    3    3    0    0  0.82961645081E+01 -0.44663873760E+01  0.26951804257E+01  0.97999469011E+01  0.00000000000E+00 0.  1.
</event>
<event>
 7    1  0.2647566E-010  0.4778728E+02  0.7816164E-02  0.1312668E+00
        -11   -1    0    0    0    0  0.00000000000E+00  0.00000000000E+00  0.45593999997E+02  0.45594000000E+02  0.51100000000E-03 0.  1.
         11   -1    0    0    0    0 -0.00000000000E+00 -0.00000000000E+00 -0.45593999997E+02  0.45594000000E+02  0.51100000000E-03 0. -1.
    9900012    2    1    2    0    0 -0.27809155631E+02 -0.33319078489E+02 -0.33557188840E+00  0.47787277232E+02  0.20000028211E+02 0.  0.
         12    1    1    2    0    0  0.27809155631E+02  0.33319078489E+02  0.33557188840E+00  0.43400722768E+02  0.00000000000E+00 0. -1.
         11    1    3    3    0    0 -0.55095501447E+01 -0.81610261741E+01  0.45618313660E+01  0.10852087204E+02  0.51100000000E-03 0. -1.
        -11    1    3    3    0    0 -0.20464218931E+02 -0.25191884851E+02 -0.82350221299E+00  0.32466805740E+02  0.51100000000E-03 0.  1.
         12    1    3    3    0    0 -0.18353865558E+01  0.33832536008E-01 -0.40739010414E+01  0.44683842879E+01  0.00000000000E+00 0. -1.
</event>
<event>
 7    1  0.2647566E-010  0.4778727E+02  0.7816164E-02  0.1312668E+00
        -11   -1    0    0    0    0  0.00000000000E+00  0.00000000000E+00  0.45593999997E+02  0.45594000000E+02  0.51100000000E-03 0.  1.
         11   -1    0    0    0    0 -0.00000000000E+00 -0.00000000000E+00 -0.45593999997E+02  0.45594000000E+02  0.51100000000E-03 0. -1.
    9900012    2    1    2    0    0 -0.31967807719E+02 -0.72247970313E+01  0.28451452704E+02  0.47787267478E+02  0.19999983737E+02 0.  0.
         12    1    1    2    0    0  0.31967807719E+02  0.72247970313E+01 -0.28451452704E+02  0.43400732522E+02  0.00000000000E+00 0. -1.
         11    1    3    3    0    0  0.72064033960E+00  0.79542148772E+00  0.31544224421E+00  0.11187144018E+01  0.51100000000E-03 0. -1.
        -11    1    3    3    0    0 -0.10334830699E+02 -0.22237698777E+01  0.19178808898E+02  0.21899328507E+02  0.51100000000E-03 0.  1.
         12    1    3    3    0    0 -0.22353617359E+02 -0.57964486414E+01  0.89572015613E+01  0.24769224568E+02  0.00000000000E+00 0. -1.
</event>
<event>
 7    1  0.2647566E-010  0.4778727E+02  0.7816164E-02  0.1312668E+00
        -11   -1    0    0    0    0  0.00000000000E+00  0.00000000000E+00  0.45593999997E+02  0.45594000000E+02  0.51100000000E-03 0.  1.
         11   -1    0    0    0    0 -0.00000000000E+00 -0.00000000000E+00 -0.45593999997E+02  0.45594000000E+02  0.51100000000E-03 0. -1.
    9900012    2    1    2    0    0 -0.23208804414E+00  0.19232548530E+02  0.38906024554E+02  0.47787268043E+02  0.19999986313E+02 0.  0.
         12    1    1    2    0    0  0.23208804414E+00 -0.19232548530E+02 -0.38906024554E+02  0.43400731957E+02  0.00000000000E+00 0. -1.
         11    1    3    3    0    0  0.40843245844E+01  0.40408092897E+01  0.12562597634E+02  0.13814076393E+02  0.51100000000E-03 0. -1.
        -11    1    3    3    0    0  0.41099103522E+01  0.80978847237E+01  0.17979592962E+02  0.20142811706E+02  0.51100000000E-03 0.  1.
         12    1    3    3    0    0 -0.84263229807E+01  0.70938545166E+01  0.83638339586E+01  0.13830379943E+02  0.00000000000E+00 0. -1.
</event>
<event>
 7    1  0.2647566E-010  0.4778729E+02  0.7816164E-02  0.1312668E+00
        -11   -1    0    0    0    0  0.00000000000E+00  0.00000000000E+00  0.45593999997E+02  0.45594000000E+02  0.51100000000E-03 0.  1.
         11   -1    0    0    0    0 -0.00000000000E+00 -0.00000000000E+00 -0.45593999997E+02  0.45594000000E+02  0.51100000000E-03 0. -1.
    9900012    2    1    2    0    0  0.27461489531E+02 -0.53768994358E+01  0.33174950102E+02  0.47787288381E+02  0.20000079043E+02 0.  0.
         12    1    1    2    0    0 -0.27461489531E+02  0.53768994358E+01 -0.33174950102E+02  0.43400711619E+02  0.00000000000E+00 0. -1.
         11    1    3    3    0    0  0.11033424807E+02 -0.67487140505E+01  0.19496249939E+02  0.23396268212E+02  0.51100000000E-03 0.  1.
        -11    1    3    3    0    0 -0.78445769395E+00 -0.23904440447E+01  0.11175779275E+01  0.27529215916E+01  0.51100000000E-03 0. -1.
        -12    1    3    3    0    0  0.17212522418E+02  0.37622586593E+01  0.12561122235E+02  0.21638098577E+02  0.00000000000E+00 0.  1.
</event>
<event>
 7    1  0.2647566E-010  0.4778727E+02  0.7816164E-02  0.1312668E+00
        -11   -1    0    0    0    0  0.00000000000E+00  0.00000000000E+00  0.45593999997E+02  0.45594000000E+02  0.51100000000E-03 0.  1.
         11   -1    0    0    0    0 -0.00000000000E+00 -0.00000000000E+00 -0.45593999997E+02  0.45594000000E+02  0.51100000000E-03 0. -1.
    9900012    2    1    2    0    0  0.32071949473E+02  0.25502094013E+02  0.14305831353E+02  0.47787267832E+02  0.19999985351E+02 0.  0.
         12    1    1    2    0    0 -0.32071949473E+02 -0.25502094013E+02 -0.14305831353E+02  0.43400732168E+02  0.00000000000E+00 0. -1.
         11    1    3    3    0    0  0.13556986518E+01  0.13275037932E+01  0.58839426964E+01  0.61823108197E+01  0.51100000000E-03 0. -1.
        -11    1    3    3    0    0  0.31952648111E+01  0.43628518609E+00 -0.20013975428E+01  0.37954781467E+01  0.51100000000E-03 0.  1.
        -12    1    3    3    0    0  0.27520986010E+02  0.23738305034E+02  0.10423286199E+02  0.37809478865E+02  0.00000000000E+00 0.  1.
</event>
<event>
 7    1  0.2647566E-010  0.4778726E+02  0.7816164E-02  0.1312668E+00
        -11   -1    0    0    0    0  0.00000000000E+00  0.00000000000E+00  0.45593999997E+02  0.45594000000E+02  0.51100000000E-03 0. -1.
         11   -1    0    0    0    0 -0.00000000000E+00 -0.00000000000E+00 -0.45593999997E+02  0.45594000000E+02  0.51100000000E-03 0.  1.
    9900012    2    1    2    0    0  0.16305724307E+02 -0.10241300554E+02 -0.38895543936E+02  0.47787260141E+02  0.19999950289E+02 0.  0.
         12    1    1    2    0    0 -0.16305724307E+02  0.10241300554E+02  0.38895543936E+02  0.43400739859E+02  0.00000000000E+00 0. -1.
         11    1    3    3    0    0 -0.83268384407E+00 -0.19881622345E+01 -0.96618253417E+01  0.98993444555E+01  0.51100000000E-03 0. -1.
        -11    1    3    3    0    0  0.13824309247E+02 -0.36638251183E+01 -0.28866650276E+02  0.32215192675E+02  0.51100000000E-03 0.  1.
        -12    1    3    3    0    0  0.33140989043E+01 -0.45893132016E+01 -0.36706831756E+00  0.56727230110E+01  0.00000000000E+00 0.  1.
</event>
<event>
 7    1  0.2647566E-010  0.4778727E+02  0.7816164E-02  0.1312668E+00
        -11   -1    0    0    0    0  0.00000000000E+00  0.00000000000E+00  0.45593999997E+02  0.45594000000E+02  0.51100000000E-03 0. -1.
         11   -1    0    0    0    0 -0.00000000000E+00 -0.00000000000E+00 -0.45593999997E+02  0.45594000000E+02  0.51100000000E-03 0.  1.
    9900012    2    1    2    0    0 -0.43375706709E+02 -0.12368482120E+01 -0.80081019527E+00  0.47787273935E+02  0.20000013180E+02 0.  0.
         12    1    1    2    0    0  0.43375706709E+02  0.12368482120E+01  0.80081019527E+00  0.43400726065E+02  0.00000000000E+00 0. -1.
         11    1    3    3    0    0 -0.26338766467E+02  0.29489916760E+01  0.32672750406E+01  0.26703974561E+02  0.51100000000E-03 0. -1.
        -11    1    3    3    0    0 -0.86254682262E+01  0.24761563395E+01  0.13299921523E+01  0.90718758658E+01  0.51100000000E-03 0.  1.
        -12    1    3    3    0    0 -0.84114720161E+01 -0.66619962276E+01 -0.53980773882E+01  0.12011423509E+02  0.00000000000E+00 0.  1.
</event>
<event>
 7    1  0.2647566E-010  0.4778729E+02  0.7816164E-02  0.1312668E+00
        -11   -1    0    0    0    0  0.00000000000E+00  0.00000000000E+00  0.45593999997E+02  0.45594000000E+02  0.51100000000E-03 0. -1.
         11   -1    0    0    0    0 -0.00000000000E+00 -0.00000000000E+00 -0.45593999997E+02  0.45594000000E+02  0.51100000000E-03 0.  1.
    9900012    2    1    2    0    0  0.39961487466E+02 -0.13241286574E+02  0.10553157872E+02  0.47787293880E+02  0.20000104116E+02 0.  0.
         12    1    1    2    0    0 -0.39961487466E+02  0.13241286574E+02 -0.10553157872E+02  0.43400706120E+02  0.00000000000E+00 0. -1.
         11    1    3    3    0    0  0.12378167430E+00  0.98899466534E+00  0.13746865639E+00  0.10061462337E+01  0.51100000000E-03 0. -1.
        -11    1    3    3    0    0  0.40118638407E+02 -0.16405484223E+02  0.93398246223E+01  0.44338215847E+02  0.51100000000E-03 0.  1.
        -12    1    3    3    0    0 -0.28093261525E+00  0.21752029836E+01  0.10758645935E+01  0.24429317996E+01  0.00000000000E+00 0.  1.
</event>
<event>
 7    1  0.2647566E-010  0.4778728E+02  0.7816164E-02  0.1312668E+00
        -11   -1    0    0    0    0  0.00000000000E+00  0.00000000000E+00  0.45593999997E+02  0.45594000000E+02  0.51100000000E-03 0.  1.
         11   -1    0    0    0    0 -0.00000000000E+00 -0.00000000000E+00 -0.45593999997E+02  0.45594000000E+02  0.51100000000E-03 0. -1.
    9900012    2    1    2    0    0  0.13314498545E+02 -0.37364505791E+02 -0.17613650685E+02  0.47787275870E+02  0.20000022001E+02 0.  0.
         12    1    1    2    0    0 -0.13314498545E+02  0.37364505791E+02  0.17613650685E+02  0.43400724130E+02  0.00000000000E+00 0. -1.
         11    1    3    3    0    0  0.11009042822E+02 -0.10541329773E+02 -0.30535306492E+01  0.15544861110E+02  0.51100000000E-03 0. -1.
        -11    1    3    3    0    0  0.37805889602E+01 -0.98070542193E+01 -0.12417595726E+01  0.10583625676E+02  0.51100000000E-03 0.  1.
         12    1    3    3    0    0 -0.14751332374E+01 -0.17016121800E+02 -0.13318360464E+02  0.21658789084E+02  0.00000000000E+00 0. -1.
</event>
<event>
 7    1  0.2647566E-010  0.4778727E+02  0.7816164E-02  0.1312668E+00
        -11   -1    0    0    0    0  0.00000000000E+00  0.00000000000E+00  0.45593999997E+02  0.45594000000E+02  0.51100000000E-03 0.  1.
         11   -1    0    0    0    0 -0.00000000000E+00 -0.00000000000E+00 -0.45593999997E+02  0.45594000000E+02  0.51100000000E-03 0. -1.
    9900012    2    1    2    0    0  0.27839807865E+02  0.13113525016E+02  0.30603981769E+02  0.47787272582E+02  0.20000007009E+02 0.  0.
         12    1    1    2    0    0 -0.27839807865E+02 -0.13113525016E+02 -0.30603981769E+02  0.43400727418E+02  0.00000000000E+00 0. -1.
         11    1    3    3    0    0  0.32274388145E+01 -0.15316099140E+01 -0.10072545791E+01  0.37117047671E+01  0.51100000000E-03 0. -1.
        -11    1    3    3    0    0  0.19593693622E+02  0.11543192593E+02  0.17230264063E+02  0.28531388416E+02  0.51100000000E-03 0.  1.
         12    1    3    3    0    0  0.50186754288E+01  0.31019423369E+01  0.14380972285E+02  0.15544179399E+02  0.00000000000E+00 0. -1.
</event>
<event>
 7    1  0.2647566E-010  0.4778728E+02  0.7816164E-02  0.1312668E+00
        -11   -1    0    0    0    0  0.00000000000E+00  0.00000000000E+00  0.45593999997E+02  0.45594000000E+02  0.51100000000E-03 0. -1.
         11   -1    0    0    0    0 -0.00000000000E+00 -0.00000000000E+00 -0.45593999997E+02  0.45594000000E+02  0.51100000000E-03 0.  1.
    9900012    2    1    2    0    0  0.26067772162E+02  0.11789527932E+02 -0.32635882887E+02  0.47787279198E+02  0.20000037174E+02 0.  0.
         12    1    1    2    0    0 -0.26067772162E+02 -0.11789527932E+02  0.32635882887E+02  0.43400720802E+02  0.00000000000E+00 0. -1.
         11    1    3    3    0    0  0.66032706737E+01  0.15967149954E-01 -0.18972171940E+02  0.20088472987E+02  0.51100000000E-03 0. -1.
        -11    1    3    3    0    0  0.64013852714E+01 -0.76902938325E-01 -0.28269980277E+01  0.69982544655E+01  0.51100000000E-03 0.  1.
        -12    1    3    3    0    0  0.13063116217E+02  0.11850463721E+02 -0.10836712919E+02  0.20700551746E+02  0.00000000000E+00 0.  1.
</event>
<event>
 7    1  0.2647566E-010  0.4778728E+02  0.7816164E-02  0.1312668E+00
        -11   -1    0    0    0    0  0.00000000000E+00  0.00000000000E+00  0.45593999997E+02  0.45594000000E+02  0.51100000000E-03 0.  1.
         11   -1    0    0    0    0 -0.00000000000E+00 -0.00000000000E+00 -0.45593999997E+02  0.45594000000E+02  0.51100000000E-03 0. -1.
    9900012    2    1    2    0    0  0.44745497251E+01  0.31708147918E+02  0.29294959871E+02  0.47787275196E+02  0.20000018930E+02 0.  0.
         12    1    1    2    0    0 -0.44745497251E+01 -0.31708147918E+02 -0.29294959871E+02  0.43400724804E+02  0.00000000000E+00 0. -1.
         11    1    3    3    0    0  0.51495552723E-01 -0.19307370867E+01  0.86979439948E+00  0.21182398468E+01  0.51100000000E-03 0. -1.
        -11    1    3    3    0    0  0.56053597080E+00  0.12403639859E+02  0.39344886322E+01  0.13024771913E+02  0.51100000000E-03 0.  1.
         12    1    3    3    0    0  0.38625182016E+01  0.21235245146E+02  0.24490676839E+02  0.32644263436E+02  0.00000000000E+00 0. -1.
</event>
<event>
 7    1  0.2647566E-010  0.4778727E+02  0.7816164E-02  0.1312668E+00
        -11   -1    0    0    0    0  0.00000000000E+00  0.00000000000E+00  0.45593999997E+02  0.45594000000E+02  0.51100000000E-03 0.  1.
         11   -1    0    0    0    0 -0.00000000000E+00 -0.00000000000E+00 -0.45593999997E+02  0.45594000000E+02  0.51100000000E-03 0. -1.
    9900012    2    1    2    0    0 -0.33743577556E+02 -0.89114493360E+01  0.25798845008E+02  0.47787270060E+02  0.19999995512E+02 0.  0.
         12    1    1    2    0    0  0.33743577556E+02  0.89114493360E+01 -0.25798845008E+02  0.43400729940E+02  0.00000000000E+00 0. -1.
         11    1    3    3    0    0  0.51075294085E+00 -0.14269088174E+01  0.82498163386E-01  0.15178087982E+01  0.51100000000E-03 0. -1.
        -11    1    3    3    0    0 -0.96593183884E+01 -0.88960318340E+01  0.13267372658E+02  0.18667217030E+02  0.51100000000E-03 0.  1.
         12    1    3    3    0    0 -0.24595012109E+02  0.14114913154E+01  0.12448974186E+02  0.27602244232E+02  0.00000000000E+00 0. -1.
</event>
<event>
 7    1  0.2647566E-010  0.4778727E+02  0.7816164E-02  0.1312668E+00
        -11   -1    0    0    0    0  0.00000000000E+00  0.00000000000E+00  0.45593999997E+02  0.45594000000E+02  0.51100000000E-03 0.  1.
         11   -1    0    0    0    0 -0.00000000000E+00 -0.00000000000E+00 -0.45593999997E+02  0.45594000000E+02  0.51100000000E-03 0. -1.
    9900012    2    1    2    0    0  0.37260270521E+02 -0.77445992312E+01  0.20864253379E+02  0.47787266762E+02  0.19999980474E+02 0.  0.
         12    1    1    2    0    0 -0.37260270521E+02  0.77445992312E+01 -0.20864253379E+02  0.43400733238E+02  0.00000000000E+00 0. -1.
         11    1    3    3    0    0  0.20819381000E+02 -0.59440174469E+01  0.10762198378E+02  0.24178562464E+02  0.51100000000E-03 0. -1.
        -11    1    3    3    0    0  0.15564330589E+02 -0.47458227893E+01  0.11798000444E+02  0.20098856569E+02  0.51100000000E-03 0.  1.
         12    1    3    3    0    0  0.87655893228E+00  0.29452410049E+01 -0.16959454431E+01  0.35098477295E+01  0.00000000000E+00 0. -1.
</event>
<event>
 7    1  0.2647566E-010  0.4778727E+02  0.7816164E-02  0.1312668E+00
        -11   -1    0    0    0    0  0.00000000000E+00  0.00000000000E+00  0.45593999997E+02  0.45594000000E+02  0.51100000000E-03 0. -1.
         11   -1    0    0    0    0 -0.00000000000E+00 -0.00000000000E+00 -0.45593999997E+02  0.45594000000E+02  0.51100000000E-03 0.  1.
    9900012    2    1    2    0    0 -0.35749215029E+02 -0.11177233590E+02  0.21924557311E+02  0.47787272596E+02  0.20000007075E+02 0.  0.
         12    1    1    2    0    0  0.35749215029E+02  0.11177233590E+02 -0.21924557311E+02  0.43400727404E+02  0.00000000000E+00 0. -1.
         11    1    3    3    0    0 -0.47551954338E+01 -0.40620761631E+01  0.26228396218E+00  0.62594839649E+01  0.51100000000E-03 0. -1.
        -11    1    3    3    0    0 -0.26006700532E+02 -0.10945138204E+02  0.21063657128E+02  0.35211108684E+02  0.51100000000E-03 0.  1.
        -12    1    3    3    0    0 -0.49873190628E+01  0.38299807763E+01  0.59861622039E+00  0.63166799476E+01  0.00000000000E+00 0.  1.
</event>
<event>
 7    1  0.2647566E-010  0.4778727E+02  0.7816164E-02  0.1312668E+00
        -11   -1    0    0    0    0  0.00000000000E+00  0.00000000000E+00  0.45593999997E+02  0.45594000000E+02  0.51100000000E-03 0.  1.
         11   -1    0    0    0    0 -0.00000000000E+00 -0.00000000000E+00 -0.45593999997E+02  0.45594000000E+02  0.51100000000E-03 0. -1.
    9900012    2    1    2    0    0  0.38137991872E+02 -0.75426622187E+01 -0.19293138208E+02  0.47787270061E+02  0.19999995514E+02 0.  0.
         12    1    1    2    0    0 -0.38137991872E+02  0.75426622187E+01  0.19293138208E+02  0.43400729939E+02  0.00000000000E+00 0. -1.
         11    1    3    3    0    0 -0.57173363587E+00 -0.12337140361E+01  0.61944094803E+00  0.14942011319E+01  0.51100000000E-03 0. -1.
        -11    1    3    3    0    0  0.13436330788E+02 -0.43802775499E+00 -0.14528423309E+02  0.19793987406E+02  0.51100000000E-03 0.  1.
        -12    1    3    3    0    0  0.25273394720E+02 -0.58709204276E+01 -0.53841558478E+01  0.26499081522E+02  0.00000000000E+00 0.  1.
</event>
<event>
 7    1  0.2647566E-010  0.4778727E+02  0.7816164E-02  0.1312668E+00
        -11   -1    0    0    0    0  0.00000000000E+00  0.00000000000E+00  0.45593999997E+02  0.45594000000E+02  0.51100000000E-03 0. -1.
         11   -1    0    0    0    0 -0.00000000000E+00 -0.00000000000E+00 -0.45593999997E+02  0.45594000000E+02  0.51100000000E-03 0.  1.
    9900012    2    1    2    0    0 -0.15962200083E+02  0.13746936399E+02 -0.37945399562E+02  0.47787269133E+02  0.19999991285E+02 0.  0.
         12    1    1    2    0    0  0.15962200083E+02 -0.13746936399E+02  0.37945399562E+02  0.43400730867E+02  0.00000000000E+00 0. -1.
         11    1    3    3    0    0  0.27271121216E+01  0.17015106984E+01 -0.61635588981E+01  0.69513838717E+01  0.51100000000E-03 0. -1.
        -11    1    3    3    0    0 -0.26568042556E+01 -0.22993340830E+01 -0.18383389427E+01  0.39654806023E+01  0.51100000000E-03 0.  1.
         12    1    3    3    0    0 -0.16032507949E+02  0.14344759783E+02 -0.29943501722E+02  0.36870404659E+02  0.00000000000E+00 0. -1.
</event>
<event>
 7    1  0.2647566E-010  0.4778727E+02  0.7816164E-02  0.1312668E+00
        -11   -1    0    0    0    0  0.00000000000E+00  0.00000000000E+00  0.45593999997E+02  0.45594000000E+02  0.51100000000E-03 0.  1.
         11   -1    0    0    0    0 -0.00000000000E+00 -0.00000000000E+00 -0.45593999997E+02  0.45594000000E+02  0.51100000000E-03 0. -1.
    9900012    2    1    2    0    0 -0.15965670240E+02  0.10164470336E+01  0.40344610411E+02  0.47787269822E+02  0.19999994427E+02 0.  0.
         12    1    1    2    0    0  0.15965670240E+02 -0.10164470336E+01 -0.40344610411E+02  0.43400730178E+02  0.00000000000E+00 0. -1.
         11    1    3    3    0    0 -0.15487091406E-01  0.92237143933E+00  0.49906645214E+01  0.50752085227E+01  0.51100000000E-03 0. -1.
        -11    1    3    3    0    0 -0.17087729456E+02  0.43833206366E+00  0.16294294327E+02  0.23615390339E+02  0.51100000000E-03 0.  1.
        -12    1    3    3    0    0  0.11375463075E+01 -0.34425646936E+00  0.19059651562E+02  0.19096670961E+02  0.00000000000E+00 0.  1.
</event>
<event>
 7    1  0.2647566E-010  0.4778727E+02  0.7816164E-02  0.1312668E+00
        -11   -1    0    0    0    0  0.00000000000E+00  0.00000000000E+00  0.45593999997E+02  0.45594000000E+02  0.51100000000E-03 0. -1.
         11   -1    0    0    0    0 -0.00000000000E+00 -0.00000000000E+00 -0.45593999997E+02  0.45594000000E+02  0.51100000000E-03 0.  1.
    9900012    2    1    2    0    0  0.36804423503E+02  0.34147016331E+01 -0.22746369661E+02  0.47787272939E+02  0.20000008640E+02 0.  0.
         12    1    1    2    0    0 -0.36804423503E+02 -0.34147016331E+01  0.22746369661E+02  0.43400727061E+02  0.00000000000E+00 0. -1.
         11    1    3    3    0    0  0.63746440292E+01  0.30551857778E-01 -0.10336449597E+02  0.12144101879E+02  0.51100000000E-03 0. -1.
        -11    1    3    3    0    0  0.23717598173E+02  0.73086738214E+01 -0.12666538561E+02  0.27863638950E+02  0.51100000000E-03 0.  1.
         12    1    3    3    0    0  0.67121813006E+01 -0.39245240461E+01  0.25661849761E+00  0.77795321103E+01  0.00000000000E+00 0. -1.
</event>
<event>
 7    1  0.2647566E-010  0.4778727E+02  0.7816164E-02  0.1312668E+00
        -11   -1    0    0    0    0  0.00000000000E+00  0.00000000000E+00  0.45593999997E+02  0.45594000000E+02  0.51100000000E-03 0.  1.
         11   -1    0    0    0    0 -0.00000000000E+00 -0.00000000000E+00 -0.45593999997E+02  0.45594000000E+02  0.51100000000E-03 0. -1.
    9900012    2    1    2    0    0  0.72600449504E+01  0.33890646524E+02  0.26121620905E+02  0.47787271282E+02  0.20000001085E+02 0.  0.
         12    1    1    2    0    0 -0.72600449504E+01 -0.33890646524E+02 -0.26121620905E+02  0.43400728718E+02  0.00000000000E+00 0. -1.
         11    1    3    3    0    0 -0.36497850393E+00  0.35238069141E+01 -0.16313025605E+01  0.39002016335E+01  0.51100000000E-03 0. -1.
        -11    1    3    3    0    0  0.71333296501E+01  0.54672753033E+01  0.89290388739E+01  0.12668986803E+02  0.51100000000E-03 0.  1.
        -12    1    3    3    0    0  0.49169380427E+00  0.24899564307E+02  0.18823884592E+02  0.31218082846E+02  0.00000000000E+00 0.  1.
</event>
<event>
 7    1  0.2647566E-010  0.4778728E+02  0.7816164E-02  0.1312668E+00
        -11   -1    0    0    0    0  0.00000000000E+00  0.00000000000E+00  0.45593999997E+02  0.45594000000E+02  0.51100000000E-03 0.  1.
         11   -1    0    0    0    0 -0.00000000000E+00 -0.00000000000E+00 -0.45593999997E+02  0.45594000000E+02  0.51100000000E-03 0. -1.
    9900012    2    1    2    0    0  0.24992092144E+02  0.22598843167E+02  0.27355264969E+02  0.47787275309E+02  0.20000019443E+02 0.  0.
         12    1    1    2    0    0 -0.24992092144E+02 -0.22598843167E+02 -0.27355264969E+02  0.43400724691E+02  0.00000000000E+00 0. -1.
         11    1    3    3    0    0  0.48705351043E+01  0.68575142308E+01  0.32545186427E+01  0.90188416931E+01  0.51100000000E-03 0. -1.
        -11    1    3    3    0    0  0.17991955144E+02  0.55599988954E+01  0.20311578683E+02  0.27698091387E+02  0.51100000000E-03 0.  1.
        -12    1    3    3    0    0  0.21296018953E+01  0.10181330041E+02  0.37891676429E+01  0.11070342229E+02  0.00000000000E+00 0.  1.
</event>
<event>
 7    1  0.2647566E-010  0.4778721E+02  0.7816164E-02  0.1312668E+00
        -11   -1    0    0    0    0  0.00000000000E+00  0.00000000000E+00  0.45593999997E+02  0.45594000000E+02  0.51100000000E-03 0.  1.
         11   -1    0    0    0    0 -0.00000000000E+00 -0.00000000000E+00 -0.45593999997E+02  0.45594000000E+02  0.51100000000E-03 0. -1.
    9900012    2    1    2    0    0 -0.71228298461E+01 -0.42610165041E+02 -0.41554248880E+01  0.47787211691E+02  0.19999729384E+02 0.  0.
         12    1    1    2    0    0  0.71228298461E+01  0.42610165041E+02  0.41554248880E+01  0.43400788309E+02  0.00000000000E+00 0. -1.
         11    1    3    3    0    0  0.14051276654E+01 -0.15327214145E+02 -0.25318770386E+01  0.15598342181E+02  0.51100000000E-03 0. -1.
        -11    1    3    3    0    0 -0.52427175115E+00 -0.22375541356E+02 -0.33864045727E+01  0.22636418622E+02  0.51100000000E-03 0.  1.
        -12    1    3    3    0    0 -0.80036857604E+01 -0.49074095398E+01  0.17628567232E+01  0.95524508881E+01  0.00000000000E+00 0.  1.
</event>
<event>
 7    1  0.2647566E-010  0.4778728E+02  0.7816164E-02  0.1312668E+00
        -11   -1    0    0    0    0  0.00000000000E+00  0.00000000000E+00  0.45593999997E+02  0.45594000000E+02  0.51100000000E-03 0.  1.
         11   -1    0    0    0    0 -0.00000000000E+00 -0.00000000000E+00 -0.45593999997E+02  0.45594000000E+02  0.51100000000E-03 0. -1.
    9900012    2    1    2    0    0  0.17641003914E+02 -0.15249228301E+02  0.36604356761E+02  0.47787275158E+02  0.20000018756E+02 0.  0.
         12    1    1    2    0    0 -0.17641003914E+02  0.15249228301E+02 -0.36604356761E+02  0.43400724842E+02  0.00000000000E+00 0. -1.
         11    1    3    3    0    0 -0.68889832792E+00 -0.53198598386E+01  0.72236498273E+01  0.89975889380E+01  0.51100000000E-03 0. -1.
        -11    1    3    3    0    0  0.13359284651E+02 -0.12722709162E+02  0.16692546710E+02  0.24879287183E+02  0.51100000000E-03 0.  1.
         12    1    3    3    0    0  0.49706175912E+01  0.27933406991E+01  0.12688160224E+02  0.13910399037E+02  0.00000000000E+00 0. -1.
</event>
<event>
 7    1  0.2647566E-010  0.4778727E+02  0.7816164E-02  0.1312668E+00
        -11   -1    0    0    0    0  0.00000000000E+00  0.00000000000E+00  0.45593999997E+02  0.45594000000E+02  0.51100000000E-03 0. -1.
         11   -1    0    0    0    0 -0.00000000000E+00 -0.00000000000E+00 -0.45593999997E+02  0.45594000000E+02  0.51100000000E-03 0.  1.
    9900012    2    1    2    0    0 -0.98563610056E+01 -0.40648842417E+02 -0.11582183789E+02  0.47787271625E+02  0.20000002648E+02 0.  0.
         12    1    1    2    0    0  0.98563610056E+01  0.40648842417E+02  0.11582183789E+02  0.43400728375E+02  0.00000000000E+00 0. -1.
         11    1    3    3    0    0 -0.24432502988E+01 -0.15194724213E+02 -0.35922776065E+00  0.15394094997E+02  0.51100000000E-03 0. -1.
        -11    1    3    3    0    0 -0.88726602335E+00 -0.23360717285E+02 -0.10022575525E+02  0.25435455047E+02  0.51100000000E-03 0.  1.
         12    1    3    3    0    0 -0.65258446835E+01 -0.20934009193E+01 -0.12003805041E+01  0.69577215808E+01  0.00000000000E+00 0. -1.
</event>
<event>
 7    1  0.2647566E-010  0.4778726E+02  0.7816164E-02  0.1312668E+00
        -11   -1    0    0    0    0  0.00000000000E+00  0.00000000000E+00  0.45593999997E+02  0.45594000000E+02  0.51100000000E-03 0.  1.
         11   -1    0    0    0    0 -0.00000000000E+00 -0.00000000000E+00 -0.45593999997E+02  0.45594000000E+02  0.51100000000E-03 0. -1.
    9900012    2    1    2    0    0  0.31132686049E+02  0.30173846433E+02 -0.19797143165E+01  0.47787257864E+02  0.19999939905E+02 0.  0.
         12    1    1    2    0    0 -0.31132686049E+02 -0.30173846433E+02  0.19797143165E+01  0.43400742136E+02  0.00000000000E+00 0. -1.
         11    1    3    3    0    0  0.85280612263E+01  0.14040451824E+02  0.17282347405E+01  0.16518138856E+02  0.51100000000E-03 0. -1.
        -11    1    3    3    0    0  0.15843913120E+02  0.79087973248E+01  0.39637931763E+01  0.18146358166E+02  0.51100000000E-03 0.  1.
         12    1    3    3    0    0  0.67607117028E+01  0.82245972844E+01 -0.76717422333E+01  0.13122760842E+02  0.00000000000E+00 0. -1.
</event>
<event>
 7    1  0.2647566E-010  0.4778727E+02  0.7816164E-02  0.1312668E+00
        -11   -1    0    0    0    0  0.00000000000E+00  0.00000000000E+00  0.45593999997E+02  0.45594000000E+02  0.51100000000E-03 0.  1.
         11   -1    0    0    0    0 -0.00000000000E+00 -0.00000000000E+00 -0.45593999997E+02  0.45594000000E+02  0.51100000000E-03 0. -1.
    9900012    2    1    2    0    0 -0.16979720369E+02  0.10787677778E+02  0.38456971344E+02  0.47787267972E+02  0.19999985990E+02 0.  0.
         12    1    1    2    0    0  0.16979720369E+02 -0.10787677778E+02 -0.38456971344E+02  0.43400732028E+02  0.00000000000E+00 0. -1.
         11    1    3    3    0    0 -0.18137252193E+02  0.92125750554E+01  0.32242924091E+02  0.38123976845E+02  0.51100000000E-03 0. -1.
        -11    1    3    3    0    0 -0.12434799206E+01 -0.19696639602E+01  0.44696172266E+01  0.50401683347E+01  0.51100000000E-03 0.  1.
         12    1    3    3    0    0  0.24010117446E+01  0.35447666831E+01  0.17444300260E+01  0.46231227921E+01  0.00000000000E+00 0. -1.
</event>
<event>
 7    1  0.2647566E-010  0.4778727E+02  0.7816164E-02  0.1312668E+00
        -11   -1    0    0    0    0  0.00000000000E+00  0.00000000000E+00  0.45593999997E+02  0.45594000000E+02  0.51100000000E-03 0.  1.
         11   -1    0    0    0    0 -0.00000000000E+00 -0.00000000000E+00 -0.45593999997E+02  0.45594000000E+02  0.51100000000E-03 0. -1.
    9900012    2    1    2    0    0 -0.10910861870E+02 -0.40658348875E+01  0.41809633260E+02  0.47787270128E+02  0.19999995823E+02 0.  0.
         12    1    1    2    0    0  0.10910861870E+02  0.40658348875E+01 -0.41809633260E+02  0.43400729872E+02  0.00000000000E+00 0. -1.
         11    1    3    3    0    0 -0.10986524058E+01 -0.40867555920E+01  0.48220356550E+01  0.64156555781E+01  0.51100000000E-03 0. -1.
        -11    1    3    3    0    0 -0.11632984649E+02 -0.47433735678E+01  0.31327116093E+02  0.33752246260E+02  0.51100000000E-03 0.  1.
         12    1    3    3    0    0  0.18207751854E+01  0.47642942722E+01  0.56604815121E+01  0.76193682899E+01  0.00000000000E+00 0. -1.
</event>
<event>
 7    1  0.2647566E-010  0.4778727E+02  0.7816164E-02  0.1312668E+00
        -11   -1    0    0    0    0  0.00000000000E+00  0.00000000000E+00  0.45593999997E+02  0.45594000000E+02  0.51100000000E-03 0.  1.
         11   -1    0    0    0    0 -0.00000000000E+00 -0.00000000000E+00 -0.45593999997E+02  0.45594000000E+02  0.51100000000E-03 0. -1.
    9900012    2    1    2    0    0 -0.40373172676E+02  0.96696729487E+01  0.12654160208E+02  0.47787269390E+02  0.19999992459E+02 0.  0.
         12    1    1    2    0    0  0.40373172676E+02 -0.96696729487E+01 -0.12654160208E+02  0.43400730610E+02  0.00000000000E+00 0. -1.
         11    1    3    3    0    0 -0.69794975191E+01  0.80652679983E+01  0.50902557876E+01  0.11818317890E+02  0.51100000000E-03 0. -1.
        -11    1    3    3    0    0 -0.22548381514E+02  0.52129709260E+01  0.81180524481E+01  0.24525646793E+02  0.51100000000E-03 0.  1.
        -12    1    3    3    0    0 -0.10845293643E+02 -0.36085659755E+01 -0.55414802762E+00  0.11443304708E+02  0.00000000000E+00 0.  1.
</event>
<event>
 7    1  0.2647566E-010  0.4778728E+02  0.7816164E-02  0.1312668E+00
        -11   -1    0    0    0    0  0.00000000000E+00  0.00000000000E+00  0.45593999997E+02  0.45594000000E+02  0.51100000000E-03 0.  1.
         11   -1    0    0    0    0 -0.00000000000E+00 -0.00000000000E+00 -0.45593999997E+02  0.45594000000E+02  0.51100000000E-03 0. -1.
    9900012    2    1    2    0    0 -0.12691258658E+02 -0.15240361361E+02  0.38604221366E+02  0.47787279176E+02  0.20000037075E+02 0.  0.
         12    1    1    2    0    0  0.12691258658E+02  0.15240361361E+02 -0.38604221366E+02  0.43400720824E+02  0.00000000000E+00 0. -1.
         11    1    3    3    0    0 -0.46141811219E+01 -0.11997334484E+02  0.17792864638E+02  0.21950233129E+02  0.51100000000E-03 0. -1.
        -11    1    3    3    0    0  0.25367292098E+01 -0.34151495987E+01  0.90107357598E+01  0.99645171011E+01  0.51100000000E-03 0.  1.
         12    1    3    3    0    0 -0.10613806746E+02  0.17212272220E+00  0.11800620969E+02  0.15872528945E+02  0.00000000000E+00 0. -1.
</event>
<event>
 7    1  0.2647566E-010  0.4778728E+02  0.7816164E-02  0.1312668E+00
        -11   -1    0    0    0    0  0.00000000000E+00  0.00000000000E+00  0.45593999997E+02  0.45594000000E+02  0.51100000000E-03 0.  1.
         11   -1    0    0    0    0 -0.00000000000E+00 -0.00000000000E+00 -0.45593999997E+02  0.45594000000E+02  0.51100000000E-03 0. -1.
    9900012    2    1    2    0    0 -0.10644648055E+02  0.31784337837E+02  0.27569371416E+02  0.47787275303E+02  0.20000019415E+02 0.  0.
         12    1    1    2    0    0  0.10644648055E+02 -0.31784337837E+02 -0.27569371416E+02  0.43400724697E+02  0.00000000000E+00 0. -1.
         11    1    3    3    0    0 -0.44880053559E+01  0.10186594329E+02  0.46577976565E+01  0.12066647230E+02  0.51100000000E-03 0. -1.
        -11    1    3    3    0    0  0.13505261756E+01  0.19146243029E+02  0.18578896639E+02  0.26712879734E+02  0.51100000000E-03 0.  1.
         12    1    3    3    0    0 -0.75071688744E+01  0.24515004792E+01  0.43326771207E+01  0.90077483391E+01  0.00000000000E+00 0. -1.
</event>
<event>
 7    1  0.2647566E-010  0.4778727E+02  0.7816164E-02  0.1312668E+00
        -11   -1    0    0    0    0  0.00000000000E+00  0.00000000000E+00  0.45593999997E+02  0.45594000000E+02  0.51100000000E-03 0.  1.
         11   -1    0    0    0    0 -0.00000000000E+00 -0.00000000000E+00 -0.45593999997E+02  0.45594000000E+02  0.51100000000E-03 0. -1.
    9900012    2    1    2    0    0 -0.52457374559E+01  0.36289753412E+02  0.23219802944E+02  0.47787271747E+02  0.20000003202E+02 0.  0.
         12    1    1    2    0    0  0.52457374559E+01 -0.36289753412E+02 -0.23219802944E+02  0.43400728253E+02  0.00000000000E+00 0. -1.
         11    1    3    3    0    0 -0.50454518690E+01  0.89341862499E+01  0.10100543934E+02  0.14397821242E+02  0.51100000000E-03 0. -1.
        -11    1    3    3    0    0 -0.49440729620E+01  0.10152316797E+02  0.10374289643E+02  0.15334251846E+02  0.51100000000E-03 0.  1.
         12    1    3    3    0    0  0.47437873750E+01  0.17203250365E+02  0.27449693670E+01  0.18055198659E+02  0.00000000000E+00 0. -1.
</event>
<event>
 7    1  0.2647566E-010  0.4778727E+02  0.7816164E-02  0.1312668E+00
        -11   -1    0    0    0    0  0.00000000000E+00  0.00000000000E+00  0.45593999997E+02  0.45594000000E+02  0.51100000000E-03 0. -1.
         11   -1    0    0    0    0 -0.00000000000E+00 -0.00000000000E+00 -0.45593999997E+02  0.45594000000E+02  0.51100000000E-03 0.  1.
    9900012    2    1    2    0    0  0.27810992631E+01 -0.42786658059E+02  0.67223970539E+01  0.47787271399E+02  0.20000001615E+02 0.  0.
         12    1    1    2    0    0 -0.27810992631E+01  0.42786658059E+02 -0.67223970539E+01  0.43400728601E+02  0.00000000000E+00 0. -1.
         11    1    3    3    0    0 -0.91089383150E+00  0.85010639503E+00 -0.57724997520E+00  0.13731810697E+01  0.51100000000E-03 0. -1.
        -11    1    3    3    0    0  0.42645559178E+01 -0.69544783891E+01 -0.23308837388E+01  0.84843518377E+01  0.51100000000E-03 0.  1.
        -12    1    3    3    0    0 -0.57256282322E+00 -0.36682286065E+02  0.96305307679E+01  0.37929738491E+02  0.00000000000E+00 0.  1.
</event>
<event>
 7    1  0.2647566E-010  0.4778727E+02  0.7816164E-02  0.1312668E+00
        -11   -1    0    0    0    0  0.00000000000E+00  0.00000000000E+00  0.45593999997E+02  0.45594000000E+02  0.51100000000E-03 0.  1.
         11   -1    0    0    0    0 -0.00000000000E+00 -0.00000000000E+00 -0.45593999997E+02  0.45594000000E+02  0.51100000000E-03 0. -1.
    9900012    2    1    2    0    0 -0.27984272049E+02 -0.27184719587E+01  0.33062268693E+02  0.47787272091E+02  0.20000004772E+02 0.  0.
         12    1    1    2    0    0  0.27984272049E+02  0.27184719587E+01 -0.33062268693E+02  0.43400727909E+02  0.00000000000E+00 0. -1.
         11    1    3    3    0    0 -0.57785010030E+01 -0.65322396172E+01  0.31270359144E+01  0.92649653064E+01  0.51100000000E-03 0. -1.
        -11    1    3    3    0    0 -0.13751128484E+01  0.35687474574E+00 -0.47681019684E+00  0.14985470146E+01  0.51100000000E-03 0.  1.
        -12    1    3    3    0    0 -0.20830658197E+02  0.34568929128E+01  0.30412042976E+02  0.37023759770E+02  0.00000000000E+00 0.  1.
</event>
<event>
 7    1  0.2647566E-010  0.4778727E+02  0.7816164E-02  0.1312668E+00
        -11   -1    0    0    0    0  0.00000000000E+00  0.00000000000E+00  0.45593999997E+02  0.45594000000E+02  0.51100000000E-03 0. -1.
         11   -1    0    0    0    0 -0.00000000000E+00 -0.00000000000E+00 -0.45593999997E+02  0.45594000000E+02  0.51100000000E-03 0.  1.
    9900012    2    1    2    0    0 -0.88663426219E+01  0.10096760409E+02 -0.41268233338E+02  0.47787266307E+02  0.19999978399E+02 0.  0.
         12    1    1    2    0    0  0.88663426219E+01 -0.10096760409E+02  0.41268233338E+02  0.43400733693E+02  0.00000000000E+00 0. -1.
         11    1    3    3    0    0  0.84358542524E+00  0.25587883842E+01 -0.11208281247E+02  0.11527558420E+02  0.51100000000E-03 0. -1.
        -11    1    3    3    0    0  0.67588921635E+00 -0.40121969906E+01 -0.29876455089E+01  0.50478289266E+01  0.51100000000E-03 0.  1.
         12    1    3    3    0    0 -0.10385817263E+02  0.11550169015E+02 -0.27072306583E+02  0.31211878960E+02  0.00000000000E+00 0. -1.
</event>
<event>
 7    1  0.2647566E-010  0.4778727E+02  0.7816164E-02  0.1312668E+00
        -11   -1    0    0    0    0  0.00000000000E+00  0.00000000000E+00  0.45593999997E+02  0.45594000000E+02  0.51100000000E-03 0.  1.
         11   -1    0    0    0    0 -0.00000000000E+00 -0.00000000000E+00 -0.45593999997E+02  0.45594000000E+02  0.51100000000E-03 0. -1.
    9900012    2    1    2    0    0  0.15168052609E+01 -0.16149358761E+02  0.40255691649E+02  0.47787271934E+02  0.20000004054E+02 0.  0.
         12    1    1    2    0    0 -0.15168052609E+01  0.16149358761E+02 -0.40255691649E+02  0.43400728066E+02  0.00000000000E+00 0. -1.
         11    1    3    3    0    0  0.63442973745E+00 -0.10229100893E+01  0.84474287078E+01  0.85327544308E+01  0.51100000000E-03 0. -1.
        -11    1    3    3    0    0 -0.35234007553E+01  0.91736275928E+00  0.15627706551E+02  0.16046218235E+02  0.51100000000E-03 0.  1.
         12    1    3    3    0    0  0.44057762788E+01 -0.16043811431E+02  0.16180556389E+02  0.23208299268E+02  0.00000000000E+00 0. -1.
</event>
<event>
 7    1  0.2647566E-010  0.4778726E+02  0.7816164E-02  0.1312668E+00
        -11   -1    0    0    0    0  0.00000000000E+00  0.00000000000E+00  0.45593999997E+02  0.45594000000E+02  0.51100000000E-03 0.  1.
         11   -1    0    0    0    0 -0.00000000000E+00 -0.00000000000E+00 -0.45593999997E+02  0.45594000000E+02  0.51100000000E-03 0. -1.
    9900012    2    1    2    0    0  0.85496073921E+01  0.17101385696E+01  0.42515921462E+02  0.47787263391E+02  0.19999965103E+02 0.  0.
         12    1    1    2    0    0 -0.85496073921E+01 -0.17101385696E+01 -0.42515921462E+02  0.43400736609E+02  0.00000000000E+00 0. -1.
         11    1    3    3    0    0 -0.39072801651E+01  0.28022241762E+01  0.56099778334E+01  0.73885824199E+01  0.51100000000E-03 0. -1.
        -11    1    3    3    0    0  0.64793896214E+01  0.44247169422E+00  0.58668898010E+01  0.87520664568E+01  0.51100000000E-03 0.  1.
        -12    1    3    3    0    0  0.59774979358E+01 -0.15345573008E+01  0.31039053828E+02  0.31646614514E+02  0.00000000000E+00 0.  1.
</event>
<event>
 7    1  0.2647566E-010  0.4778727E+02  0.7816164E-02  0.1312668E+00
        -11   -1    0    0    0    0  0.00000000000E+00  0.00000000000E+00  0.45593999997E+02  0.45594000000E+02  0.51100000000E-03 0.  1.
         11   -1    0    0    0    0 -0.00000000000E+00 -0.00000000000E+00 -0.45593999997E+02  0.45594000000E+02  0.51100000000E-03 0. -1.
    9900012    2    1    2    0    0  0.15302495078E+02 -0.40489509563E+02  0.31711747080E+01  0.47787273171E+02  0.20000009694E+02 0.  0.
         12    1    1    2    0    0 -0.15302495078E+02  0.40489509563E+02 -0.31711747080E+01  0.43400726829E+02  0.00000000000E+00 0. -1.
         11    1    3    3    0    0 -0.22143650853E+01 -0.81497283963E+00  0.46335436495E+00  0.24046394717E+01  0.51100000000E-03 0.  1.
        -11    1    3    3    0    0  0.25871843920E+01 -0.19513713143E+02 -0.22430068899E+01  0.19811855134E+02  0.51100000000E-03 0. -1.
        -12    1    3    3    0    0  0.14929675772E+02 -0.20160823581E+02  0.49508272330E+01  0.25570778564E+02  0.00000000000E+00 0.  1.
</event>
<event>
 7    1  0.2647566E-010  0.4778727E+02  0.7816164E-02  0.1312668E+00
        -11   -1    0    0    0    0  0.00000000000E+00  0.00000000000E+00  0.45593999997E+02  0.45594000000E+02  0.51100000000E-03 0. -1.
         11   -1    0    0    0    0 -0.00000000000E+00 -0.00000000000E+00 -0.45593999997E+02  0.45594000000E+02  0.51100000000E-03 0.  1.
    9900012    2    1    2    0    0  0.45184231545E+00  0.22054869248E+02 -0.37376489031E+02  0.47787270152E+02  0.19999995933E+02 0.  0.
         12    1    1    2    0    0 -0.45184231545E+00 -0.22054869248E+02  0.37376489031E+02  0.43400729848E+02  0.00000000000E+00 0. -1.
         11    1    3    3    0    0 -0.15786988140E+01 -0.71762200477E+00 -0.92787926279E+01  0.94394525360E+01  0.51100000000E-03 0. -1.
        -11    1    3    3    0    0 -0.22615673212E+01  0.54887927272E+01 -0.15318306901E+02  0.16428391855E+02  0.51100000000E-03 0.  1.
        -12    1    3    3    0    0  0.42921084506E+01  0.17283698526E+02 -0.12779389501E+02  0.21919425762E+02  0.00000000000E+00 0.  1.
</event>
<event>
 7    1  0.2647566E-010  0.4778727E+02  0.7816164E-02  0.1312668E+00
        -11   -1    0    0    0    0  0.00000000000E+00  0.00000000000E+00  0.45593999997E+02  0.45594000000E+02  0.51100000000E-03 0.  1.
         11   -1    0    0    0    0 -0.00000000000E+00 -0.00000000000E+00 -0.45593999997E+02  0.45594000000E+02  0.51100000000E-03 0. -1.
    9900012    2    1    2    0    0 -0.15761234066E+02  0.22789615165E+02  0.33404194882E+02  0.47787270808E+02  0.19999998923E+02 0.  0.
         12    1    1    2    0    0  0.15761234066E+02 -0.22789615165E+02 -0.33404194882E+02  0.43400729192E+02  0.00000000000E+00 0. -1.
         11    1    3    3    0    0 -0.39410717981E+01  0.28398133512E+00  0.17668703044E+01  0.43283395488E+01  0.51100000000E-03 0. -1.
        -11    1    3    3    0    0 -0.13093355244E+02  0.20473493324E+02  0.19702559872E+02  0.31285631625E+02  0.51100000000E-03 0.  1.
        -12    1    3    3    0    0  0.12731929759E+01  0.20321405060E+01  0.11934764706E+02  0.12173299634E+02  0.00000000000E+00 0.  1.
</event>
<event>
 7    1  0.2647566E-010  0.4778725E+02  0.7816164E-02  0.1312668E+00
        -11   -1    0    0    0    0  0.00000000000E+00  0.00000000000E+00  0.45593999997E+02  0.45594000000E+02  0.51100000000E-03 0.  1.
         11   -1    0    0    0    0 -0.00000000000E+00 -0.00000000000E+00 -0.45593999997E+02  0.45594000000E+02  0.51100000000E-03 0. -1.
    9900012    2    1    2    0    0  0.24117915202E+02  0.10534852903E+01  0.36067175110E+02  0.47787253632E+02  0.19999920608E+02 0.  0.
         12    1    1    2    0    0 -0.24117915202E+02 -0.10534852903E+01 -0.36067175110E+02  0.43400746368E+02  0.00000000000E+00 0. -1.
         11    1    3    3    0    0  0.17813731263E+02  0.22511928528E+01  0.21676905035E+02  0.28147559449E+02  0.51100000000E-03 0. -1.
        -11    1    3    3    0    0  0.75580479423E+01 -0.41019661069E+01  0.14030197116E+02  0.16455900036E+02  0.51100000000E-03 0.  1.
         12    1    3    3    0    0 -0.12538640037E+01  0.29042585444E+01  0.36007295926E+00  0.31837941467E+01  0.00000000000E+00 0. -1.
</event>
<event>
 7    1  0.2647566E-010  0.4778727E+02  0.7816164E-02  0.1312668E+00
        -11   -1    0    0    0    0  0.00000000000E+00  0.00000000000E+00  0.45593999997E+02  0.45594000000E+02  0.51100000000E-03 0.  1.
         11   -1    0    0    0    0 -0.00000000000E+00 -0.00000000000E+00 -0.45593999997E+02  0.45594000000E+02  0.51100000000E-03 0. -1.
    9900012    2    1    2    0    0  0.13038156039E+02 -0.41355991573E+02  0.18198205018E+01  0.47787270761E+02  0.19999998706E+02 0.  0.
         12    1    1    2    0    0 -0.13038156039E+02  0.41355991573E+02 -0.18198205018E+01  0.43400729239E+02  0.00000000000E+00 0. -1.
         11    1    3    3    0    0  0.55647174849E+01 -0.53802337764E+01 -0.70346918792E+00  0.77722496958E+01  0.51100000000E-03 0. -1.
        -11    1    3    3    0    0  0.20114384729E+01 -0.25396443639E+00  0.32961995818E+01  0.38697951638E+01  0.51100000000E-03 0.  1.
        -12    1    3    3    0    0  0.54620000814E+01 -0.35721793360E+02 -0.77290989212E+00  0.36145225901E+02  0.00000000000E+00 0.  1.
</event>
<event>
 7    1  0.2647566E-010  0.4778727E+02  0.7816164E-02  0.1312668E+00
        -11   -1    0    0    0    0  0.00000000000E+00  0.00000000000E+00  0.45593999997E+02  0.45594000000E+02  0.51100000000E-03 0. -1.
         11   -1    0    0    0    0 -0.00000000000E+00 -0.00000000000E+00 -0.45593999997E+02  0.45594000000E+02  0.51100000000E-03 0.  1.
    9900012    2    1    2    0    0 -0.39302488402E+02  0.10598352742E+02 -0.15053657589E+02  0.47787270948E+02  0.19999999561E+02 0.  0.
         12    1    1    2    0    0  0.39302488402E+02 -0.10598352742E+02  0.15053657589E+02  0.43400729052E+02  0.00000000000E+00 0. -1.
         11    1    3    3    0    0 -0.35849367674E+01  0.37206570276E+01 -0.64674261275E+01  0.82778415858E+01  0.51100000000E-03 0. -1.
        -11    1    3    3    0    0 -0.62350239872E+01 -0.34782047493E+01 -0.30978630247E+01  0.77826851395E+01  0.51100000000E-03 0.  1.
        -12    1    3    3    0    0 -0.29482527647E+02  0.10355900464E+02 -0.54883684365E+01  0.31726744223E+02  0.00000000000E+00 0.  1.
</event>
<event>
 7    1  0.2647566E-010  0.4778727E+02  0.7816164E-02  0.1312668E+00
        -11   -1    0    0    0    0  0.00000000000E+00  0.00000000000E+00  0.45593999997E+02  0.45594000000E+02  0.51100000000E-03 0. -1.
         11   -1    0    0    0    0 -0.00000000000E+00 -0.00000000000E+00 -0.45593999997E+02  0.45594000000E+02  0.51100000000E-03 0.  1.
    9900012    2    1    2    0    0 -0.24249398725E+02 -0.78699848062E+00 -0.35985705508E+02  0.47787266066E+02  0.19999977301E+02 0.  0.
         12    1    1    2    0    0  0.24249398725E+02  0.78699848062E+00  0.35985705508E+02  0.43400733934E+02  0.00000000000E+00 0. -1.
         11    1    3    3    0    0  0.27053273164E+00 -0.16547683643E+01 -0.36007475439E+01  0.39720057193E+01  0.51100000000E-03 0. -1.
        -11    1    3    3    0    0 -0.13137920432E+02  0.86420744725E+01 -0.16925429908E+02  0.23103259127E+02  0.51100000000E-03 0.  1.
         12    1    3    3    0    0 -0.11382011024E+02 -0.77743045889E+01 -0.15459528057E+02  0.20712001220E+02  0.00000000000E+00 0. -1.
</event>
<event>
 7    1  0.2647566E-010  0.4778727E+02  0.7816164E-02  0.1312668E+00
        -11   -1    0    0    0    0  0.00000000000E+00  0.00000000000E+00  0.45593999997E+02  0.45594000000E+02  0.51100000000E-03 0.  1.
         11   -1    0    0    0    0 -0.00000000000E+00 -0.00000000000E+00 -0.45593999997E+02  0.45594000000E+02  0.51100000000E-03 0. -1.
    9900012    2    1    2    0    0  0.31899833926E+02 -0.29320472135E+02  0.25167134282E+01  0.47787270315E+02  0.19999996673E+02 0.  0.
         12    1    1    2    0    0 -0.31899833926E+02  0.29320472135E+02 -0.25167134282E+01  0.43400729685E+02  0.00000000000E+00 0. -1.
         11    1    3    3    0    0  0.49743825509E+00 -0.52797885801E+01 -0.87162894328E+00  0.53743231708E+01  0.51100000000E-03 0. -1.
        -11    1    3    3    0    0  0.12562474804E+02 -0.18769142016E+02  0.16672554578E+00  0.22585930640E+02  0.51100000000E-03 0.  1.
         12    1    3    3    0    0  0.18839920867E+02 -0.52715415393E+01  0.32216168256E+01  0.19827016504E+02  0.00000000000E+00 0. -1.
</event>
<event>
 7    1  0.2647566E-010  0.4778727E+02  0.7816164E-02  0.1312668E+00
        -11   -1    0    0    0    0  0.00000000000E+00  0.00000000000E+00  0.45593999997E+02  0.45594000000E+02  0.51100000000E-03 0. -1.
         11   -1    0    0    0    0 -0.00000000000E+00 -0.00000000000E+00 -0.45593999997E+02  0.45594000000E+02  0.51100000000E-03 0.  1.
    9900012    2    1    2    0    0  0.39893101424E+02  0.68118548762E+01 -0.15676803132E+02  0.47787273456E+02  0.20000010996E+02 0.  0.
         12    1    1    2    0    0 -0.39893101424E+02 -0.68118548762E+01  0.15676803132E+02  0.43400726544E+02  0.00000000000E+00 0. -1.
         11    1    3    3    0    0  0.14534741071E+01  0.26276995160E+01 -0.57245535866E+01  0.64643565614E+01  0.51100000000E-03 0. -1.
        -11    1    3    3    0    0  0.27993509263E+02  0.20911678154E+01 -0.11905153107E+02  0.30491674511E+02  0.51100000000E-03 0.  1.
        -12    1    3    3    0    0  0.10446118054E+02  0.20929875449E+01  0.19529035621E+01  0.10831242384E+02  0.00000000000E+00 0.  1.
</event>
<event>
 7    1  0.2647566E-010  0.4778727E+02  0.7816164E-02  0.1312668E+00
        -11   -1    0    0    0    0  0.00000000000E+00  0.00000000000E+00  0.45593999997E+02  0.45594000000E+02  0.51100000000E-03 0.  1.
         11   -1    0    0    0    0 -0.00000000000E+00 -0.00000000000E+00 -0.45593999997E+02  0.45594000000E+02  0.51100000000E-03 0. -1.
    9900012    2    1    2    0    0  0.42527791293E+02  0.56039148024E+01  0.66035037652E+01  0.47787272409E+02  0.20000006224E+02 0.  0.
         12    1    1    2    0    0 -0.42527791293E+02 -0.56039148024E+01 -0.66035037652E+01  0.43400727591E+02  0.00000000000E+00 0. -1.
         11    1    3    3    0    0  0.24980477912E+01  0.34395878889E+00 -0.28226621030E+01  0.37849665816E+01  0.51100000000E-03 0. -1.
        -11    1    3    3    0    0 -0.25640137202E+00  0.66463260745E+00 -0.17947374056E+01  0.19309481564E+01  0.51100000000E-03 0.  1.
        -12    1    3    3    0    0  0.40286144874E+02  0.45953234060E+01  0.11220903274E+02  0.42071357671E+02  0.00000000000E+00 0.  1.
</event>
<event>
 7    1  0.2647566E-010  0.4778727E+02  0.7816164E-02  0.1312668E+00
        -11   -1    0    0    0    0  0.00000000000E+00  0.00000000000E+00  0.45593999997E+02  0.45594000000E+02  0.51100000000E-03 0.  1.
         11   -1    0    0    0    0 -0.00000000000E+00 -0.00000000000E+00 -0.45593999997E+02  0.45594000000E+02  0.51100000000E-03 0. -1.
    9900012    2    1    2    0    0  0.20486180985E+02 -0.34426982024E+02  0.16694985881E+02  0.47787271248E+02  0.20000000928E+02 0.  0.
         12    1    1    2    0    0 -0.20486180985E+02  0.34426982024E+02 -0.16694985881E+02  0.43400728752E+02  0.00000000000E+00 0. -1.
         11    1    3    3    0    0  0.85395607152E+01 -0.17697664186E+02  0.10559751758E+02  0.22307841050E+02  0.51100000000E-03 0.  1.
        -11    1    3    3    0    0  0.46617899520E+01 -0.13167283348E+02  0.92931912954E+01  0.16777158312E+02  0.51100000000E-03 0. -1.
        -12    1    3    3    0    0  0.72848303182E+01 -0.35620344906E+01 -0.31579571725E+01  0.87022718862E+01  0.00000000000E+00 0.  1.
</event>
<event>
 7    1  0.2647566E-010  0.4778727E+02  0.7816164E-02  0.1312668E+00
        -11   -1    0    0    0    0  0.00000000000E+00  0.00000000000E+00  0.45593999997E+02  0.45594000000E+02  0.51100000000E-03 0. -1.
         11   -1    0    0    0    0 -0.00000000000E+00 -0.00000000000E+00 -0.45593999997E+02  0.45594000000E+02  0.51100000000E-03 0.  1.
    9900012    2    1    2    0    0 -0.34564387111E+02 -0.85013223155E+01 -0.24832513166E+02  0.47787273651E+02  0.20000011883E+02 0.  0.
         12    1    1    2    0    0  0.34564387111E+02  0.85013223155E+01  0.24832513166E+02  0.43400726349E+02  0.00000000000E+00 0. -1.
         11    1    3    3    0    0 -0.40461917786E+01  0.32854098185E+01 -0.43184344526E+01  0.67686381176E+01  0.51100000000E-03 0. -1.
        -11    1    3    3    0    0 -0.21198714488E+02 -0.22687518146E+01 -0.16929586754E+02  0.27223953398E+02  0.51100000000E-03 0.  1.
         12    1    3    3    0    0 -0.93194808452E+01 -0.95179803194E+01 -0.35844919599E+01  0.13794682135E+02  0.00000000000E+00 0. -1.
</event>
<event>
 7    1  0.2647566E-010  0.4778727E+02  0.7816164E-02  0.1312668E+00
        -11   -1    0    0    0    0  0.00000000000E+00  0.00000000000E+00  0.45593999997E+02  0.45594000000E+02  0.51100000000E-03 0.  1.
         11   -1    0    0    0    0 -0.00000000000E+00 -0.00000000000E+00 -0.45593999997E+02  0.45594000000E+02  0.51100000000E-03 0. -1.
    9900012    2    1    2    0    0 -0.23107076593E+02  0.60867800463E+01  0.36230341002E+02  0.47787268564E+02  0.19999988692E+02 0.  0.
         12    1    1    2    0    0  0.23107076593E+02 -0.60867800463E+01 -0.36230341002E+02  0.43400731436E+02  0.00000000000E+00 0. -1.
         11    1    3    3    0    0 -0.12558265809E+02  0.45846988374E+01  0.89487165127E+01  0.16087542729E+02  0.51100000000E-03 0. -1.
        -11    1    3    3    0    0 -0.81304139011E+01  0.66183125794E+01  0.17757294254E+02  0.20621037585E+02  0.51100000000E-03 0.  1.
         12    1    3    3    0    0 -0.24183968828E+01 -0.51162313704E+01  0.95243302358E+01  0.11078688251E+02  0.00000000000E+00 0. -1.
</event>
<event>
 7    1  0.2647566E-010  0.4778728E+02  0.7816164E-02  0.1312668E+00
        -11   -1    0    0    0    0  0.00000000000E+00  0.00000000000E+00  0.45593999997E+02  0.45594000000E+02  0.51100000000E-03 0.  1.
         11   -1    0    0    0    0 -0.00000000000E+00 -0.00000000000E+00 -0.45593999997E+02  0.45594000000E+02  0.51100000000E-03 0. -1.
    9900012    2    1    2    0    0 -0.12936997842E+02  0.25902302264E+02  0.32331527655E+02  0.47787275856E+02  0.20000021937E+02 0.  0.
         12    1    1    2    0    0  0.12936997842E+02 -0.25902302264E+02 -0.32331527655E+02  0.43400724144E+02  0.00000000000E+00 0. -1.
         11    1    3    3    0    0  0.14374735974E+01 -0.20711004913E+00  0.35745905149E+01  0.38583574907E+01  0.51100000000E-03 0. -1.
        -11    1    3    3    0    0 -0.68485776578E+01  0.94546172005E+01  0.25025929760E+01  0.11939672282E+02  0.51100000000E-03 0.  1.
        -12    1    3    3    0    0 -0.75258937814E+01  0.16654795113E+02  0.26254344164E+02  0.31989246083E+02  0.00000000000E+00 0.  1.
</event>
<event>
 7    1  0.2647566E-010  0.4778727E+02  0.7816164E-02  0.1312668E+00
        -11   -1    0    0    0    0  0.00000000000E+00  0.00000000000E+00  0.45593999997E+02  0.45594000000E+02  0.51100000000E-03 0.  1.
         11   -1    0    0    0    0 -0.00000000000E+00 -0.00000000000E+00 -0.45593999997E+02  0.45594000000E+02  0.51100000000E-03 0. -1.
    9900012    2    1    2    0    0 -0.26042584760E+02 -0.16837891259E+01  0.34678119346E+02  0.47787270419E+02  0.19999997148E+02 0.  0.
         12    1    1    2    0    0  0.26042584760E+02  0.16837891259E+01 -0.34678119346E+02  0.43400729581E+02  0.00000000000E+00 0. -1.
         11    1    3    3    0    0 -0.82153799653E+01  0.41425619406E+01  0.37108556539E+01  0.99208738200E+01  0.51100000000E-03 0. -1.
        -11    1    3    3    0    0 -0.10161484498E+02 -0.19809761458E+01  0.72302325201E+01  0.12627600573E+02  0.51100000000E-03 0.  1.
         12    1    3    3    0    0 -0.76657202970E+01 -0.38453749207E+01  0.23737031172E+02  0.25238796025E+02  0.00000000000E+00 0. -1.
</event>
<event>
 7    1  0.2647566E-010  0.4778727E+02  0.7816164E-02  0.1312668E+00
        -11   -1    0    0    0    0  0.00000000000E+00  0.00000000000E+00  0.45593999997E+02  0.45594000000E+02  0.51100000000E-03 0.  1.
         11   -1    0    0    0    0 -0.00000000000E+00 -0.00000000000E+00 -0.45593999997E+02  0.45594000000E+02  0.51100000000E-03 0. -1.
    9900012    2    1    2    0    0  0.26835925927E+02  0.12603993849E+02  0.31695360917E+02  0.47787268612E+02  0.19999988911E+02 0.  0.
         12    1    1    2    0    0 -0.26835925927E+02 -0.12603993849E+02 -0.31695360917E+02  0.43400731388E+02  0.00000000000E+00 0. -1.
         11    1    3    3    0    0  0.85653583999E+00  0.42300751785E+01  0.60654805963E+01  0.74442759746E+01  0.51100000000E-03 0. -1.
        -11    1    3    3    0    0  0.23876907927E+02  0.12029655772E+02  0.23602941557E+02  0.35663962211E+02  0.51100000000E-03 0.  1.
         12    1    3    3    0    0  0.21024821594E+01 -0.36557371012E+01  0.20269387637E+01  0.46790304269E+01  0.00000000000E+00 0. -1.
</event>
<event>
 7    1  0.2647566E-010  0.4778729E+02  0.7816164E-02  0.1312668E+00
        -11   -1    0    0    0    0  0.00000000000E+00  0.00000000000E+00  0.45593999997E+02  0.45594000000E+02  0.51100000000E-03 0.  1.
         11   -1    0    0    0    0 -0.00000000000E+00 -0.00000000000E+00 -0.45593999997E+02  0.45594000000E+02  0.51100000000E-03 0. -1.
    9900012    2    1    2    0    0  0.22572878088E+00  0.30159665434E+02  0.31208411339E+02  0.47787293659E+02  0.20000103110E+02 0.  0.
         12    1    1    2    0    0 -0.22572878088E+00 -0.30159665434E+02 -0.31208411339E+02  0.43400706341E+02  0.00000000000E+00 0. -1.
         11    1    3    3    0    0 -0.26431319281E+00  0.17376522228E+01  0.42839710328E+01  0.46305188459E+01  0.51100000000E-03 0. -1.
        -11    1    3    3    0    0  0.16221877330E+01  0.37995200671E+01  0.15404910470E+02  0.15949266837E+02  0.51100000000E-03 0.  1.
         12    1    3    3    0    0 -0.11321457593E+01  0.24622493144E+02  0.11519529836E+02  0.27207507976E+02  0.00000000000E+00 0. -1.
</event>
<event>
 7    1  0.2647566E-010  0.4778727E+02  0.7816164E-02  0.1312668E+00
        -11   -1    0    0    0    0  0.00000000000E+00  0.00000000000E+00  0.45593999997E+02  0.45594000000E+02  0.51100000000E-03 0. -1.
         11   -1    0    0    0    0 -0.00000000000E+00 -0.00000000000E+00 -0.45593999997E+02  0.45594000000E+02  0.51100000000E-03 0.  1.
    9900012    2    1    2    0    0 -0.28157077153E+02  0.88713751433E+01 -0.31813537388E+02  0.47787268994E+02  0.19999990651E+02 0.  0.
         12    1    1    2    0    0  0.28157077153E+02 -0.88713751433E+01  0.31813537388E+02  0.43400731006E+02  0.00000000000E+00 0. -1.
         11    1    3    3    0    0 -0.91611710447E+01  0.31967415579E+01 -0.20146375405E+02  0.22361186322E+02  0.51100000000E-03 0. -1.
        -11    1    3    3    0    0 -0.12619307109E+02 -0.15587700372E+00 -0.11032102511E+02  0.16762413180E+02  0.51100000000E-03 0.  1.
         12    1    3    3    0    0 -0.63765989997E+01  0.58305105891E+01 -0.63505947151E+00  0.86636694919E+01  0.00000000000E+00 0. -1.
</event>
<event>
 7    1  0.2647566E-010  0.4778727E+02  0.7816164E-02  0.1312668E+00
        -11   -1    0    0    0    0  0.00000000000E+00  0.00000000000E+00  0.45593999997E+02  0.45594000000E+02  0.51100000000E-03 0.  1.
         11   -1    0    0    0    0 -0.00000000000E+00 -0.00000000000E+00 -0.45593999997E+02  0.45594000000E+02  0.51100000000E-03 0. -1.
    9900012    2    1    2    0    0 -0.39080107091E+01 -0.11356350191E+02  0.41705928174E+02  0.47787266340E+02  0.19999978550E+02 0.  0.
         12    1    1    2    0    0  0.39080107091E+01  0.11356350191E+02 -0.41705928174E+02  0.43400733660E+02  0.00000000000E+00 0. -1.
         11    1    3    3    0    0 -0.26750712932E+01 -0.69468499630E+01  0.25053698727E+02  0.26136230620E+02  0.51100000000E-03 0. -1.
        -11    1    3    3    0    0 -0.24157227856E+01  0.40265705973E+00  0.16513076689E+02  0.16693697951E+02  0.51100000000E-03 0.  1.
         12    1    3    3    0    0  0.11827833696E+01 -0.48121572879E+01  0.13915275752E+00  0.49573377687E+01  0.00000000000E+00 0. -1.
</event>
<event>
 7    1  0.2647566E-010  0.4778727E+02  0.7816164E-02  0.1312668E+00
        -11   -1    0    0    0    0  0.00000000000E+00  0.00000000000E+00  0.45593999997E+02  0.45594000000E+02  0.51100000000E-03 0.  1.
         11   -1    0    0    0    0 -0.00000000000E+00 -0.00000000000E+00 -0.45593999997E+02  0.45594000000E+02  0.51100000000E-03 0. -1.
    9900012    2    1    2    0    0  0.77877335565E+01 -0.55179778070E+01  0.42338238598E+02  0.47787270506E+02  0.19999997547E+02 0.  0.
         12    1    1    2    0    0 -0.77877335565E+01  0.55179778070E+01 -0.42338238598E+02  0.43400729494E+02  0.00000000000E+00 0. -1.
         11    1    3    3    0    0 -0.18052430126E+00 -0.58902115218E+01  0.18152063785E+02  0.19084669259E+02  0.51100000000E-03 0. -1.
        -11    1    3    3    0    0  0.93075483142E+01 -0.36589725237E+01  0.21402694396E+02  0.23624010312E+02  0.51100000000E-03 0.  1.
         12    1    3    3    0    0 -0.13392904564E+01  0.40312062385E+01  0.27834804166E+01  0.50785909358E+01  0.00000000000E+00 0. -1.
</event>
<event>
 7    1  0.2647566E-010  0.4778727E+02  0.7816164E-02  0.1312668E+00
        -11   -1    0    0    0    0  0.00000000000E+00  0.00000000000E+00  0.45593999997E+02  0.45594000000E+02  0.51100000000E-03 0. -1.
         11   -1    0    0    0    0 -0.00000000000E+00 -0.00000000000E+00 -0.45593999997E+02  0.45594000000E+02  0.51100000000E-03 0.  1.
    9900012    2    1    2    0    0 -0.16008688551E+02  0.34040698317E+02 -0.21646617069E+02  0.47787270956E+02  0.19999999595E+02 0.  0.
         12    1    1    2    0    0  0.16008688551E+02 -0.34040698317E+02  0.21646617069E+02  0.43400729044E+02  0.00000000000E+00 0. -1.
         11    1    3    3    0    0 -0.81419976336E+01  0.16722267341E+02 -0.50999286677E+01  0.19285632559E+02  0.51100000000E-03 0. -1.
        -11    1    3    3    0    0 -0.23290698258E+01  0.15067403460E+02 -0.16579341012E+02  0.22523893134E+02  0.51100000000E-03 0.  1.
         12    1    3    3    0    0 -0.55376210916E+01  0.22510275163E+01  0.32652611325E-01  0.59777452627E+01  0.00000000000E+00 0. -1.
</event>
<event>
 7    1  0.2647566E-010  0.4778727E+02  0.7816164E-02  0.1312668E+00
        -11   -1    0    0    0    0  0.00000000000E+00  0.00000000000E+00  0.45593999997E+02  0.45594000000E+02  0.51100000000E-03 0. -1.
         11   -1    0    0    0    0 -0.00000000000E+00 -0.00000000000E+00 -0.45593999997E+02  0.45594000000E+02  0.51100000000E-03 0.  1.
    9900012    2    1    2    0    0 -0.42243595581E+02  0.98912931656E+01 -0.11242658238E+01  0.47787273950E+02  0.20000013246E+02 0.  0.
         12    1    1    2    0    0  0.42243595581E+02 -0.98912931656E+01  0.11242658238E+01  0.43400726050E+02  0.00000000000E+00 0. -1.
         11    1    3    3    0    0 -0.14391359226E+02  0.86439727888E+01 -0.11920115163E+01  0.16830043899E+02  0.51100000000E-03 0. -1.
        -11    1    3    3    0    0 -0.24240829448E+02  0.36184932586E+01  0.43292853019E+01  0.24888833184E+02  0.51100000000E-03 0.  1.
         12    1    3    3    0    0 -0.36114069069E+01 -0.23711728818E+01 -0.42615396093E+01  0.60683968661E+01  0.00000000000E+00 0. -1.
</event>
<event>
 7    1  0.2647566E-010  0.4778726E+02  0.7816164E-02  0.1312668E+00
        -11   -1    0    0    0    0  0.00000000000E+00  0.00000000000E+00  0.45593999997E+02  0.45594000000E+02  0.51100000000E-03 0. -1.
         11   -1    0    0    0    0 -0.00000000000E+00 -0.00000000000E+00 -0.45593999997E+02  0.45594000000E+02  0.51100000000E-03 0.  1.
    9900012    2    1    2    0    0 -0.22360036550E+02  0.28942149090E+02 -0.23366743582E+02  0.47787263438E+02  0.19999965319E+02 0.  0.
         12    1    1    2    0    0  0.22360036550E+02 -0.28942149090E+02  0.23366743582E+02  0.43400736562E+02  0.00000000000E+00 0. -1.
         11    1    3    3    0    0 -0.74008071409E+01  0.18666499291E+01 -0.36925438316E+01  0.84788683505E+01  0.51100000000E-03 0. -1.
        -11    1    3    3    0    0 -0.78368038251E+01  0.15109927315E+02 -0.25089542593E+01  0.17205239010E+02  0.51100000000E-03 0.  1.
         12    1    3    3    0    0 -0.71224255845E+01  0.11965571846E+02 -0.17165245491E+02  0.22103156077E+02  0.00000000000E+00 0. -1.
</event>
<event>
 7    1  0.2647566E-010  0.4778726E+02  0.7816164E-02  0.1312668E+00
        -11   -1    0    0    0    0  0.00000000000E+00  0.00000000000E+00  0.45593999997E+02  0.45594000000E+02  0.51100000000E-03 0. -1.
         11   -1    0    0    0    0 -0.00000000000E+00 -0.00000000000E+00 -0.45593999997E+02  0.45594000000E+02  0.51100000000E-03 0.  1.
    9900012    2    1    2    0    0  0.41925937373E+02 -0.39017902145E+01 -0.10517422012E+02  0.47787258563E+02  0.19999943093E+02 0.  0.
         12    1    1    2    0    0 -0.41925937373E+02  0.39017902145E+01  0.10517422012E+02  0.43400741437E+02  0.00000000000E+00 0. -1.
         11    1    3    3    0    0  0.68137593670E+01  0.11619181498E+01 -0.85787503008E+01  0.11016910977E+02  0.51100000000E-03 0. -1.
        -11    1    3    3    0    0  0.27788398325E+02 -0.34640953300E+01 -0.53901505589E+01  0.28517516744E+02  0.51100000000E-03 0.  1.
        -12    1    3    3    0    0  0.73237796808E+01 -0.15996130344E+01  0.34514788475E+01  0.82528308421E+01  0.00000000000E+00 0.  1.
</event>
<event>
 7    1  0.2647566E-010  0.4778727E+02  0.7816164E-02  0.1312668E+00
        -11   -1    0    0    0    0  0.00000000000E+00  0.00000000000E+00  0.45593999997E+02  0.45594000000E+02  0.51100000000E-03 0.  1.
         11   -1    0    0    0    0 -0.00000000000E+00 -0.00000000000E+00 -0.45593999997E+02  0.45594000000E+02  0.51100000000E-03 0. -1.
    9900012    2    1    2    0    0 -0.47505877126E+01  0.16322274873E+02  0.39932928296E+02  0.47787268406E+02  0.19999987968E+02 0.  0.
         12    1    1    2    0    0  0.47505877126E+01 -0.16322274873E+02 -0.39932928296E+02  0.43400731594E+02  0.00000000000E+00 0. -1.
         11    1    3    3    0    0 -0.28991717445E+01  0.53906711846E+01  0.83925996302E+01  0.10387505063E+02  0.51100000000E-03 0. -1.
        -11    1    3    3    0    0  0.23884557258E+01  0.34923398543E+00 -0.12256695819E+01  0.27072035970E+01  0.51100000000E-03 0.  1.
        -12    1    3    3    0    0 -0.42398716939E+01  0.10582369703E+02  0.32765998248E+02  0.34692559745E+02  0.00000000000E+00 0.  1.
</event>
<event>
 7    1  0.2647566E-010  0.4778727E+02  0.7816164E-02  0.1312668E+00
        -11   -1    0    0    0    0  0.00000000000E+00  0.00000000000E+00  0.45593999997E+02  0.45594000000E+02  0.51100000000E-03 0.  1.
         11   -1    0    0    0    0 -0.00000000000E+00 -0.00000000000E+00 -0.45593999997E+02  0.45594000000E+02  0.51100000000E-03 0. -1.
    9900012    2    1    2    0    0 -0.77724835311E+01 -0.91349609129E+01  0.41710482420E+02  0.47787270112E+02  0.19999995749E+02 0.  0.
         12    1    1    2    0    0  0.77724835311E+01  0.91349609129E+01 -0.41710482420E+02  0.43400729888E+02  0.00000000000E+00 0. -1.
         11    1    3    3    0    0 -0.61099342573E+01 -0.67644761040E+01  0.16375289783E+02  0.18741386003E+02  0.51100000000E-03 0. -1.
        -11    1    3    3    0    0 -0.26181229045E+01 -0.14829432353E+01 -0.60815367013E+00  0.30697783845E+01  0.51100000000E-03 0.  1.
        -12    1    3    3    0    0  0.95557363068E+00 -0.88754157358E+00  0.25943346307E+02  0.25976105724E+02  0.00000000000E+00 0.  1.
</event>
<event>
 7    1  0.2647566E-010  0.4778730E+02  0.7816164E-02  0.1312668E+00
        -11   -1    0    0    0    0  0.00000000000E+00  0.00000000000E+00  0.45593999997E+02  0.45594000000E+02  0.51100000000E-03 0.  1.
         11   -1    0    0    0    0 -0.00000000000E+00 -0.00000000000E+00 -0.45593999997E+02  0.45594000000E+02  0.51100000000E-03 0. -1.
    9900012    2    1    2    0    0  0.39390365210E+02 -0.18200835479E+02 -0.86594262701E+00  0.47787295626E+02  0.20000112079E+02 0.  0.
         12    1    1    2    0    0 -0.39390365210E+02  0.18200835479E+02  0.86594262701E+00  0.43400704374E+02  0.00000000000E+00 0. -1.
         11    1    3    3    0    0 -0.10912326166E+01 -0.18384475008E+01  0.27402974852E+00  0.21554049273E+01  0.51100000000E-03 0. -1.
        -11    1    3    3    0    0  0.11765044043E+02 -0.11510665344E+02  0.44327621953E+00  0.16465362798E+02  0.51100000000E-03 0.  1.
        -12    1    3    3    0    0  0.28716553783E+02 -0.48517226343E+01 -0.15832485951E+01  0.29166527901E+02  0.00000000000E+00 0.  1.
</event>
<event>
 7    1  0.2897520E-010  0.4778727E+02  0.7816164E-02  0.1312668E+00
        -11   -1    0    0    0    0  0.00000000000E+00  0.00000000000E+00  0.45593999997E+02  0.45594000000E+02  0.51100000000E-03 0. -1.
         11   -1    0    0    0    0 -0.00000000000E+00 -0.00000000000E+00 -0.45593999997E+02  0.45594000000E+02  0.51100000000E-03 0.  1.
    9900012    2    1    2    0    0 -0.37516164225E+02  0.98881748704E+01 -0.19452119586E+02  0.47787268015E+02  0.19999986190E+02 0.  0.
         12    1    1    2    0    0  0.37516164225E+02 -0.98881748704E+01  0.19452119586E+02  0.43400731985E+02  0.00000000000E+00 0. -1.
         11    1    3    3    0    0 -0.10624584187E+02 -0.37470635635E+01 -0.45375400230E+01  0.12145433060E+02  0.51100000000E-03 0. -1.
        -11    1    3    3    0    0 -0.23084516713E+02  0.64853612638E+01 -0.13165757855E+02  0.27354926480E+02  0.51100000000E-03 0.  1.
         12    1    3    3    0    0 -0.38070633246E+01  0.71498771700E+01 -0.17488217080E+01  0.82869084748E+01  0.00000000000E+00 0. -1.
</event>
<event>
 7    1  0.2647566E-010  0.4778727E+02  0.7816164E-02  0.1312668E+00
        -11   -1    0    0    0    0  0.00000000000E+00  0.00000000000E+00  0.45593999997E+02  0.45594000000E+02  0.51100000000E-03 0.  1.
         11   -1    0    0    0    0 -0.00000000000E+00 -0.00000000000E+00 -0.45593999997E+02  0.45594000000E+02  0.51100000000E-03 0. -1.
    9900012    2    1    2    0    0 -0.32837223117E+02 -0.27034653815E+02 -0.86294402235E+01  0.47787274575E+02  0.20000016095E+02 0.  0.
         12    1    1    2    0    0  0.32837223117E+02  0.27034653815E+02  0.86294402235E+01  0.43400725425E+02  0.00000000000E+00 0. -1.
         11    1    3    3    0    0  0.28592024289E+00 -0.31198840181E+01  0.16388052702E+01  0.35356908301E+01  0.51100000000E-03 0.  1.
        -11    1    3    3    0    0 -0.63033418045E+01 -0.40138528972E+01  0.33443410086E+01  0.81870476991E+01  0.51100000000E-03 0. -1.
         12    1    3    3    0    0 -0.26819801555E+02 -0.19900916899E+02 -0.13612586502E+02  0.36064536045E+02  0.00000000000E+00 0. -1.
</event>
<event>
 7    1  0.2647566E-010  0.4778727E+02  0.7816164E-02  0.1312668E+00
        -11   -1    0    0    0    0  0.00000000000E+00  0.00000000000E+00  0.45593999997E+02  0.45594000000E+02  0.51100000000E-03 0.  1.
         11   -1    0    0    0    0 -0.00000000000E+00 -0.00000000000E+00 -0.45593999997E+02  0.45594000000E+02  0.51100000000E-03 0. -1.
    9900012    2    1    2    0    0  0.34131464139E+02 -0.25773242515E+02 -0.73760586950E+01  0.47787272865E+02  0.20000008301E+02 0.  0.
         12    1    1    2    0    0 -0.34131464139E+02  0.25773242515E+02  0.73760586950E+01  0.43400727135E+02  0.00000000000E+00 0. -1.
         11    1    3    3    0    0  0.92468222779E+01  0.72937859425E+00 -0.13418575375E+00  0.92765145098E+01  0.51100000000E-03 0. -1.
        -11    1    3    3    0    0  0.61260126756E+01 -0.57624721169E+01 -0.63381119250E+01  0.10531181284E+02  0.51100000000E-03 0.  1.
         12    1    3    3    0    0  0.18758629185E+02 -0.20740148992E+02 -0.90376101623E+00  0.27979577071E+02  0.00000000000E+00 0. -1.
</event>
<event>
 7    1  0.2647566E-010  0.4778727E+02  0.7816164E-02  0.1312668E+00
        -11   -1    0    0    0    0  0.00000000000E+00  0.00000000000E+00  0.45593999997E+02  0.45594000000E+02  0.51100000000E-03 0. -1.
         11   -1    0    0    0    0 -0.00000000000E+00 -0.00000000000E+00 -0.45593999997E+02  0.45594000000E+02  0.51100000000E-03 0.  1.
    9900012    2    1    2    0    0 -0.19363064158E+02  0.14836950834E+02 -0.35896513379E+02  0.47787273781E+02  0.20000012475E+02 0.  0.
         12    1    1    2    0    0  0.19363064158E+02 -0.14836950834E+02  0.35896513379E+02  0.43400726219E+02  0.00000000000E+00 0. -1.
         11    1    3    3    0    0 -0.55955110646E+01 -0.12733301526E+01 -0.45151355245E+01  0.73018876202E+01  0.51100000000E-03 0. -1.
        -11    1    3    3    0    0  0.13840210771E+01  0.38277999568E+01 -0.13227875552E+02  0.13839951543E+02  0.51100000000E-03 0.  1.
         12    1    3    3    0    0 -0.15151574171E+02  0.12282481029E+02 -0.18153502302E+02  0.26645434617E+02  0.00000000000E+00 0. -1.
</event>
<event>
 7    1  0.2647566E-010  0.4778727E+02  0.7816164E-02  0.1312668E+00
        -11   -1    0    0    0    0  0.00000000000E+00  0.00000000000E+00  0.45593999997E+02  0.45594000000E+02  0.51100000000E-03 0.  1.
         11   -1    0    0    0    0 -0.00000000000E+00 -0.00000000000E+00 -0.45593999997E+02  0.45594000000E+02  0.51100000000E-03 0. -1.
    9900012    2    1    2    0    0  0.97636337945E+01 -0.40863493304E+01  0.42090342641E+02  0.47787265682E+02  0.19999975552E+02 0.  0.
         12    1    1    2    0    0 -0.97636337945E+01  0.40863493304E+01 -0.42090342641E+02  0.43400734318E+02  0.00000000000E+00 0. -1.
         11    1    3    3    0    0  0.21631504953E+01  0.60481385834E+01  0.20591152630E+02  0.21569765119E+02  0.51100000000E-03 0. -1.
        -11    1    3    3    0    0 -0.11831690191E+01 -0.20768026351E+01  0.72843851788E+01  0.76665028407E+01  0.51100000000E-03 0.  1.
         12    1    3    3    0    0  0.87836523184E+01 -0.80576852787E+01  0.14214804832E+02  0.18550997723E+02  0.00000000000E+00 0. -1.
</event>
<event>
 7    1  0.2647566E-010  0.4778727E+02  0.7816164E-02  0.1312668E+00
        -11   -1    0    0    0    0  0.00000000000E+00  0.00000000000E+00  0.45593999997E+02  0.45594000000E+02  0.51100000000E-03 0.  1.
         11   -1    0    0    0    0 -0.00000000000E+00 -0.00000000000E+00 -0.45593999997E+02  0.45594000000E+02  0.51100000000E-03 0. -1.
    9900012    2    1    2    0    0  0.76483203808E+01  0.74724992149E+01  0.42062908107E+02  0.47787270886E+02  0.19999999278E+02 0.  0.
         12    1    1    2    0    0 -0.76483203808E+01 -0.74724992149E+01 -0.42062908107E+02  0.43400729114E+02  0.00000000000E+00 0. -1.
         11    1    3    3    0    0  0.57161286028E+01  0.46409713471E+01  0.35968242877E+01  0.81945034301E+01  0.51100000000E-03 0. -1.
        -11    1    3    3    0    0 -0.19154137623E+01 -0.19597519491E+00  0.19162105882E+01  0.27164461042E+01  0.51100000000E-03 0.  1.
        -12    1    3    3    0    0  0.38476055403E+01  0.30275030628E+01  0.36549873232E+02  0.36876321352E+02  0.00000000000E+00 0.  1.
</event>
<event>
 7    1  0.2647566E-010  0.4778727E+02  0.7816164E-02  0.1312668E+00
        -11   -1    0    0    0    0  0.00000000000E+00  0.00000000000E+00  0.45593999997E+02  0.45594000000E+02  0.51100000000E-03 0.  1.
         11   -1    0    0    0    0 -0.00000000000E+00 -0.00000000000E+00 -0.45593999997E+02  0.45594000000E+02  0.51100000000E-03 0. -1.
    9900012    2    1    2    0    0 -0.30507390089E+02 -0.36852809959E+01  0.30648670662E+02  0.47787272363E+02  0.20000006012E+02 0.  0.
         12    1    1    2    0    0  0.30507390089E+02  0.36852809959E+01 -0.30648670662E+02  0.43400727637E+02  0.00000000000E+00 0. -1.
         11    1    3    3    0    0 -0.15820844338E+01 -0.82288784655E+00  0.88147561383E+01  0.89933342873E+01  0.51100000000E-03 0. -1.
        -11    1    3    3    0    0 -0.50368453870E+01  0.26223397960E+01  0.10174794605E+02  0.11652163875E+02  0.51100000000E-03 0.  1.
        -12    1    3    3    0    0 -0.23888460269E+02 -0.54847329454E+01  0.11659119919E+02  0.27141774201E+02  0.00000000000E+00 0.  1.
</event>
<event>
 7    1  0.2647566E-010  0.4778728E+02  0.7816164E-02  0.1312668E+00
        -11   -1    0    0    0    0  0.00000000000E+00  0.00000000000E+00  0.45593999997E+02  0.45594000000E+02  0.51100000000E-03 0. -1.
         11   -1    0    0    0    0 -0.00000000000E+00 -0.00000000000E+00 -0.45593999997E+02  0.45594000000E+02  0.51100000000E-03 0.  1.
    9900012    2    1    2    0    0 -0.58429314335E+01 -0.17118718569E+02 -0.39451646971E+02  0.47787276252E+02  0.20000023742E+02 0.  0.
         12    1    1    2    0    0  0.58429314335E+01  0.17118718569E+02  0.39451646971E+02  0.43400723748E+02  0.00000000000E+00 0. -1.
         11    1    3    3    0    0 -0.90358734051E+01 -0.37664941042E+01 -0.62029848748E+01  0.11589241030E+02  0.51100000000E-03 0. -1.
        -11    1    3    3    0    0  0.21338100232E+01 -0.20818759400E+01 -0.75087319046E+01  0.80788865397E+01  0.51100000000E-03 0.  1.
         12    1    3    3    0    0  0.10591319484E+01 -0.11270348525E+02 -0.25739930191E+02  0.28119148682E+02  0.00000000000E+00 0. -1.
</event>
<event>
 7    1  0.2647566E-010  0.4778727E+02  0.7816164E-02  0.1312668E+00
        -11   -1    0    0    0    0  0.00000000000E+00  0.00000000000E+00  0.45593999997E+02  0.45594000000E+02  0.51100000000E-03 0.  1.
         11   -1    0    0    0    0 -0.00000000000E+00 -0.00000000000E+00 -0.45593999997E+02  0.45594000000E+02  0.51100000000E-03 0. -1.
    9900012    2    1    2    0    0 -0.21264874721E+02  0.33983827007E+02 -0.16629124089E+02  0.47787272323E+02  0.20000005830E+02 0.  0.
         12    1    1    2    0    0  0.21264874721E+02 -0.33983827007E+02  0.16629124089E+02  0.43400727677E+02  0.00000000000E+00 0. -1.
         11    1    3    3    0    0 -0.53696165988E+01  0.81569463095E+01 -0.71880631648E-01  0.97659470918E+01  0.51100000000E-03 0. -1.
        -11    1    3    3    0    0 -0.14760246975E+02  0.17457699328E+02 -0.44993880384E+01  0.23299799346E+02  0.51100000000E-03 0.  1.
        -12    1    3    3    0    0 -0.11350111471E+01  0.83691813700E+01 -0.12057855418E+02  0.14721525886E+02  0.00000000000E+00 0.  1.
</event>
<event>
 7    1  0.2647566E-010  0.4778727E+02  0.7816164E-02  0.1312668E+00
        -11   -1    0    0    0    0  0.00000000000E+00  0.00000000000E+00  0.45593999997E+02  0.45594000000E+02  0.51100000000E-03 0.  1.
         11   -1    0    0    0    0 -0.00000000000E+00 -0.00000000000E+00 -0.45593999997E+02  0.45594000000E+02  0.51100000000E-03 0. -1.
    9900012    2    1    2    0    0 -0.10390685397E+01  0.46179091954E+01  0.43141839090E+02  0.47787273868E+02  0.20000012872E+02 0.  0.
         12    1    1    2    0    0  0.10390685397E+01 -0.46179091954E+01 -0.43141839090E+02  0.43400726132E+02  0.00000000000E+00 0. -1.
         11    1    3    3    0    0  0.61671243337E-01  0.53846615410E+01  0.45013750549E+01  0.70186010642E+01  0.51100000000E-03 0. -1.
        -11    1    3    3    0    0 -0.44689932688E+01 -0.21714462313E+01  0.54372832792E+01  0.73655365923E+01  0.51100000000E-03 0.  1.
         12    1    3    3    0    0  0.33682534858E+01  0.14046938857E+01  0.33203180756E+02  0.33403136211E+02  0.00000000000E+00 0. -1.
</event>
<event>
 7    1  0.2647566E-010  0.4778727E+02  0.7816164E-02  0.1312668E+00
        -11   -1    0    0    0    0  0.00000000000E+00  0.00000000000E+00  0.45593999997E+02  0.45594000000E+02  0.51100000000E-03 0. -1.
         11   -1    0    0    0    0 -0.00000000000E+00 -0.00000000000E+00 -0.45593999997E+02  0.45594000000E+02  0.51100000000E-03 0.  1.
    9900012    2    1    2    0    0 -0.23074866456E+02  0.18138754948E+02 -0.31971230537E+02  0.47787268726E+02  0.19999989430E+02 0.  0.
         12    1    1    2    0    0  0.23074866456E+02 -0.18138754948E+02  0.31971230537E+02  0.43400731274E+02  0.00000000000E+00 0. -1.
         11    1    3    3    0    0 -0.41899920455E+01  0.60143832561E+01 -0.13961866169E+02  0.15769037589E+02  0.51100000000E-03 0.  1.
        -11    1    3    3    0    0 -0.27711376542E+00  0.62194686238E+01 -0.13875486088E+01  0.63783911298E+01  0.51100000000E-03 0. -1.
         12    1    3    3    0    0 -0.18607760646E+02  0.59049030677E+01 -0.16621815759E+02  0.25639840008E+02  0.00000000000E+00 0. -1.
</event>
<event>
 7    1  0.2647566E-010  0.4778727E+02  0.7816164E-02  0.1312668E+00
        -11   -1    0    0    0    0  0.00000000000E+00  0.00000000000E+00  0.45593999997E+02  0.45594000000E+02  0.51100000000E-03 0. -1.
         11   -1    0    0    0    0 -0.00000000000E+00 -0.00000000000E+00 -0.45593999997E+02  0.45594000000E+02  0.51100000000E-03 0.  1.
    9900012    2    1    2    0    0  0.31108155099E+02 -0.28902659107E+02  0.89745376584E+01  0.47787270245E+02  0.19999996354E+02 0.  0.
         12    1    1    2    0    0 -0.31108155099E+02  0.28902659107E+02 -0.89745376584E+01  0.43400729755E+02  0.00000000000E+00 0. -1.
         11    1    3    3    0    0  0.57163432855E+01 -0.70844510108E+00 -0.26252533099E+01  0.63301208694E+01  0.51100000000E-03 0. -1.
        -11    1    3    3    0    0  0.16420579938E+02 -0.13877957818E+02  0.10216284071E+01  0.21523867764E+02  0.51100000000E-03 0.  1.
        -12    1    3    3    0    0  0.89712318759E+01 -0.14316256188E+02  0.10578162561E+02  0.19933281611E+02  0.00000000000E+00 0.  1.
</event>
<event>
 7    1  0.2647566E-010  0.4778727E+02  0.7816164E-02  0.1312668E+00
        -11   -1    0    0    0    0  0.00000000000E+00  0.00000000000E+00  0.45593999997E+02  0.45594000000E+02  0.51100000000E-03 0. -1.
         11   -1    0    0    0    0 -0.00000000000E+00 -0.00000000000E+00 -0.45593999997E+02  0.45594000000E+02  0.51100000000E-03 0.  1.
    9900012    2    1    2    0    0  0.33425696348E+02  0.11298363384E+02 -0.25272379916E+02  0.47787269844E+02  0.19999994527E+02 0.  0.
         12    1    1    2    0    0 -0.33425696348E+02 -0.11298363384E+02  0.25272379916E+02  0.43400730156E+02  0.00000000000E+00 0. -1.
         11    1    3    3    0    0 -0.32731599834E-01  0.60129379789E+00  0.28196783008E+00  0.66492985144E+00  0.51100000000E-03 0. -1.
        -11    1    3    3    0    0  0.93254794446E+01 -0.36502516082E+01 -0.14501903138E+01  0.10118891040E+02  0.51100000000E-03 0.  1.
         12    1    3    3    0    0  0.24132948503E+02  0.14347321194E+02 -0.24104157432E+02  0.37003448953E+02  0.00000000000E+00 0. -1.
</event>
<event>
 7    1  0.2647566E-010  0.4778727E+02  0.7816164E-02  0.1312668E+00
        -11   -1    0    0    0    0  0.00000000000E+00  0.00000000000E+00  0.45593999997E+02  0.45594000000E+02  0.51100000000E-03 0.  1.
         11   -1    0    0    0    0 -0.00000000000E+00 -0.00000000000E+00 -0.45593999997E+02  0.45594000000E+02  0.51100000000E-03 0. -1.
    9900012    2    1    2    0    0 -0.71266875926E+01 -0.91052621703E+01  0.41832142351E+02  0.47787267185E+02  0.19999982403E+02 0.  0.
         12    1    1    2    0    0  0.71266875926E+01  0.91052621703E+01 -0.41832142351E+02  0.43400732815E+02  0.00000000000E+00 0. -1.
         11    1    3    3    0    0 -0.43678850116E+01 -0.36933626435E+01  0.72130565944E+01  0.92058423181E+01  0.51100000000E-03 0. -1.
        -11    1    3    3    0    0 -0.14525476358E+00  0.50327674770E+01  0.51284582190E+01  0.71868582419E+01  0.51100000000E-03 0.  1.
        -12    1    3    3    0    0 -0.26135478175E+01 -0.10444667004E+02  0.29490627537E+02  0.31394566625E+02  0.00000000000E+00 0.  1.
</event>
<event>
 7    1  0.2647566E-010  0.4778726E+02  0.7816164E-02  0.1312668E+00
        -11   -1    0    0    0    0  0.00000000000E+00  0.00000000000E+00  0.45593999997E+02  0.45594000000E+02  0.51100000000E-03 0.  1.
         11   -1    0    0    0    0 -0.00000000000E+00 -0.00000000000E+00 -0.45593999997E+02  0.45594000000E+02  0.51100000000E-03 0. -1.
    9900012    2    1    2    0    0 -0.39902724860E+02 -0.10967592180E+02  0.13080860117E+02  0.47787257715E+02  0.19999939226E+02 0.  0.
         12    1    1    2    0    0  0.39902724860E+02  0.10967592180E+02 -0.13080860117E+02  0.43400742285E+02  0.00000000000E+00 0. -1.
         11    1    3    3    0    0 -0.30325355304E+02 -0.15602361993E+02  0.76661723441E+01  0.34954700295E+02  0.51100000000E-03 0. -1.
        -11    1    3    3    0    0 -0.20578002250E+00 -0.48325690786E+00  0.12771063647E+01  0.13808995563E+01  0.51100000000E-03 0.  1.
         12    1    3    3    0    0 -0.93715895337E+01  0.51180267211E+01  0.41375814084E+01  0.11451657863E+02  0.00000000000E+00 0. -1.
</event>
<event>
 7    1  0.2647566E-010  0.4778727E+02  0.7816164E-02  0.1312668E+00
        -11   -1    0    0    0    0  0.00000000000E+00  0.00000000000E+00  0.45593999997E+02  0.45594000000E+02  0.51100000000E-03 0.  1.
         11   -1    0    0    0    0 -0.00000000000E+00 -0.00000000000E+00 -0.45593999997E+02  0.45594000000E+02  0.51100000000E-03 0. -1.
    9900012    2    1    2    0    0 -0.27813721570E+02 -0.17969615623E+02 -0.28055532058E+02  0.47787273367E+02  0.20000010591E+02 0.  0.
         12    1    1    2    0    0  0.27813721570E+02  0.17969615623E+02  0.28055532058E+02  0.43400726633E+02  0.00000000000E+00 0. -1.
         11    1    3    3    0    0 -0.22573759615E+02 -0.17266990642E+02 -0.20123027910E+02  0.34823265808E+02  0.51100000000E-03 0. -1.
        -11    1    3    3    0    0 -0.74263646708E+01 -0.20142965654E+01 -0.61952890906E+01  0.98787595402E+01  0.51100000000E-03 0.  1.
        -12    1    3    3    0    0  0.21864027162E+01  0.13116715848E+01 -0.17372150578E+01  0.30852480194E+01  0.00000000000E+00 0.  1.
</event>
<event>
 7    1  0.2647566E-010  0.4778728E+02  0.7816164E-02  0.1312668E+00
        -11   -1    0    0    0    0  0.00000000000E+00  0.00000000000E+00  0.45593999997E+02  0.45594000000E+02  0.51100000000E-03 0.  1.
         11   -1    0    0    0    0 -0.00000000000E+00 -0.00000000000E+00 -0.45593999997E+02  0.45594000000E+02  0.51100000000E-03 0. -1.
    9900012    2    1    2    0    0  0.18741433215E+02 -0.10312276840E+02  0.37762925413E+02  0.47787275256E+02  0.20000019201E+02 0.  0.
         12    1    1    2    0    0 -0.18741433215E+02  0.10312276840E+02 -0.37762925413E+02  0.43400724744E+02  0.00000000000E+00 0. -1.
         11    1    3    3    0    0  0.49297446874E-01  0.14071462428E+01  0.13956017484E+00  0.14149092163E+01  0.51100000000E-03 0. -1.
        -11    1    3    3    0    0  0.13314064115E+02  0.17755252838E+00  0.13616064152E+02  0.19044501343E+02  0.51100000000E-03 0.  1.
        -12    1    3    3    0    0  0.53780716524E+01 -0.11896975612E+02  0.24007301086E+02  0.27327864696E+02  0.00000000000E+00 0.  1.
</event>
<event>
 7    1  0.2647566E-010  0.4778726E+02  0.7816164E-02  0.1312668E+00
        -11   -1    0    0    0    0  0.00000000000E+00  0.00000000000E+00  0.45593999997E+02  0.45594000000E+02  0.51100000000E-03 0.  1.
         11   -1    0    0    0    0 -0.00000000000E+00 -0.00000000000E+00 -0.45593999997E+02  0.45594000000E+02  0.51100000000E-03 0. -1.
    9900012    2    1    2    0    0 -0.16316895082E+02  0.37697763787E+01  0.40039625092E+02  0.47787264332E+02  0.19999969394E+02 0.  0.
         12    1    1    2    0    0  0.16316895082E+02 -0.37697763787E+01 -0.40039625092E+02  0.43400735668E+02  0.00000000000E+00 0. -1.
         11    1    3    3    0    0 -0.13568906030E+01  0.30082271832E+01  0.10364729469E+02  0.10877416979E+02  0.51100000000E-03 0. -1.
        -11    1    3    3    0    0 -0.54265556977E+01  0.69669382229E+01  0.20411749351E+02  0.22240171914E+02  0.51100000000E-03 0.  1.
         12    1    3    3    0    0 -0.95334487810E+01 -0.62053890275E+01  0.92631462720E+01  0.14669675439E+02  0.00000000000E+00 0. -1.
</event>
<event>
 7    1  0.2647566E-010  0.4778727E+02  0.7816164E-02  0.1312668E+00
        -11   -1    0    0    0    0  0.00000000000E+00  0.00000000000E+00  0.45593999997E+02  0.45594000000E+02  0.51100000000E-03 0.  1.
         11   -1    0    0    0    0 -0.00000000000E+00 -0.00000000000E+00 -0.45593999997E+02  0.45594000000E+02  0.51100000000E-03 0. -1.
    9900012    2    1    2    0    0  0.12153994373E+01  0.28730393824E+02  0.32507079810E+02  0.47787274628E+02  0.20000016339E+02 0.  0.
         12    1    1    2    0    0 -0.12153994373E+01 -0.28730393824E+02 -0.32507079810E+02  0.43400725372E+02  0.00000000000E+00 0. -1.
         11    1    3    3    0    0 -0.73793389588E+00  0.60825327031E+01  0.12559689303E+01  0.62545350534E+01  0.51100000000E-03 0.  1.
        -11    1    3    3    0    0 -0.61948638162E+01  0.11946341067E+02  0.19373053370E+02  0.23588272504E+02  0.51100000000E-03 0. -1.
         12    1    3    3    0    0  0.81481971493E+01  0.10701520054E+02  0.11878057510E+02  0.17944467071E+02  0.00000000000E+00 0. -1.
</event>
<event>
 7    1  0.2647566E-010  0.4778728E+02  0.7816164E-02  0.1312668E+00
        -11   -1    0    0    0    0  0.00000000000E+00  0.00000000000E+00  0.45593999997E+02  0.45594000000E+02  0.51100000000E-03 0.  1.
         11   -1    0    0    0    0 -0.00000000000E+00 -0.00000000000E+00 -0.45593999997E+02  0.45594000000E+02  0.51100000000E-03 0. -1.
    9900012    2    1    2    0    0 -0.12471791540E+02 -0.34761935031E+02  0.22796598118E+02  0.47787278842E+02  0.20000035551E+02 0.  0.
         12    1    1    2    0    0  0.12471791540E+02  0.34761935031E+02 -0.22796598118E+02  0.43400721158E+02  0.00000000000E+00 0. -1.
         11    1    3    3    0    0  0.98965473751E+00 -0.97407439460E+00 -0.14666838192E+01  0.20197522404E+01  0.51100000000E-03 0. -1.
        -11    1    3    3    0    0  0.27301401332E+01 -0.32734504582E+01  0.26859503896E+01  0.50382013463E+01  0.51100000000E-03 0.  1.
        -12    1    3    3    0    0 -0.16191586411E+02 -0.30514410178E+02  0.21577331548E+02  0.40729325255E+02  0.00000000000E+00 0.  1.
</event>
<event>
 7    1  0.2647566E-010  0.4778727E+02  0.7816164E-02  0.1312668E+00
        -11   -1    0    0    0    0  0.00000000000E+00  0.00000000000E+00  0.45593999997E+02  0.45594000000E+02  0.51100000000E-03 0.  1.
         11   -1    0    0    0    0 -0.00000000000E+00 -0.00000000000E+00 -0.45593999997E+02  0.45594000000E+02  0.51100000000E-03 0. -1.
    9900012    2    1    2    0    0 -0.24601602342E+02 -0.93098578286E+01  0.34521166743E+02  0.47787271390E+02  0.20000001574E+02 0.  0.
         12    1    1    2    0    0  0.24601602342E+02  0.93098578286E+01 -0.34521166743E+02  0.43400728610E+02  0.00000000000E+00 0. -1.
         11    1    3    3    0    0 -0.16848992125E+02 -0.10997276955E+02  0.23286908741E+02  0.30775132088E+02  0.51100000000E-03 0. -1.
        -11    1    3    3    0    0  0.41888526524E+00 -0.25707602464E+01  0.56913047404E+01  0.62590113452E+01  0.51100000000E-03 0.  1.
         12    1    3    3    0    0 -0.81714954820E+01  0.42581793730E+01  0.55429532621E+01  0.10753127957E+02  0.00000000000E+00 0. -1.
</event>
<event>
 7    1  0.2647566E-010  0.4778727E+02  0.7816164E-02  0.1312668E+00
        -11   -1    0    0    0    0  0.00000000000E+00  0.00000000000E+00  0.45593999997E+02  0.45594000000E+02  0.51100000000E-03 0.  1.
         11   -1    0    0    0    0 -0.00000000000E+00 -0.00000000000E+00 -0.45593999997E+02  0.45594000000E+02  0.51100000000E-03 0. -1.
    9900012    2    1    2    0    0 -0.14081063934E+02 -0.11380948742E+02  0.39443895210E+02  0.47787271606E+02  0.20000002561E+02 0.  0.
         12    1    1    2    0    0  0.14081063934E+02  0.11380948742E+02 -0.39443895210E+02  0.43400728394E+02  0.00000000000E+00 0. -1.
         11    1    3    3    0    0 -0.80524290837E+01  0.11208765713E+01  0.66088079310E+01  0.10477324132E+02  0.51100000000E-03 0. -1.
        -11    1    3    3    0    0 -0.13829364896E+01 -0.17157714072E+00  0.15364458084E+02  0.15427524899E+02  0.51100000000E-03 0.  1.
        -12    1    3    3    0    0 -0.46456983611E+01 -0.12330248173E+02  0.17470629195E+02  0.21882422575E+02  0.00000000000E+00 0.  1.
</event>
<event>
 7    1  0.2647566E-010  0.4778727E+02  0.7816164E-02  0.1312668E+00
        -11   -1    0    0    0    0  0.00000000000E+00  0.00000000000E+00  0.45593999997E+02  0.45594000000E+02  0.51100000000E-03 0. -1.
         11   -1    0    0    0    0 -0.00000000000E+00 -0.00000000000E+00 -0.45593999997E+02  0.45594000000E+02  0.51100000000E-03 0.  1.
    9900012    2    1    2    0    0  0.18814833892E+02  0.28082415579E+02 -0.27221379489E+02  0.47787267974E+02  0.19999985999E+02 0.  0.
         12    1    1    2    0    0 -0.18814833892E+02 -0.28082415579E+02  0.27221379489E+02  0.43400732026E+02  0.00000000000E+00 0. -1.
         11    1    3    3    0    0 -0.20938954971E+01  0.50626324366E+01 -0.11243967345E+01  0.55927554764E+01  0.51100000000E-03 0. -1.
        -11    1    3    3    0    0  0.25265956149E+01  0.10545127200E+02 -0.10102374703E+02  0.14820302560E+02  0.51100000000E-03 0.  1.
        -12    1    3    3    0    0  0.18382133774E+02  0.12474655942E+02 -0.15994608052E+02  0.27374209937E+02  0.00000000000E+00 0.  1.
</event>
<event>
 7    1  0.2647566E-010  0.4778727E+02  0.7816164E-02  0.1312668E+00
        -11   -1    0    0    0    0  0.00000000000E+00  0.00000000000E+00  0.45593999997E+02  0.45594000000E+02  0.51100000000E-03 0.  1.
         11   -1    0    0    0    0 -0.00000000000E+00 -0.00000000000E+00 -0.45593999997E+02  0.45594000000E+02  0.51100000000E-03 0. -1.
    9900012    2    1    2    0    0  0.16407050712E+01  0.42097140591E+02  0.10428909771E+02  0.47787270535E+02  0.19999997678E+02 0.  0.
         12    1    1    2    0    0 -0.16407050712E+01 -0.42097140591E+02 -0.10428909771E+02  0.43400729465E+02  0.00000000000E+00 0. -1.
         11    1    3    3    0    0  0.54228664202E+01  0.50465850306E+01  0.21077165003E+01  0.77018160059E+01  0.51100000000E-03 0. -1.
        -11    1    3    3    0    0  0.43236647410E+01  0.85872629990E+01  0.22522570459E+01  0.98746050386E+01  0.51100000000E-03 0.  1.
         12    1    3    3    0    0 -0.81058260900E+01  0.28463292561E+02  0.60689362251E+01  0.30210849491E+02  0.00000000000E+00 0. -1.
</event>
<event>
 7    1  0.2647566E-010  0.4778728E+02  0.7816164E-02  0.1312668E+00
        -11   -1    0    0    0    0  0.00000000000E+00  0.00000000000E+00  0.45593999997E+02  0.45594000000E+02  0.51100000000E-03 0. -1.
         11   -1    0    0    0    0 -0.00000000000E+00 -0.00000000000E+00 -0.45593999997E+02  0.45594000000E+02  0.51100000000E-03 0.  1.
    9900012    2    1    2    0    0  0.16681814771E+02 -0.99215797637E+01 -0.38818837876E+02  0.47787275777E+02  0.20000021577E+02 0.  0.
         12    1    1    2    0    0 -0.16681814771E+02  0.99215797637E+01  0.38818837876E+02  0.43400724223E+02  0.00000000000E+00 0. -1.
         11    1    3    3    0    0  0.82229740015E+01 -0.34864472769E+00 -0.12670696859E+02  0.15109116908E+02  0.51100000000E-03 0. -1.
        -11    1    3    3    0    0  0.23252839798E+00  0.32112815479E+01 -0.99751810764E+01  0.10481919500E+02  0.51100000000E-03 0.  1.
         12    1    3    3    0    0  0.82263123717E+01 -0.12784216584E+02 -0.16172959940E+02  0.22196239369E+02  0.00000000000E+00 0. -1.
</event>
<event>
 7    1  0.2647566E-010  0.4778727E+02  0.7816164E-02  0.1312668E+00
        -11   -1    0    0    0    0  0.00000000000E+00  0.00000000000E+00  0.45593999997E+02  0.45594000000E+02  0.51100000000E-03 0.  1.
         11   -1    0    0    0    0 -0.00000000000E+00 -0.00000000000E+00 -0.45593999997E+02  0.45594000000E+02  0.51100000000E-03 0. -1.
    9900012    2    1    2    0    0  0.15616591113E+02  0.30063267226E+02  0.27128318841E+02  0.47787266857E+02  0.19999980906E+02 0.  0.
         12    1    1    2    0    0 -0.15616591113E+02 -0.30063267226E+02 -0.27128318841E+02  0.43400733143E+02  0.00000000000E+00 0. -1.
         11    1    3    3    0    0  0.81040878656E+00  0.56530796272E+00 -0.20206695677E+01  0.22493201766E+01  0.51100000000E-03 0. -1.
        -11    1    3    3    0    0  0.27776876955E+01  0.10326928347E+02  0.33226085893E+01  0.11198246565E+02  0.51100000000E-03 0.  1.
        -12    1    3    3    0    0  0.12028494631E+02  0.19171030916E+02  0.25826379819E+02  0.34339700115E+02  0.00000000000E+00 0.  1.
</event>
<event>
 7    1  0.2647566E-010  0.4778727E+02  0.7816164E-02  0.1312668E+00
        -11   -1    0    0    0    0  0.00000000000E+00  0.00000000000E+00  0.45593999997E+02  0.45594000000E+02  0.51100000000E-03 0. -1.
         11   -1    0    0    0    0 -0.00000000000E+00 -0.00000000000E+00 -0.45593999997E+02  0.45594000000E+02  0.51100000000E-03 0.  1.
    9900012    2    1    2    0    0  0.31783084839E+02  0.29125360115E+02  0.50171647922E+01  0.47787273897E+02  0.20000013006E+02 0.  0.
         12    1    1    2    0    0 -0.31783084839E+02 -0.29125360115E+02 -0.50171647922E+01  0.43400726103E+02  0.00000000000E+00 0. -1.
         11    1    3    3    0    0  0.58916159167E+01  0.36045271178E+01  0.70074420616E+01  0.98391055671E+01  0.51100000000E-03 0. -1.
        -11    1    3    3    0    0  0.11777756121E+02  0.46531679962E+01 -0.14882494108E+01  0.12750780299E+02  0.51100000000E-03 0.  1.
        -12    1    3    3    0    0  0.14113712801E+02  0.20867665001E+02 -0.50202785868E+00  0.25197388031E+02  0.00000000000E+00 0.  1.
</event>
<event>
 7    1  0.2647566E-010  0.4778728E+02  0.7816164E-02  0.1312668E+00
        -11   -1    0    0    0    0  0.00000000000E+00  0.00000000000E+00  0.45593999997E+02  0.45594000000E+02  0.51100000000E-03 0.  1.
         11   -1    0    0    0    0 -0.00000000000E+00 -0.00000000000E+00 -0.45593999997E+02  0.45594000000E+02  0.51100000000E-03 0. -1.
    9900012    2    1    2    0    0 -0.30077309668E+01  0.14731121648E+02  0.40713269566E+02  0.47787277548E+02  0.20000029652E+02 0.  0.
         12    1    1    2    0    0  0.30077309668E+01 -0.14731121648E+02 -0.40713269566E+02  0.43400722452E+02  0.00000000000E+00 0. -1.
         11    1    3    3    0    0  0.14621802896E+01  0.85010131765E+01  0.11402528598E+02  0.14297652077E+02  0.51100000000E-03 0. -1.
        -11    1    3    3    0    0  0.43209317252E+01  0.77150393995E+00  0.32855810989E+01  0.54827650617E+01  0.51100000000E-03 0.  1.
         12    1    3    3    0    0 -0.87908429816E+01  0.54586045317E+01  0.26025159869E+02  0.28006860409E+02  0.00000000000E+00 0. -1.
</event>
<event>
 7    1  0.2647566E-010  0.4778727E+02  0.7816164E-02  0.1312668E+00
        -11   -1    0    0    0    0  0.00000000000E+00  0.00000000000E+00  0.45593999997E+02  0.45594000000E+02  0.51100000000E-03 0.  1.
         11   -1    0    0    0    0 -0.00000000000E+00 -0.00000000000E+00 -0.45593999997E+02  0.45594000000E+02  0.51100000000E-03 0. -1.
    9900012    2    1    2    0    0  0.89032911258E+01 -0.18018954800E+02  0.38466503933E+02  0.47787271322E+02  0.20000001265E+02 0.  0.
         12    1    1    2    0    0 -0.89032911258E+01  0.18018954800E+02 -0.38466503933E+02  0.43400728678E+02  0.00000000000E+00 0. -1.
         11    1    3    3    0    0 -0.77291429782E+00 -0.14569356063E+01 -0.21251080123E+00  0.16628947575E+01  0.51100000000E-03 0. -1.
        -11    1    3    3    0    0  0.13706707056E+02 -0.13710227324E+02  0.25371900449E+02  0.31930823419E+02  0.51100000000E-03 0.  1.
        -12    1    3    3    0    0 -0.40305016324E+01 -0.28517918699E+01  0.13307114286E+02  0.14193553145E+02  0.00000000000E+00 0.  1.
</event>
<event>
 7    1  0.2647566E-010  0.4778727E+02  0.7816164E-02  0.1312668E+00
        -11   -1    0    0    0    0  0.00000000000E+00  0.00000000000E+00  0.45593999997E+02  0.45594000000E+02  0.51100000000E-03 0. -1.
         11   -1    0    0    0    0 -0.00000000000E+00 -0.00000000000E+00 -0.45593999997E+02  0.45594000000E+02  0.51100000000E-03 0.  1.
    9900012    2    1    2    0    0  0.28928126018E+02 -0.31046129213E+02 -0.91063039667E+01  0.47787269753E+02  0.19999994112E+02 0.  0.
         12    1    1    2    0    0 -0.28928126018E+02  0.31046129213E+02  0.91063039667E+01  0.43400730247E+02  0.00000000000E+00 0. -1.
         11    1    3    3    0    0 -0.17318588728E+00 -0.39946343830E+01  0.30588924186E+00  0.40100705349E+01  0.51100000000E-03 0. -1.
        -11    1    3    3    0    0  0.98951919309E+01 -0.19072716991E+02 -0.80142830546E+01  0.22932773271E+02  0.51100000000E-03 0.  1.
         12    1    3    3    0    0  0.19206119974E+02 -0.79787778395E+01 -0.13979101540E+01  0.20844425947E+02  0.00000000000E+00 0. -1.
</event>
<event>
 7    1  0.2647566E-010  0.4778728E+02  0.7816164E-02  0.1312668E+00
        -11   -1    0    0    0    0  0.00000000000E+00  0.00000000000E+00  0.45593999997E+02  0.45594000000E+02  0.51100000000E-03 0. -1.
         11   -1    0    0    0    0 -0.00000000000E+00 -0.00000000000E+00 -0.45593999997E+02  0.45594000000E+02  0.51100000000E-03 0.  1.
    9900012    2    1    2    0    0  0.21198919000E+02 -0.22451844387E+02 -0.30498252715E+02  0.47787275331E+02  0.20000019543E+02 0.  0.
         12    1    1    2    0    0 -0.21198919000E+02  0.22451844387E+02  0.30498252715E+02  0.43400724669E+02  0.00000000000E+00 0. -1.
         11    1    3    3    0    0 -0.15036646514E+01  0.19454322292E+00 -0.18766132506E+01  0.24125778750E+01  0.51100000000E-03 0. -1.
        -11    1    3    3    0    0  0.27789163547E+01  0.15238541441E+01 -0.36635928523E+00  0.31904117204E+01  0.51100000000E-03 0.  1.
        -12    1    3    3    0    0  0.19923667297E+02 -0.24170241754E+02 -0.28255280179E+02  0.42184285735E+02  0.00000000000E+00 0.  1.
</event>
<event>
 7    1  0.2647566E-010  0.4778727E+02  0.7816164E-02  0.1312668E+00
        -11   -1    0    0    0    0  0.00000000000E+00  0.00000000000E+00  0.45593999997E+02  0.45594000000E+02  0.51100000000E-03 0.  1.
         11   -1    0    0    0    0 -0.00000000000E+00 -0.00000000000E+00 -0.45593999997E+02  0.45594000000E+02  0.51100000000E-03 0. -1.
    9900012    2    1    2    0    0 -0.14962083219E+02  0.66037400486E+01  0.40201367991E+02  0.47787270683E+02  0.19999998352E+02 0.  0.
         12    1    1    2    0    0  0.14962083219E+02 -0.66037400486E+01 -0.40201367991E+02  0.43400729317E+02  0.00000000000E+00 0. -1.
         11    1    3    3    0    0 -0.63784864542E+01  0.40776824616E+01  0.12339232488E+02  0.14476506566E+02  0.51100000000E-03 0. -1.
        -11    1    3    3    0    0 -0.79080996809E+01  0.71087269543E+01  0.26387582548E+02  0.28449543976E+02  0.51100000000E-03 0.  1.
         12    1    3    3    0    0 -0.67549708368E+00 -0.45826693673E+01  0.14745529562E+01  0.48612201412E+01  0.00000000000E+00 0. -1.
</event>
<event>
 7    1  0.2647566E-010  0.4778728E+02  0.7816164E-02  0.1312668E+00
        -11   -1    0    0    0    0  0.00000000000E+00  0.00000000000E+00  0.45593999997E+02  0.45594000000E+02  0.51100000000E-03 0. -1.
         11   -1    0    0    0    0 -0.00000000000E+00 -0.00000000000E+00 -0.45593999997E+02  0.45594000000E+02  0.51100000000E-03 0.  1.
    9900012    2    1    2    0    0  0.37531829172E+02  0.21186022095E+02 -0.51124366156E+01  0.47787277180E+02  0.20000027973E+02 0.  0.
         12    1    1    2    0    0 -0.37531829172E+02 -0.21186022095E+02  0.51124366156E+01  0.43400722820E+02  0.00000000000E+00 0. -1.
         11    1    3    3    0    0  0.20037487732E+01  0.20025643352E+01 -0.58166921430E+01  0.64698671401E+01  0.51100000000E-03 0. -1.
        -11    1    3    3    0    0  0.10693836032E+02  0.28365595477E+01 -0.27094965551E+01  0.11390591336E+02  0.51100000000E-03 0.  1.
        -12    1    3    3    0    0  0.24834244366E+02  0.16346898212E+02  0.34137520826E+01  0.29926818703E+02  0.00000000000E+00 0.  1.
</event>
<event>
 7    1  0.2647566E-010  0.4778727E+02  0.7816164E-02  0.1312668E+00
        -11   -1    0    0    0    0  0.00000000000E+00  0.00000000000E+00  0.45593999997E+02  0.45594000000E+02  0.51100000000E-03 0. -1.
         11   -1    0    0    0    0 -0.00000000000E+00 -0.00000000000E+00 -0.45593999997E+02  0.45594000000E+02  0.51100000000E-03 0.  1.
    9900012    2    1    2    0    0  0.46078961922E+01  0.42601024292E+02 -0.68951906928E+01  0.47787266910E+02  0.19999981151E+02 0.  0.
         12    1    1    2    0    0 -0.46078961922E+01 -0.42601024292E+02  0.68951906928E+01  0.43400733090E+02  0.00000000000E+00 0. -1.
         11    1    3    3    0    0 -0.14862228356E+01 -0.11095306814E+01  0.16200990648E+01  0.24626485520E+01  0.51100000000E-03 0.  1.
        -11    1    3    3    0    0  0.18096346087E+01  0.34805754079E+01 -0.17898961762E+01  0.43119498107E+01  0.51100000000E-03 0. -1.
        -12    1    3    3    0    0  0.42844844190E+01  0.40229979565E+02 -0.67253935814E+01  0.41012668548E+02  0.00000000000E+00 0.  1.
</event>
<event>
 7    1  0.2647566E-010  0.4778726E+02  0.7816164E-02  0.1312668E+00
        -11   -1    0    0    0    0  0.00000000000E+00  0.00000000000E+00  0.45593999997E+02  0.45594000000E+02  0.51100000000E-03 0.  1.
         11   -1    0    0    0    0 -0.00000000000E+00 -0.00000000000E+00 -0.45593999997E+02  0.45594000000E+02  0.51100000000E-03 0. -1.
    9900012    2    1    2    0    0 -0.30544647832E+02 -0.27693938208E+02  0.13553405018E+02  0.47787256778E+02  0.19999934952E+02 0.  0.
         12    1    1    2    0    0  0.30544647832E+02  0.27693938208E+02 -0.13553405018E+02  0.43400743222E+02  0.00000000000E+00 0. -1.
         11    1    3    3    0    0 -0.19796745803E+01 -0.17574860017E-01  0.19063451494E+01  0.27483763223E+01  0.51100000000E-03 0.  1.
        -11    1    3    3    0    0 -0.10997442784E+02 -0.79634347993E+01  0.12729490758E+02  0.18611823575E+02  0.51100000000E-03 0. -1.
         12    1    3    3    0    0 -0.17567530468E+02 -0.19712928549E+02 -0.10824308886E+01  0.26427056880E+02  0.00000000000E+00 0. -1.
</event>
<event>
 7    1  0.2647566E-010  0.4778727E+02  0.7816164E-02  0.1312668E+00
        -11   -1    0    0    0    0  0.00000000000E+00  0.00000000000E+00  0.45593999997E+02  0.45594000000E+02  0.51100000000E-03 0.  1.
         11   -1    0    0    0    0 -0.00000000000E+00 -0.00000000000E+00 -0.45593999997E+02  0.45594000000E+02  0.51100000000E-03 0. -1.
    9900012    2    1    2    0    0  0.12241232448E+02 -0.46103784001E+01  0.41382604932E+02  0.47787270147E+02  0.19999995906E+02 0.  0.
         12    1    1    2    0    0 -0.12241232448E+02  0.46103784001E+01 -0.41382604932E+02  0.43400729853E+02  0.00000000000E+00 0. -1.
         11    1    3    3    0    0 -0.32487470708E+01  0.26216093147E+01  0.13258812397E+02  0.13900478387E+02  0.51100000000E-03 0. -1.
        -11    1    3    3    0    0  0.23107822378E+01 -0.26199138450E+01  0.12285349000E+02  0.12772371096E+02  0.51100000000E-03 0.  1.
        -12    1    3    3    0    0  0.13179197281E+02 -0.46120738697E+01  0.15838443535E+02  0.21114420664E+02  0.00000000000E+00 0.  1.
</event>
<event>
 7    1  0.2647566E-010  0.4778727E+02  0.7816164E-02  0.1312668E+00
        -11   -1    0    0    0    0  0.00000000000E+00  0.00000000000E+00  0.45593999997E+02  0.45594000000E+02  0.51100000000E-03 0. -1.
         11   -1    0    0    0    0 -0.00000000000E+00 -0.00000000000E+00 -0.45593999997E+02  0.45594000000E+02  0.51100000000E-03 0.  1.
    9900012    2    1    2    0    0  0.17738182925E+02 -0.37123788191E+02 -0.13813196966E+02  0.47787271970E+02  0.20000004221E+02 0.  0.
         12    1    1    2    0    0 -0.17738182925E+02  0.37123788191E+02  0.13813196966E+02  0.43400728030E+02  0.00000000000E+00 0. -1.
         11    1    3    3    0    0  0.73520686250E+01 -0.14291877781E+02  0.19966045689E+01  0.16195589327E+02  0.51100000000E-03 0. -1.
        -11    1    3    3    0    0  0.97030994336E+01 -0.15074613861E+02 -0.56621035592E+01  0.18800360067E+02  0.51100000000E-03 0.  1.
         12    1    3    3    0    0  0.68301486648E+00 -0.77572965481E+01 -0.10147697975E+02  0.12791322576E+02  0.00000000000E+00 0. -1.
</event>
<event>
 7    1  0.2647566E-010  0.4778727E+02  0.7816164E-02  0.1312668E+00
        -11   -1    0    0    0    0  0.00000000000E+00  0.00000000000E+00  0.45593999997E+02  0.45594000000E+02  0.51100000000E-03 0.  1.
         11   -1    0    0    0    0 -0.00000000000E+00 -0.00000000000E+00 -0.45593999997E+02  0.45594000000E+02  0.51100000000E-03 0. -1.
    9900012    2    1    2    0    0 -0.38233409846E+02 -0.15634520368E+02 -0.13318841646E+02  0.47787269610E+02  0.19999993459E+02 0.  0.
         12    1    1    2    0    0  0.38233409846E+02  0.15634520368E+02  0.13318841646E+02  0.43400730390E+02  0.00000000000E+00 0. -1.
         11    1    3    3    0    0 -0.16758551824E+01 -0.10220148083E+00 -0.16355581195E+01  0.23439254165E+01  0.51100000000E-03 0. -1.
        -11    1    3    3    0    0 -0.36563752904E+02 -0.12223827050E+02 -0.62130034450E+01  0.39050369861E+02  0.51100000000E-03 0.  1.
        -12    1    3    3    0    0  0.61982401096E-02 -0.33084918366E+01 -0.54702800812E+01  0.63929743327E+01  0.00000000000E+00 0.  1.
</event>
<event>
 7    1  0.2647566E-010  0.4778726E+02  0.7816164E-02  0.1312668E+00
        -11   -1    0    0    0    0  0.00000000000E+00  0.00000000000E+00  0.45593999997E+02  0.45594000000E+02  0.51100000000E-03 0.  1.
         11   -1    0    0    0    0 -0.00000000000E+00 -0.00000000000E+00 -0.45593999997E+02  0.45594000000E+02  0.51100000000E-03 0. -1.
    9900012    2    1    2    0    0  0.67765462588E+01 -0.24847501849E+02  0.34932848153E+02  0.47787264898E+02  0.19999971975E+02 0.  0.
         12    1    1    2    0    0 -0.67765462588E+01  0.24847501849E+02 -0.34932848153E+02  0.43400735102E+02  0.00000000000E+00 0. -1.
         11    1    3    3    0    0 -0.27379602151E+00  0.14495429498E+01  0.66678092506E-01  0.14766804847E+01  0.51100000000E-03 0. -1.
        -11    1    3    3    0    0 -0.33277450158E+01 -0.11979098864E+02  0.10953299268E+02  0.16569473788E+02  0.51100000000E-03 0.  1.
        -12    1    3    3    0    0  0.10378087296E+02 -0.14317945936E+02  0.23912870792E+02  0.29741110625E+02  0.00000000000E+00 0.  1.
</event>
<event>
 7    1  0.2647566E-010  0.4778726E+02  0.7816164E-02  0.1312668E+00
        -11   -1    0    0    0    0  0.00000000000E+00  0.00000000000E+00  0.45593999997E+02  0.45594000000E+02  0.51100000000E-03 0. -1.
         11   -1    0    0    0    0 -0.00000000000E+00 -0.00000000000E+00 -0.45593999997E+02  0.45594000000E+02  0.51100000000E-03 0.  1.
    9900012    2    1    2    0    0  0.18495677361E+02  0.35442527753E+02 -0.16892632599E+02  0.47787263938E+02  0.19999967600E+02 0.  0.
         12    1    1    2    0    0 -0.18495677361E+02 -0.35442527753E+02  0.16892632599E+02  0.43400736062E+02  0.00000000000E+00 0. -1.
         11    1    3    3    0    0 -0.67309370254E+00  0.90626171470E+01 -0.52107030264E+00  0.91025051061E+01  0.51100000000E-03 0. -1.
        -11    1    3    3    0    0  0.50315333081E+01  0.15465627684E+02 -0.34103749036E+01  0.16617238770E+02  0.51100000000E-03 0.  1.
         12    1    3    3    0    0  0.14137237755E+02  0.10914282922E+02 -0.12961187393E+02  0.22067520062E+02  0.00000000000E+00 0. -1.
</event>
<event>
 7    1  0.2647566E-010  0.4778727E+02  0.7816164E-02  0.1312668E+00
        -11   -1    0    0    0    0  0.00000000000E+00  0.00000000000E+00  0.45593999997E+02  0.45594000000E+02  0.51100000000E-03 0. -1.
         11   -1    0    0    0    0 -0.00000000000E+00 -0.00000000000E+00 -0.45593999997E+02  0.45594000000E+02  0.51100000000E-03 0.  1.
    9900012    2    1    2    0    0 -0.10860780071E+02  0.31050385456E+02 -0.28311489161E+02  0.47787269600E+02  0.19999993415E+02 0.  0.
         12    1    1    2    0    0  0.10860780071E+02 -0.31050385456E+02  0.28311489161E+02  0.43400730400E+02  0.00000000000E+00 0. -1.
         11    1    3    3    0    0 -0.25926721421E+01  0.21091485186E+02 -0.94355487805E+01  0.23250855408E+02  0.51100000000E-03 0. -1.
        -11    1    3    3    0    0 -0.45859309022E+01  0.26751275282E+01 -0.17926612401E+01  0.56036331174E+01  0.51100000000E-03 0.  1.
        -12    1    3    3    0    0 -0.36821770265E+01  0.72837727423E+01 -0.17083279140E+02  0.18932781074E+02  0.00000000000E+00 0.  1.
</event>
<event>
 7    1  0.2647566E-010  0.4778727E+02  0.7816164E-02  0.1312668E+00
        -11   -1    0    0    0    0  0.00000000000E+00  0.00000000000E+00  0.45593999997E+02  0.45594000000E+02  0.51100000000E-03 0. -1.
         11   -1    0    0    0    0 -0.00000000000E+00 -0.00000000000E+00 -0.45593999997E+02  0.45594000000E+02  0.51100000000E-03 0.  1.
    9900012    2    1    2    0    0  0.30656442046E+02  0.28771717895E+01 -0.30586401942E+02  0.47787267976E+02  0.19999986011E+02 0.  0.
         12    1    1    2    0    0 -0.30656442046E+02 -0.28771717895E+01  0.30586401942E+02  0.43400732024E+02  0.00000000000E+00 0. -1.
         11    1    3    3    0    0  0.62668487615E+01 -0.41901894481E+01 -0.91880232996E+01  0.11884900228E+02  0.51100000000E-03 0. -1.
        -11    1    3    3    0    0  0.53910104174E+01  0.15575010912E+01 -0.13468430762E+02  0.14590662439E+02  0.51100000000E-03 0.  1.
        -12    1    3    3    0    0  0.18998582867E+02  0.55098601465E+01 -0.79299478806E+01  0.21311705309E+02  0.00000000000E+00 0.  1.
</event>
<event>
 7    1  0.2647566E-010  0.4778723E+02  0.7816164E-02  0.1312668E+00
        -11   -1    0    0    0    0  0.00000000000E+00  0.00000000000E+00  0.45593999997E+02  0.45594000000E+02  0.51100000000E-03 0.  1.
         11   -1    0    0    0    0 -0.00000000000E+00 -0.00000000000E+00 -0.45593999997E+02  0.45594000000E+02  0.51100000000E-03 0. -1.
    9900012    2    1    2    0    0 -0.23507023920E+02  0.23427025035E+02  0.27968222144E+02  0.47787226672E+02  0.19999797687E+02 0.  0.
         12    1    1    2    0    0  0.23507023920E+02 -0.23427025035E+02 -0.27968222144E+02  0.43400773328E+02  0.00000000000E+00 0. -1.
         11    1    3    3    0    0 -0.43516530479E+01  0.55180645457E+01 -0.10345821155E+01  0.71032584772E+01  0.51100000000E-03 0. -1.
        -11    1    3    3    0    0 -0.21127633979E+01 -0.15799565129E+01  0.25041726769E+01  0.36374321733E+01  0.51100000000E-03 0.  1.
        -12    1    3    3    0    0 -0.17042607475E+02  0.19488917002E+02  0.26498631582E+02  0.37046536022E+02  0.00000000000E+00 0.  1.
</event>
<event>
 7    1  0.2647566E-010  0.4778727E+02  0.7816164E-02  0.1312668E+00
        -11   -1    0    0    0    0  0.00000000000E+00  0.00000000000E+00  0.45593999997E+02  0.45594000000E+02  0.51100000000E-03 0.  1.
         11   -1    0    0    0    0 -0.00000000000E+00 -0.00000000000E+00 -0.45593999997E+02  0.45594000000E+02  0.51100000000E-03 0. -1.
    9900012    2    1    2    0    0  0.18464867966E+02  0.25377141977E+02  0.29977869522E+02  0.47787270225E+02  0.19999996262E+02 0.  0.
         12    1    1    2    0    0 -0.18464867966E+02 -0.25377141977E+02 -0.29977869522E+02  0.43400729775E+02  0.00000000000E+00 0. -1.
         11    1    3    3    0    0  0.22582125375E+01  0.47661161674E+01  0.15515676976E+02  0.16387544644E+02  0.51100000000E-03 0.  1.
        -11    1    3    3    0    0 -0.73502526753E+00  0.38770867240E+00 -0.59622814963E+00  0.10227748658E+01  0.51100000000E-03 0. -1.
        -12    1    3    3    0    0  0.16941680696E+02  0.20223317138E+02  0.15058420696E+02  0.30376950715E+02  0.00000000000E+00 0.  1.
</event>
<event>
 7    1  0.2647566E-010  0.4778727E+02  0.7816164E-02  0.1312668E+00
        -11   -1    0    0    0    0  0.00000000000E+00  0.00000000000E+00  0.45593999997E+02  0.45594000000E+02  0.51100000000E-03 0.  1.
         11   -1    0    0    0    0 -0.00000000000E+00 -0.00000000000E+00 -0.45593999997E+02  0.45594000000E+02  0.51100000000E-03 0. -1.
    9900012    2    1    2    0    0 -0.12376659914E+02 -0.31082858283E+02  0.27645931741E+02  0.47787270381E+02  0.19999996974E+02 0.  0.
         12    1    1    2    0    0  0.12376659914E+02  0.31082858283E+02 -0.27645931741E+02  0.43400729619E+02  0.00000000000E+00 0. -1.
         11    1    3    3    0    0  0.20223533721E+01 -0.34010004501E+01  0.67754998208E+01  0.78462803484E+01  0.51100000000E-03 0. -1.
        -11    1    3    3    0    0 -0.57196650368E+00 -0.14646715137E+02  0.12123212222E+02  0.19021716138E+02  0.51100000000E-03 0.  1.
         12    1    3    3    0    0 -0.13827046782E+02 -0.13035142696E+02  0.87472196978E+01  0.20919273894E+02  0.00000000000E+00 0. -1.
</event>
<event>
 7    1  0.2647566E-010  0.4778728E+02  0.7816164E-02  0.1312668E+00
        -11   -1    0    0    0    0  0.00000000000E+00  0.00000000000E+00  0.45593999997E+02  0.45594000000E+02  0.51100000000E-03 0. -1.
         11   -1    0    0    0    0 -0.00000000000E+00 -0.00000000000E+00 -0.45593999997E+02  0.45594000000E+02  0.51100000000E-03 0.  1.
    9900012    2    1    2    0    0 -0.37291355009E+02  0.19925051087E+02 -0.97964167173E+01  0.47787278811E+02  0.20000035410E+02 0.  0.
         12    1    1    2    0    0  0.37291355009E+02 -0.19925051087E+02  0.97964167173E+01  0.43400721189E+02  0.00000000000E+00 0. -1.
         11    1    3    3    0    0 -0.10239908755E+02  0.11412296274E+02  0.26751292778E+00  0.15335181805E+02  0.51100000000E-03 0. -1.
        -11    1    3    3    0    0 -0.17660773829E+02  0.61500696909E+01 -0.30387912975E+00  0.18703439048E+02  0.51100000000E-03 0.  1.
        -12    1    3    3    0    0 -0.93906724248E+01  0.23626851220E+01 -0.97600505153E+01  0.13748657958E+02  0.00000000000E+00 0.  1.
</event>
<event>
 7    1  0.2647566E-010  0.4778724E+02  0.7816164E-02  0.1312668E+00
        -11   -1    0    0    0    0  0.00000000000E+00  0.00000000000E+00  0.45593999997E+02  0.45594000000E+02  0.51100000000E-03 0.  1.
         11   -1    0    0    0    0 -0.00000000000E+00 -0.00000000000E+00 -0.45593999997E+02  0.45594000000E+02  0.51100000000E-03 0. -1.
    9900012    2    1    2    0    0 -0.32270884473E+02  0.67662999130E+01  0.28221141000E+02  0.47787244263E+02  0.19999877893E+02 0.  0.
         12    1    1    2    0    0  0.32270884473E+02 -0.67662999130E+01 -0.28221141000E+02  0.43400755737E+02  0.00000000000E+00 0. -1.
         11    1    3    3    0    0 -0.94237113052E+01  0.41835136818E+00  0.10147692902E+01  0.94874184900E+01  0.51100000000E-03 0. -1.
        -11    1    3    3    0    0 -0.16822252825E+02  0.24156556364E+01  0.10167047991E+02  0.19803849306E+02  0.51100000000E-03 0.  1.
        -12    1    3    3    0    0 -0.60249203436E+01  0.39322929085E+01  0.17039323719E+02  0.18495976467E+02  0.00000000000E+00 0.  1.
</event>
<event>
 7    1  0.2647566E-010  0.4778727E+02  0.7816164E-02  0.1312668E+00
        -11   -1    0    0    0    0  0.00000000000E+00  0.00000000000E+00  0.45593999997E+02  0.45594000000E+02  0.51100000000E-03 0. -1.
         11   -1    0    0    0    0 -0.00000000000E+00 -0.00000000000E+00 -0.45593999997E+02  0.45594000000E+02  0.51100000000E-03 0.  1.
    9900012    2    1    2    0    0 -0.70289021333E+01  0.38736512271E+02 -0.18267463812E+02  0.47787273252E+02  0.20000010066E+02 0.  0.
         12    1    1    2    0    0  0.70289021333E+01 -0.38736512271E+02  0.18267463812E+02  0.43400726748E+02  0.00000000000E+00 0. -1.
         11    1    3    3    0    0 -0.14686462312E+01  0.80852743378E+01 -0.79604071071E+01  0.11441008017E+02  0.51100000000E-03 0. -1.
        -11    1    3    3    0    0 -0.10138456939E+01 -0.96894101994E+00 -0.33787572921E+01  0.36582415026E+01  0.51100000000E-03 0.  1.
         12    1    3    3    0    0 -0.45464102082E+01  0.31620178953E+02 -0.69282994130E+01  0.32688023733E+02  0.00000000000E+00 0. -1.
</event>
<event>
 7    1  0.2647566E-010  0.4778728E+02  0.7816164E-02  0.1312668E+00
        -11   -1    0    0    0    0  0.00000000000E+00  0.00000000000E+00  0.45593999997E+02  0.45594000000E+02  0.51100000000E-03 0. -1.
         11   -1    0    0    0    0 -0.00000000000E+00 -0.00000000000E+00 -0.45593999997E+02  0.45594000000E+02  0.51100000000E-03 0.  1.
    9900012    2    1    2    0    0  0.75200806675E+00 -0.42848138585E+02 -0.68625255809E+01  0.47787277037E+02  0.20000027325E+02 0.  0.
         12    1    1    2    0    0 -0.75200806675E+00  0.42848138585E+02  0.68625255809E+01  0.43400722963E+02  0.00000000000E+00 0. -1.
         11    1    3    3    0    0 -0.28935503741E+01 -0.64098508243E+01 -0.29068837384E+01  0.76097828278E+01  0.51100000000E-03 0. -1.
        -11    1    3    3    0    0  0.77811863151E+01 -0.89927569517E+01 -0.35819161120E+01  0.12419607939E+02  0.51100000000E-03 0.  1.
        -12    1    3    3    0    0 -0.41356278743E+01 -0.27445530809E+02 -0.37372573061E+00  0.27757886271E+02  0.00000000000E+00 0.  1.
</event>
<event>
 7    1  0.2647566E-010  0.4778727E+02  0.7816164E-02  0.1312668E+00
        -11   -1    0    0    0    0  0.00000000000E+00  0.00000000000E+00  0.45593999997E+02  0.45594000000E+02  0.51100000000E-03 0. -1.
         11   -1    0    0    0    0 -0.00000000000E+00 -0.00000000000E+00 -0.45593999997E+02  0.45594000000E+02  0.51100000000E-03 0.  1.
    9900012    2    1    2    0    0 -0.17485614712E+02  0.20954606748E+02 -0.33745836259E+02  0.47787265782E+02  0.19999976005E+02 0.  0.
         12    1    1    2    0    0  0.17485614712E+02 -0.20954606748E+02  0.33745836259E+02  0.43400734218E+02  0.00000000000E+00 0. -1.
         11    1    3    3    0    0 -0.74587407162E+00 -0.11278319333E+01 -0.12991177748E+01  0.18751107312E+01  0.51100000000E-03 0. -1.
        -11    1    3    3    0    0  0.15007510758E+00  0.13566578869E+02 -0.13637593934E+02  0.19236906022E+02  0.51100000000E-03 0.  1.
        -12    1    3    3    0    0 -0.16889815748E+02  0.85158598128E+01 -0.18809124551E+02  0.26675249029E+02  0.00000000000E+00 0.  1.
</event>
<event>
 7    1  0.2647566E-010  0.4778727E+02  0.7816164E-02  0.1312668E+00
        -11   -1    0    0    0    0  0.00000000000E+00  0.00000000000E+00  0.45593999997E+02  0.45594000000E+02  0.51100000000E-03 0.  1.
         11   -1    0    0    0    0 -0.00000000000E+00 -0.00000000000E+00 -0.45593999997E+02  0.45594000000E+02  0.51100000000E-03 0. -1.
    9900012    2    1    2    0    0  0.41618293070E+01  0.41415989675E+02  0.12288949055E+02  0.47787270826E+02  0.19999999005E+02 0.  0.
         12    1    1    2    0    0 -0.41618293070E+01 -0.41415989675E+02 -0.12288949055E+02  0.43400729174E+02  0.00000000000E+00 0. -1.
         11    1    3    3    0    0 -0.27378534989E+01  0.11298829386E+02  0.11664686129E+02  0.16468888548E+02  0.51100000000E-03 0. -1.
        -11    1    3    3    0    0  0.10300986342E+01  0.13562242009E+02  0.17720652007E+01  0.13716257757E+02  0.51100000000E-03 0.  1.
         12    1    3    3    0    0  0.58695841717E+01  0.16554918280E+02 -0.11478022744E+01  0.17602124521E+02  0.00000000000E+00 0. -1.
</event>
<event>
 7    1  0.2647566E-010  0.4778728E+02  0.7816164E-02  0.1312668E+00
        -11   -1    0    0    0    0  0.00000000000E+00  0.00000000000E+00  0.45593999997E+02  0.45594000000E+02  0.51100000000E-03 0.  1.
         11   -1    0    0    0    0 -0.00000000000E+00 -0.00000000000E+00 -0.45593999997E+02  0.45594000000E+02  0.51100000000E-03 0. -1.
    9900012    2    1    2    0    0  0.38989942284E+02 -0.21201981742E+01  0.18944963661E+02  0.47787280101E+02  0.20000041294E+02 0.  0.
         12    1    1    2    0    0 -0.38989942284E+02  0.21201981742E+01 -0.18944963661E+02  0.43400719899E+02  0.00000000000E+00 0. -1.
         11    1    3    3    0    0  0.31608781369E+01 -0.19138173104E+01 -0.27661420658E+01  0.46157761518E+01  0.51100000000E-03 0. -1.
        -11    1    3    3    0    0  0.55187381840E+01 -0.37468336986E+01  0.25676723544E+01  0.71475992816E+01  0.51100000000E-03 0.  1.
        -12    1    3    3    0    0  0.30310325963E+02  0.35404528348E+01  0.19143433372E+02  0.36023904668E+02  0.00000000000E+00 0.  1.
</event>
<event>
 7    1  0.2647566E-010  0.4778727E+02  0.7816164E-02  0.1312668E+00
        -11   -1    0    0    0    0  0.00000000000E+00  0.00000000000E+00  0.45593999997E+02  0.45594000000E+02  0.51100000000E-03 0.  1.
         11   -1    0    0    0    0 -0.00000000000E+00 -0.00000000000E+00 -0.45593999997E+02  0.45594000000E+02  0.51100000000E-03 0. -1.
    9900012    2    1    2    0    0  0.31861089407E+01  0.25209439068E+01  0.43210148048E+02  0.47787270252E+02  0.19999996386E+02 0.  0.
         12    1    1    2    0    0 -0.31861089407E+01 -0.25209439068E+01 -0.43210148048E+02  0.43400729748E+02  0.00000000000E+00 0. -1.
         11    1    3    3    0    0 -0.41438897722E+00 -0.36122886413E+01  0.18912987406E+01  0.40984580808E+01  0.51100000000E-03 0. -1.
        -11    1    3    3    0    0 -0.28920986735E+01  0.70098044457E+01  0.20164159172E+02  0.21542862124E+02  0.51100000000E-03 0.  1.
         12    1    3    3    0    0  0.64925965915E+01 -0.87657189760E+00  0.21154690135E+02  0.22145950047E+02  0.00000000000E+00 0. -1.
</event>
<event>
 7    1  0.2647566E-010  0.4778727E+02  0.7816164E-02  0.1312668E+00
        -11   -1    0    0    0    0  0.00000000000E+00  0.00000000000E+00  0.45593999997E+02  0.45594000000E+02  0.51100000000E-03 0.  1.
         11   -1    0    0    0    0 -0.00000000000E+00 -0.00000000000E+00 -0.45593999997E+02  0.45594000000E+02  0.51100000000E-03 0. -1.
    9900012    2    1    2    0    0 -0.31815041700E+01 -0.14128432985E+02  0.40913182828E+02  0.47787272858E+02  0.20000008267E+02 0.  0.
         12    1    1    2    0    0  0.31815041700E+01  0.14128432985E+02 -0.40913182828E+02  0.43400727142E+02  0.00000000000E+00 0. -1.
         11    1    3    3    0    0 -0.15849341686E+01 -0.87551406557E+01  0.14731926509E+02  0.17210292360E+02  0.51100000000E-03 0.  1.
        -11    1    3    3    0    0 -0.23630937408E+01 -0.36240184629E+01  0.24128005771E-03  0.43263982904E+01  0.51100000000E-03 0. -1.
         12    1    3    3    0    0  0.76652373943E+00 -0.17492738662E+01  0.26181015039E+02  0.26250582207E+02  0.00000000000E+00 0. -1.
</event>
<event>
 7    1  0.2647566E-010  0.4778727E+02  0.7816164E-02  0.1312668E+00
        -11   -1    0    0    0    0  0.00000000000E+00  0.00000000000E+00  0.45593999997E+02  0.45594000000E+02  0.51100000000E-03 0. -1.
         11   -1    0    0    0    0 -0.00000000000E+00 -0.00000000000E+00 -0.45593999997E+02  0.45594000000E+02  0.51100000000E-03 0.  1.
    9900012    2    1    2    0    0 -0.52783961294E+01 -0.39882545104E+02 -0.16283252765E+02  0.47787272008E+02  0.20000004391E+02 0.  0.
         12    1    1    2    0    0  0.52783961294E+01  0.39882545104E+02  0.16283252765E+02  0.43400727992E+02  0.00000000000E+00 0. -1.
         11    1    3    3    0    0 -0.12058184026E+01 -0.18441841379E+01 -0.52403478791E+01  0.56847391593E+01  0.51100000000E-03 0. -1.
        -11    1    3    3    0    0 -0.71057540560E+01 -0.30588926697E+02 -0.12727812357E+02  0.33884677730E+02  0.51100000000E-03 0.  1.
         12    1    3    3    0    0  0.30331763291E+01 -0.74494342687E+01  0.16849074705E+01  0.82178551187E+01  0.00000000000E+00 0. -1.
</event>
<event>
 7    1  0.2647566E-010  0.4778727E+02  0.7816164E-02  0.1312668E+00
        -11   -1    0    0    0    0  0.00000000000E+00  0.00000000000E+00  0.45593999997E+02  0.45594000000E+02  0.51100000000E-03 0.  1.
         11   -1    0    0    0    0 -0.00000000000E+00 -0.00000000000E+00 -0.45593999997E+02  0.45594000000E+02  0.51100000000E-03 0. -1.
    9900012    2    1    2    0    0  0.39369210196E+02 -0.11806826988E+01  0.18228950071E+02  0.47787270239E+02  0.19999996326E+02 0.  0.
         12    1    1    2    0    0 -0.39369210196E+02  0.11806826988E+01 -0.18228950071E+02  0.43400729761E+02  0.00000000000E+00 0. -1.
         11    1    3    3    0    0  0.52516725220E+01 -0.48867819972E+01  0.70019196200E+01  0.10024349415E+02  0.51100000000E-03 0.  1.
        -11    1    3    3    0    0  0.15545422870E+02 -0.31093361774E+01  0.21560396566E+01  0.15999270325E+02  0.51100000000E-03 0. -1.
         12    1    3    3    0    0  0.18572114804E+02  0.68154354758E+01  0.90709907946E+01  0.21763650499E+02  0.00000000000E+00 0. -1.
</event>
<event>
 7    1  0.2647566E-010  0.4778727E+02  0.7816164E-02  0.1312668E+00
        -11   -1    0    0    0    0  0.00000000000E+00  0.00000000000E+00  0.45593999997E+02  0.45594000000E+02  0.51100000000E-03 0. -1.
         11   -1    0    0    0    0 -0.00000000000E+00 -0.00000000000E+00 -0.45593999997E+02  0.45594000000E+02  0.51100000000E-03 0.  1.
    9900012    2    1    2    0    0 -0.28380435185E+02 -0.24992470717E+02 -0.21296730262E+02  0.47787269434E+02  0.19999992656E+02 0.  0.
         12    1    1    2    0    0  0.28380435185E+02  0.24992470717E+02  0.21296730262E+02  0.43400730566E+02  0.00000000000E+00 0. -1.
         11    1    3    3    0    0 -0.85524181898E+01 -0.19803453925E+01 -0.32996063417E+01  0.93783275182E+01  0.51100000000E-03 0. -1.
        -11    1    3    3    0    0 -0.29431768997E+01 -0.25422084109E+01  0.27185779500E+01  0.47450795777E+01  0.51100000000E-03 0.  1.
        -12    1    3    3    0    0 -0.16884840095E+02 -0.20469916914E+02 -0.20715701870E+02  0.33663862338E+02  0.00000000000E+00 0.  1.
</event>
<event>
 7    1  0.2647566E-010  0.4778727E+02  0.7816164E-02  0.1312668E+00
        -11   -1    0    0    0    0  0.00000000000E+00  0.00000000000E+00  0.45593999997E+02  0.45594000000E+02  0.51100000000E-03 0. -1.
         11   -1    0    0    0    0 -0.00000000000E+00 -0.00000000000E+00 -0.45593999997E+02  0.45594000000E+02  0.51100000000E-03 0.  1.
    9900012    2    1    2    0    0  0.71472821329E+01  0.40507323069E+02 -0.13845447910E+02  0.47787270836E+02  0.19999999051E+02 0.  0.
         12    1    1    2    0    0 -0.71472821329E+01 -0.40507323069E+02  0.13845447910E+02  0.43400729164E+02  0.00000000000E+00 0. -1.
         11    1    3    3    0    0  0.13631946228E+01  0.80488907989E+01 -0.72259838724E+01  0.10902191791E+02  0.51100000000E-03 0. -1.
        -11    1    3    3    0    0  0.10483342471E+02  0.18038943309E+02 -0.59871961439E+01  0.21706000622E+02  0.51100000000E-03 0.  1.
         12    1    3    3    0    0 -0.46992549606E+01  0.14419488961E+02 -0.63226789358E+00  0.15179078423E+02  0.00000000000E+00 0. -1.
</event>
<event>
 7    1  0.2647566E-010  0.4778728E+02  0.7816164E-02  0.1312668E+00
        -11   -1    0    0    0    0  0.00000000000E+00  0.00000000000E+00  0.45593999997E+02  0.45594000000E+02  0.51100000000E-03 0. -1.
         11   -1    0    0    0    0 -0.00000000000E+00 -0.00000000000E+00 -0.45593999997E+02  0.45594000000E+02  0.51100000000E-03 0.  1.
    9900012    2    1    2    0    0  0.13569488945E+02  0.30807994461E+02 -0.27392681596E+02  0.47787279292E+02  0.20000037604E+02 0.  0.
         12    1    1    2    0    0 -0.13569488945E+02 -0.30807994461E+02  0.27392681596E+02  0.43400720708E+02  0.00000000000E+00 0. -1.
         11    1    3    3    0    0  0.66238017563E+01  0.19542928454E+00 -0.17780702573E+01  0.68610842009E+01  0.51100000000E-03 0. -1.
        -11    1    3    3    0    0  0.51122960282E+01  0.10236858074E+02 -0.85163395042E+01  0.14263830927E+02  0.51100000000E-03 0.  1.
         12    1    3    3    0    0  0.18333911609E+01  0.20375707103E+02 -0.17098271834E+02  0.26662364164E+02  0.00000000000E+00 0. -1.
</event>
<event>
 7    1  0.2647566E-010  0.4778727E+02  0.7816164E-02  0.1312668E+00
        -11   -1    0    0    0    0  0.00000000000E+00  0.00000000000E+00  0.45593999997E+02  0.45594000000E+02  0.51100000000E-03 0.  1.
         11   -1    0    0    0    0 -0.00000000000E+00 -0.00000000000E+00 -0.45593999997E+02  0.45594000000E+02  0.51100000000E-03 0. -1.
    9900012    2    1    2    0    0  0.36888951016E+02 -0.11401339020E+02  0.19820139773E+02  0.47787272136E+02  0.20000004977E+02 0.  0.
         12    1    1    2    0    0 -0.36888951016E+02  0.11401339020E+02 -0.19820139773E+02  0.43400727864E+02  0.00000000000E+00 0. -1.
         11    1    3    3    0    0  0.14022525864E+02  0.48309179615E+01  0.82554932875E+01  0.16974161825E+02  0.51100000000E-03 0. -1.
        -11    1    3    3    0    0  0.61974382826E+01 -0.35437732666E+01  0.54760698486E+01  0.89974391623E+01  0.51100000000E-03 0.  1.
         12    1    3    3    0    0  0.16668986869E+02 -0.12688483715E+02  0.60885766365E+01  0.21815671149E+02  0.00000000000E+00 0. -1.
</event>
<event>
 7    1  0.2647566E-010  0.4778728E+02  0.7816164E-02  0.1312668E+00
        -11   -1    0    0    0    0  0.00000000000E+00  0.00000000000E+00  0.45593999997E+02  0.45594000000E+02  0.51100000000E-03 0. -1.
         11   -1    0    0    0    0 -0.00000000000E+00 -0.00000000000E+00 -0.45593999997E+02  0.45594000000E+02  0.51100000000E-03 0.  1.
    9900012    2    1    2    0    0 -0.33637448126E+01 -0.42992567612E+02  0.48935907813E+01  0.47787275585E+02  0.20000020701E+02 0.  0.
         12    1    1    2    0    0  0.33637448126E+01  0.42992567612E+02 -0.48935907813E+01  0.43400724415E+02  0.00000000000E+00 0. -1.
         11    1    3    3    0    0  0.71985191587E+00 -0.38720743371E+02  0.98506086598E-01  0.38727559408E+02  0.51100000000E-03 0.  1.
        -11    1    3    3    0    0 -0.88964126063E+00 -0.10930858376E+01 -0.99321712358E+00  0.17241747988E+01  0.51100000000E-03 0. -1.
        -12    1    3    3    0    0 -0.31939554678E+01 -0.31787384030E+01  0.57883018183E+01  0.73355413777E+01  0.00000000000E+00 0.  1.
</event>
<event>
 7    1  0.2647566E-010  0.4778728E+02  0.7816164E-02  0.1312668E+00
        -11   -1    0    0    0    0  0.00000000000E+00  0.00000000000E+00  0.45593999997E+02  0.45594000000E+02  0.51100000000E-03 0.  1.
         11   -1    0    0    0    0 -0.00000000000E+00 -0.00000000000E+00 -0.45593999997E+02  0.45594000000E+02  0.51100000000E-03 0. -1.
    9900012    2    1    2    0    0  0.39247467110E+01  0.41084168928E+02  0.13427938852E+02  0.47787284394E+02  0.20000060867E+02 0.  0.
         12    1    1    2    0    0 -0.39247467110E+01 -0.41084168928E+02 -0.13427938852E+02  0.43400715606E+02  0.00000000000E+00 0. -1.
         11    1    3    3    0    0  0.37094217003E+01  0.49260355847E+01  0.13874014238E+01  0.63206422857E+01  0.51100000000E-03 0. -1.
        -11    1    3    3    0    0  0.80757168140E+01  0.16249960584E+02  0.38546028853E+01  0.18550913312E+02  0.51100000000E-03 0.  1.
        -12    1    3    3    0    0 -0.78603918034E+01  0.19908172760E+02  0.81859345434E+01  0.22915728797E+02  0.00000000000E+00 0.  1.
</event>
<event>
 7    1  0.2647566E-010  0.4778727E+02  0.7816164E-02  0.1312668E+00
        -11   -1    0    0    0    0  0.00000000000E+00  0.00000000000E+00  0.45593999997E+02  0.45594000000E+02  0.51100000000E-03 0.  1.
         11   -1    0    0    0    0 -0.00000000000E+00 -0.00000000000E+00 -0.45593999997E+02  0.45594000000E+02  0.51100000000E-03 0. -1.
    9900012    2    1    2    0    0 -0.43754768521E+01  0.23046052580E+02  0.36515175406E+02  0.47787269913E+02  0.19999994840E+02 0.  0.
         12    1    1    2    0    0  0.43754768521E+01 -0.23046052580E+02 -0.36515175406E+02  0.43400730087E+02  0.00000000000E+00 0. -1.
         11    1    3    3    0    0 -0.32254806047E+01  0.35046236016E+01  0.13518786934E+02  0.14333307788E+02  0.51100000000E-03 0. -1.
        -11    1    3    3    0    0  0.47373865048E+01  0.15645251175E+01  0.74634206533E+01  0.89773725470E+01  0.51100000000E-03 0.  1.
         12    1    3    3    0    0 -0.58873827522E+01  0.17976903861E+02  0.15532967818E+02  0.24476589578E+02  0.00000000000E+00 0. -1.
</event>
<event>
 7    1  0.2647566E-010  0.4778727E+02  0.7816164E-02  0.1312668E+00
        -11   -1    0    0    0    0  0.00000000000E+00  0.00000000000E+00  0.45593999997E+02  0.45594000000E+02  0.51100000000E-03 0.  1.
         11   -1    0    0    0    0 -0.00000000000E+00 -0.00000000000E+00 -0.45593999997E+02  0.45594000000E+02  0.51100000000E-03 0. -1.
    9900012    2    1    2    0    0  0.82913921814E+01 -0.17400289214E+02  0.38885808861E+02  0.47787269824E+02  0.19999994436E+02 0.  0.
         12    1    1    2    0    0 -0.82913921814E+01  0.17400289214E+02 -0.38885808861E+02  0.43400730176E+02  0.00000000000E+00 0. -1.
         11    1    3    3    0    0  0.42691704521E+01 -0.46735762273E+01  0.12976536196E+02  0.14438096239E+02  0.51100000000E-03 0. -1.
        -11    1    3    3    0    0  0.53269486951E+01 -0.15190274458E+02  0.25977488488E+02  0.30560607470E+02  0.51100000000E-03 0.  1.
         12    1    3    3    0    0 -0.13047269657E+01  0.24635614713E+01 -0.68215823575E-01  0.27885661148E+01  0.00000000000E+00 0. -1.
</event>
<event>
 7    1  0.2647566E-010  0.4778730E+02  0.7816164E-02  0.1312668E+00
        -11   -1    0    0    0    0  0.00000000000E+00  0.00000000000E+00  0.45593999997E+02  0.45594000000E+02  0.51100000000E-03 0.  1.
         11   -1    0    0    0    0 -0.00000000000E+00 -0.00000000000E+00 -0.45593999997E+02  0.45594000000E+02  0.51100000000E-03 0. -1.
    9900012    2    1    2    0    0 -0.56075196821E+01 -0.13661122109E+02  0.40811157343E+02  0.47787296112E+02  0.20000114294E+02 0.  0.
         12    1    1    2    0    0  0.56075196821E+01  0.13661122109E+02 -0.40811157343E+02  0.43400703888E+02  0.00000000000E+00 0. -1.
         11    1    3    3    0    0 -0.44373055032E+01 -0.61263532656E+01  0.39359688684E+01  0.85272349362E+01  0.51100000000E-03 0. -1.
        -11    1    3    3    0    0  0.10597076045E+01 -0.86004101165E+01  0.15628295911E+02  0.17869909561E+02  0.51100000000E-03 0.  1.
        -12    1    3    3    0    0 -0.22299217835E+01  0.10656412733E+01  0.21246892564E+02  0.21390151615E+02  0.00000000000E+00 0.  1.
</event>
<event>
 7    1  0.2647566E-010  0.4778727E+02  0.7816164E-02  0.1312668E+00
        -11   -1    0    0    0    0  0.00000000000E+00  0.00000000000E+00  0.45593999997E+02  0.45594000000E+02  0.51100000000E-03 0.  1.
         11   -1    0    0    0    0 -0.00000000000E+00 -0.00000000000E+00 -0.45593999997E+02  0.45594000000E+02  0.51100000000E-03 0. -1.
    9900012    2    1    2    0    0 -0.25865744435E+02  0.10406156409E+02  0.33261065231E+02  0.47787270897E+02  0.19999999328E+02 0.  0.
         12    1    1    2    0    0  0.25865744435E+02 -0.10406156409E+02 -0.33261065231E+02  0.43400729103E+02  0.00000000000E+00 0. -1.
         11    1    3    3    0    0 -0.15844279533E+02  0.85632452875E+01  0.10009635220E+02  0.20604930509E+02  0.51100000000E-03 0.  1.
        -11    1    3    3    0    0 -0.21301426704E+01  0.51114884530E+01  0.93120950001E+01  0.10834202119E+02  0.51100000000E-03 0. -1.
         12    1    3    3    0    0 -0.78913222318E+01 -0.32685773311E+01  0.13939335011E+02  0.16348138269E+02  0.00000000000E+00 0. -1.
</event>
<event>
 7    1  0.2647566E-010  0.4778727E+02  0.7816164E-02  0.1312668E+00
        -11   -1    0    0    0    0  0.00000000000E+00  0.00000000000E+00  0.45593999997E+02  0.45594000000E+02  0.51100000000E-03 0.  1.
         11   -1    0    0    0    0 -0.00000000000E+00 -0.00000000000E+00 -0.45593999997E+02  0.45594000000E+02  0.51100000000E-03 0. -1.
    9900012    2    1    2    0    0  0.39494590484E+02 -0.86103799086E+01  0.15800710916E+02  0.47787265155E+02  0.19999973146E+02 0.  0.
         12    1    1    2    0    0 -0.39494590484E+02  0.86103799086E+01 -0.15800710916E+02  0.43400734845E+02  0.00000000000E+00 0. -1.
         11    1    3    3    0    0 -0.68960416985E+00 -0.31752415450E+01  0.17538039717E+01  0.36923625787E+01  0.51100000000E-03 0. -1.
        -11    1    3    3    0    0  0.12591907461E+02 -0.63937165790E+01  0.35835983562E+01  0.14569760555E+02  0.51100000000E-03 0.  1.
        -12    1    3    3    0    0  0.27592287193E+02  0.95857821543E+00  0.10463308588E+02  0.29525142021E+02  0.00000000000E+00 0.  1.
</event>
<event>
 7    1  0.2647566E-010  0.4778727E+02  0.7816164E-02  0.1312668E+00
        -11   -1    0    0    0    0  0.00000000000E+00  0.00000000000E+00  0.45593999997E+02  0.45594000000E+02  0.51100000000E-03 0. -1.
         11   -1    0    0    0    0 -0.00000000000E+00 -0.00000000000E+00 -0.45593999997E+02  0.45594000000E+02  0.51100000000E-03 0.  1.
    9900012    2    1    2    0    0  0.58227274890E+01  0.42973221338E+02 -0.17381305215E+01  0.47787274139E+02  0.20000014109E+02 0.  0.
         12    1    1    2    0    0 -0.58227274890E+01 -0.42973221338E+02  0.17381305215E+01  0.43400725861E+02  0.00000000000E+00 0. -1.
         11    1    3    3    0    0 -0.16961866030E+01  0.16049543026E+02 -0.49659915830E+01  0.16885673010E+02  0.51100000000E-03 0.  1.
        -11    1    3    3    0    0  0.29161203084E+01 -0.85471184930E-01 -0.11870753805E+01  0.31496366769E+01  0.51100000000E-03 0. -1.
        -12    1    3    3    0    0  0.46027937836E+01  0.27009149497E+02  0.44149364420E+01  0.27751964452E+02  0.00000000000E+00 0.  1.
</event>
<event>
 7    1  0.2647566E-010  0.4778726E+02  0.7816164E-02  0.1312668E+00
        -11   -1    0    0    0    0  0.00000000000E+00  0.00000000000E+00  0.45593999997E+02  0.45594000000E+02  0.51100000000E-03 0.  1.
         11   -1    0    0    0    0 -0.00000000000E+00 -0.00000000000E+00 -0.45593999997E+02  0.45594000000E+02  0.51100000000E-03 0. -1.
    9900012    2    1    2    0    0 -0.38338324531E+02 -0.25926757928E+01  0.20176096913E+02  0.47787262884E+02  0.19999962793E+02 0.  0.
         12    1    1    2    0    0  0.38338324531E+02  0.25926757928E+01 -0.20176096913E+02  0.43400737116E+02  0.00000000000E+00 0. -1.
         11    1    3    3    0    0 -0.25206210128E+01 -0.11011904540E+01  0.11717853889E+01  0.29898548401E+01  0.51100000000E-03 0. -1.
        -11    1    3    3    0    0 -0.22943349750E+01  0.14313923854E+01  0.94317856338E+01  0.98118009377E+01  0.51100000000E-03 0.  1.
         12    1    3    3    0    0 -0.33523368543E+02 -0.29228777242E+01  0.95725258898E+01  0.34985607106E+02  0.00000000000E+00 0. -1.
</event>
<event>
 7    1  0.2647566E-010  0.4778727E+02  0.7816164E-02  0.1312668E+00
        -11   -1    0    0    0    0  0.00000000000E+00  0.00000000000E+00  0.45593999997E+02  0.45594000000E+02  0.51100000000E-03 0.  1.
         11   -1    0    0    0    0 -0.00000000000E+00 -0.00000000000E+00 -0.45593999997E+02  0.45594000000E+02  0.51100000000E-03 0. -1.
    9900012    2    1    2    0    0 -0.30027936685E+01 -0.15840179939E+02  0.40295101056E+02  0.47787271441E+02  0.20000001810E+02 0.  0.
         12    1    1    2    0    0  0.30027936685E+01  0.15840179939E+02 -0.40295101056E+02  0.43400728559E+02  0.00000000000E+00 0. -1.
         11    1    3    3    0    0 -0.95621244648E+00 -0.11189235044E+02  0.95926136537E+01  0.14769277575E+02  0.51100000000E-03 0. -1.
        -11    1    3    3    0    0 -0.25197174380E+01 -0.79826360191E+01  0.17584620502E+02  0.19475377589E+02  0.51100000000E-03 0.  1.
         12    1    3    3    0    0  0.47313621592E+00  0.33316911239E+01  0.13117866900E+02  0.13542616277E+02  0.00000000000E+00 0. -1.
</event>
<event>
 7    1  0.2647566E-010  0.4778727E+02  0.7816164E-02  0.1312668E+00
        -11   -1    0    0    0    0  0.00000000000E+00  0.00000000000E+00  0.45593999997E+02  0.45594000000E+02  0.51100000000E-03 0.  1.
         11   -1    0    0    0    0 -0.00000000000E+00 -0.00000000000E+00 -0.45593999997E+02  0.45594000000E+02  0.51100000000E-03 0. -1.
    9900012    2    1    2    0    0 -0.30408732222E+02  0.23360672365E+02  0.20327601087E+02  0.47787269884E+02  0.19999994707E+02 0.  0.
         12    1    1    2    0    0  0.30408732222E+02 -0.23360672365E+02 -0.20327601087E+02  0.43400730116E+02  0.00000000000E+00 0. -1.
         11    1    3    3    0    0 -0.31195980579E+01  0.19572027057E+01  0.51636188134E+01  0.63423571317E+01  0.51100000000E-03 0. -1.
        -11    1    3    3    0    0 -0.10176583162E+02  0.18340491332E+02  0.10444025000E+02  0.23431050459E+02  0.51100000000E-03 0.  1.
         12    1    3    3    0    0 -0.17112551003E+02  0.30629783275E+01  0.47199572729E+01  0.18013862293E+02  0.00000000000E+00 0. -1.
</event>
<event>
 7    1  0.2647566E-010  0.4778727E+02  0.7816164E-02  0.1312668E+00
        -11   -1    0    0    0    0  0.00000000000E+00  0.00000000000E+00  0.45593999997E+02  0.45594000000E+02  0.51100000000E-03 0.  1.
         11   -1    0    0    0    0 -0.00000000000E+00 -0.00000000000E+00 -0.45593999997E+02  0.45594000000E+02  0.51100000000E-03 0. -1.
    9900012    2    1    2    0    0  0.35496641532E+02  0.24852814325E+02  0.24392264169E+01  0.47787265382E+02  0.19999974181E+02 0.  0.
         12    1    1    2    0    0 -0.35496641532E+02 -0.24852814325E+02 -0.24392264169E+01  0.43400734618E+02  0.00000000000E+00 0. -1.
         11    1    3    3    0    0  0.39352869937E+01 -0.11576567283E+01 -0.17803887554E+00  0.41058922204E+01  0.51100000000E-03 0. -1.
        -11    1    3    3    0    0  0.13478481191E+02  0.21645360361E+01  0.15040245855E+01  0.13733781769E+02  0.51100000000E-03 0.  1.
        -12    1    3    3    0    0  0.18082873347E+02  0.23845935017E+02  0.11132407069E+01  0.29947591392E+02  0.00000000000E+00 0.  1.
</event>
<event>
 7    1  0.2647566E-010  0.4778727E+02  0.7816164E-02  0.1312668E+00
        -11   -1    0    0    0    0  0.00000000000E+00  0.00000000000E+00  0.45593999997E+02  0.45594000000E+02  0.51100000000E-03 0.  1.
         11   -1    0    0    0    0 -0.00000000000E+00 -0.00000000000E+00 -0.45593999997E+02  0.45594000000E+02  0.51100000000E-03 0. -1.
    9900012    2    1    2    0    0  0.34942639395E+02 -0.24076965411E+02  0.91068720976E+01  0.47787269238E+02  0.19999991766E+02 0.  0.
         12    1    1    2    0    0 -0.34942639395E+02  0.24076965411E+02 -0.91068720976E+01  0.43400730762E+02  0.00000000000E+00 0. -1.
         11    1    3    3    0    0  0.75598467874E+01 -0.22523091678E+01 -0.36535390045E+01  0.86932460885E+01  0.51100000000E-03 0. -1.
        -11    1    3    3    0    0  0.15566235448E+01 -0.32591927168E+00  0.40925915476E+01  0.43907409475E+01  0.51100000000E-03 0.  1.
         12    1    3    3    0    0  0.25826169062E+02 -0.21498736971E+02  0.86678195545E+01  0.34703282202E+02  0.00000000000E+00 0. -1.
</event>
<event>
 7    1  0.2647566E-010  0.4778727E+02  0.7816164E-02  0.1312668E+00
        -11   -1    0    0    0    0  0.00000000000E+00  0.00000000000E+00  0.45593999997E+02  0.45594000000E+02  0.51100000000E-03 0.  1.
         11   -1    0    0    0    0 -0.00000000000E+00 -0.00000000000E+00 -0.45593999997E+02  0.45594000000E+02  0.51100000000E-03 0. -1.
    9900012    2    1    2    0    0  0.37197535950E+02 -0.18122162417E+02 -0.13097854400E+02  0.47787271420E+02  0.20000001711E+02 0.  0.
         12    1    1    2    0    0 -0.37197535950E+02  0.18122162417E+02  0.13097854400E+02  0.43400728580E+02  0.00000000000E+00 0. -1.
         11    1    3    3    0    0  0.16155044278E+02 -0.86843784389E+01 -0.43531466783E+01  0.18850829445E+02  0.51100000000E-03 0. -1.
        -11    1    3    3    0    0  0.36420441160E+01 -0.61889007761E+01  0.29043190333E+01  0.77460988547E+01  0.51100000000E-03 0.  1.
         12    1    3    3    0    0  0.17400447556E+02 -0.32488832021E+01 -0.11649026755E+02  0.21190343120E+02  0.00000000000E+00 0. -1.
</event>
<event>
 7    1  0.2647566E-010  0.4778727E+02  0.7816164E-02  0.1312668E+00
        -11   -1    0    0    0    0  0.00000000000E+00  0.00000000000E+00  0.45593999997E+02  0.45594000000E+02  0.51100000000E-03 0.  1.
         11   -1    0    0    0    0 -0.00000000000E+00 -0.00000000000E+00 -0.45593999997E+02  0.45594000000E+02  0.51100000000E-03 0. -1.
    9900012    2    1    2    0    0 -0.35557157727E+02  0.16753125260E+02  0.18402299842E+02  0.47787270616E+02  0.19999998047E+02 0.  0.
         12    1    1    2    0    0  0.35557157727E+02 -0.16753125260E+02 -0.18402299842E+02  0.43400729384E+02  0.00000000000E+00 0. -1.
         11    1    3    3    0    0 -0.68912538566E+01  0.47840631866E+00 -0.17757540803E+01  0.71324298199E+01  0.51100000000E-03 0. -1.
        -11    1    3    3    0    0 -0.12705242848E+02  0.24943333649E+01  0.26083981451E+01  0.13207900511E+02  0.51100000000E-03 0.  1.
        -12    1    3    3    0    0 -0.15960661022E+02  0.13780385576E+02  0.17569655777E+02  0.27446940285E+02  0.00000000000E+00 0.  1.
</event>
<event>
 7    1  0.2647566E-010  0.4778727E+02  0.7816164E-02  0.1312668E+00
        -11   -1    0    0    0    0  0.00000000000E+00  0.00000000000E+00  0.45593999997E+02  0.45594000000E+02  0.51100000000E-03 0.  1.
         11   -1    0    0    0    0 -0.00000000000E+00 -0.00000000000E+00 -0.45593999997E+02  0.45594000000E+02  0.51100000000E-03 0. -1.
    9900012    2    1    2    0    0  0.28503225191E+02 -0.28899619237E+02  0.15362331515E+02  0.47787273417E+02  0.20000010817E+02 0.  0.
         12    1    1    2    0    0 -0.28503225191E+02  0.28899619237E+02 -0.15362331515E+02  0.43400726583E+02  0.00000000000E+00 0. -1.
         11    1    3    3    0    0  0.15406146055E+02 -0.16512677224E+02  0.12174392226E+02  0.25656065008E+02  0.51100000000E-03 0. -1.
        -11    1    3    3    0    0  0.14187710134E+02 -0.12257102796E+02  0.55273075745E+01  0.19546836498E+02  0.51100000000E-03 0.  1.
         12    1    3    3    0    0 -0.10906309980E+01 -0.12983921746E+00 -0.23393682855E+01  0.25843719104E+01  0.00000000000E+00 0. -1.
</event>
<event>
 7    1  0.2647566E-010  0.4778727E+02  0.7816164E-02  0.1312668E+00
        -11   -1    0    0    0    0  0.00000000000E+00  0.00000000000E+00  0.45593999997E+02  0.45594000000E+02  0.51100000000E-03 0.  1.
         11   -1    0    0    0    0 -0.00000000000E+00 -0.00000000000E+00 -0.45593999997E+02  0.45594000000E+02  0.51100000000E-03 0. -1.
    9900012    2    1    2    0    0 -0.45125023318E+01  0.42332544606E+02  0.84389791104E+01  0.47787269838E+02  0.19999994501E+02 0.  0.
         12    1    1    2    0    0  0.45125023318E+01 -0.42332544606E+02 -0.84389791104E+01  0.43400730162E+02  0.00000000000E+00 0. -1.
         11    1    3    3    0    0  0.17746965223E+01  0.23497930182E+02  0.68042856654E+01  0.24527547253E+02  0.51100000000E-03 0. -1.
        -11    1    3    3    0    0  0.14710097333E+01  0.11973205326E+02 -0.21102159653E+01  0.12246408742E+02  0.51100000000E-03 0.  1.
         12    1    3    3    0    0 -0.77582085875E+01  0.68614090993E+01  0.37449094104E+01  0.11013313843E+02  0.00000000000E+00 0. -1.
</event>
<event>
 7    1  0.2647566E-010  0.4778727E+02  0.7816164E-02  0.1312668E+00
        -11   -1    0    0    0    0  0.00000000000E+00  0.00000000000E+00  0.45593999997E+02  0.45594000000E+02  0.51100000000E-03 0. -1.
         11   -1    0    0    0    0 -0.00000000000E+00 -0.00000000000E+00 -0.45593999997E+02  0.45594000000E+02  0.51100000000E-03 0.  1.
    9900012    2    1    2    0    0  0.42941068384E+02  0.30648894840E+01 -0.55040541135E+01  0.47787268288E+02  0.19999987430E+02 0.  0.
         12    1    1    2    0    0 -0.42941068384E+02 -0.30648894840E+01  0.55040541135E+01  0.43400731712E+02  0.00000000000E+00 0. -1.
         11    1    3    3    0    0  0.20183234097E+02  0.22877897761E+01 -0.11844851282E+02  0.23513770919E+02  0.51100000000E-03 0. -1.
        -11    1    3    3    0    0  0.54952998477E+01  0.25210055109E+01  0.10679168195E+01  0.61395631601E+01  0.51100000000E-03 0.  1.
         12    1    3    3    0    0  0.17262534439E+02 -0.17439058030E+01  0.52728803487E+01  0.18133934209E+02  0.00000000000E+00 0. -1.
</event>
<event>
 7    1  0.2647566E-010  0.4778729E+02  0.7816164E-02  0.1312668E+00
        -11   -1    0    0    0    0  0.00000000000E+00  0.00000000000E+00  0.45593999997E+02  0.45594000000E+02  0.51100000000E-03 0.  1.
         11   -1    0    0    0    0 -0.00000000000E+00 -0.00000000000E+00 -0.45593999997E+02  0.45594000000E+02  0.51100000000E-03 0. -1.
    9900012    2    1    2    0    0 -0.37265539571E+02 -0.18165248468E+02  0.12842326100E+02  0.47787285362E+02  0.20000065279E+02 0.  0.
         12    1    1    2    0    0  0.37265539571E+02  0.18165248468E+02 -0.12842326100E+02  0.43400714638E+02  0.00000000000E+00 0. -1.
         11    1    3    3    0    0 -0.29220785883E+01 -0.43853725697E+01  0.11027940557E+01  0.53838825063E+01  0.51100000000E-03 0. -1.
        -11    1    3    3    0    0 -0.35509736656E+02 -0.10254053259E+02  0.99243959525E+01  0.38269839834E+02  0.51100000000E-03 0.  1.
        -12    1    3    3    0    0  0.11662756728E+01 -0.35258226388E+01  0.18151360920E+01  0.41335630221E+01  0.00000000000E+00 0.  1.
</event>
<event>
 7    1  0.2647566E-010  0.4778727E+02  0.7816164E-02  0.1312668E+00
        -11   -1    0    0    0    0  0.00000000000E+00  0.00000000000E+00  0.45593999997E+02  0.45594000000E+02  0.51100000000E-03 0.  1.
         11   -1    0    0    0    0 -0.00000000000E+00 -0.00000000000E+00 -0.45593999997E+02  0.45594000000E+02  0.51100000000E-03 0. -1.
    9900012    2    1    2    0    0 -0.27183565909E+02 -0.84814532371E+01  0.32752738644E+02  0.47787271974E+02  0.20000004237E+02 0.  0.
         12    1    1    2    0    0  0.27183565909E+02  0.84814532371E+01 -0.32752738644E+02  0.43400728026E+02  0.00000000000E+00 0. -1.
         11    1    3    3    0    0  0.17236056939E+01 -0.17490412041E+01  0.29810206181E+00  0.24736262495E+01  0.51100000000E-03 0. -1.
        -11    1    3    3    0    0 -0.11127005275E+02 -0.54897410669E+01  0.70204760885E+01  0.14256036902E+02  0.51100000000E-03 0.  1.
         12    1    3    3    0    0 -0.17780166328E+02 -0.12426709661E+01  0.25434160493E+02  0.31057608823E+02  0.00000000000E+00 0. -1.
</event>
<event>
 7    1  0.2647566E-010  0.4778727E+02  0.7816164E-02  0.1312668E+00
        -11   -1    0    0    0    0  0.00000000000E+00  0.00000000000E+00  0.45593999997E+02  0.45594000000E+02  0.51100000000E-03 0.  1.
         11   -1    0    0    0    0 -0.00000000000E+00 -0.00000000000E+00 -0.45593999997E+02  0.45594000000E+02  0.51100000000E-03 0. -1.
    9900012    2    1    2    0    0 -0.10727872696E+02  0.15692646598E+02  0.39016366670E+02  0.47787270997E+02  0.19999999785E+02 0.  0.
         12    1    1    2    0    0  0.10727872696E+02 -0.15692646598E+02 -0.39016366670E+02  0.43400729003E+02  0.00000000000E+00 0. -1.
         11    1    3    3    0    0 -0.82050805905E+01  0.46511614602E+01  0.11094614119E+02  0.14561837560E+02  0.51100000000E-03 0. -1.
        -11    1    3    3    0    0  0.34704225838E+01  0.10620280033E+02  0.22549941477E+02  0.25166128860E+02  0.51100000000E-03 0.  1.
         12    1    3    3    0    0 -0.59932146895E+01  0.42120510434E+00  0.53718110736E+01  0.80593045770E+01  0.00000000000E+00 0. -1.
</event>
<event>
 7    1  0.2647566E-010  0.4778727E+02  0.7816164E-02  0.1312668E+00
        -11   -1    0    0    0    0  0.00000000000E+00  0.00000000000E+00  0.45593999997E+02  0.45594000000E+02  0.51100000000E-03 0.  1.
         11   -1    0    0    0    0 -0.00000000000E+00 -0.00000000000E+00 -0.45593999997E+02  0.45594000000E+02  0.51100000000E-03 0. -1.
    9900012    2    1    2    0    0 -0.52176343303E+01  0.31113798517E+02  0.29804890692E+02  0.47787266419E+02  0.19999978913E+02 0.  0.
         12    1    1    2    0    0  0.52176343303E+01 -0.31113798517E+02 -0.29804890692E+02  0.43400733581E+02  0.00000000000E+00 0. -1.
         11    1    3    3    0    0  0.20858881019E+01 -0.11195549432E+01  0.26947836062E+01  0.35869473637E+01  0.51100000000E-03 0. -1.
        -11    1    3    3    0    0  0.26783613179E+01  0.44194380280E+01  0.57937258446E+01  0.77635244094E+01  0.51100000000E-03 0.  1.
        -12    1    3    3    0    0 -0.99818837502E+01  0.27813915432E+02  0.21316381242E+02  0.36436794646E+02  0.00000000000E+00 0.  1.
</event>
<event>
 7    1  0.2647566E-010  0.4778727E+02  0.7816164E-02  0.1312668E+00
        -11   -1    0    0    0    0  0.00000000000E+00  0.00000000000E+00  0.45593999997E+02  0.45594000000E+02  0.51100000000E-03 0. -1.
         11   -1    0    0    0    0 -0.00000000000E+00 -0.00000000000E+00 -0.45593999997E+02  0.45594000000E+02  0.51100000000E-03 0.  1.
    9900012    2    1    2    0    0  0.28437002163E+02  0.11565917176E+02 -0.30678817467E+02  0.47787269899E+02  0.19999994779E+02 0.  0.
         12    1    1    2    0    0 -0.28437002163E+02 -0.11565917176E+02  0.30678817467E+02  0.43400730101E+02  0.00000000000E+00 0. -1.
         11    1    3    3    0    0  0.16419694763E+02  0.58191588623E+01 -0.98927588476E+01  0.20033363768E+02  0.51100000000E-03 0. -1.
        -11    1    3    3    0    0  0.95832821284E+01  0.35883740638E+01 -0.45567718525E+01  0.11201780874E+02  0.51100000000E-03 0.  1.
         12    1    3    3    0    0  0.24340252715E+01  0.21583842497E+01 -0.16229286767E+02  0.16552125258E+02  0.00000000000E+00 0. -1.
</event>
<event>
 7    1  0.2647566E-010  0.4778727E+02  0.7816164E-02  0.1312668E+00
        -11   -1    0    0    0    0  0.00000000000E+00  0.00000000000E+00  0.45593999997E+02  0.45594000000E+02  0.51100000000E-03 0.  1.
         11   -1    0    0    0    0 -0.00000000000E+00 -0.00000000000E+00 -0.45593999997E+02  0.45594000000E+02  0.51100000000E-03 0. -1.
    9900012    2    1    2    0    0 -0.38270650293E+02 -0.63293066287E+01  0.19465878628E+02  0.47787271584E+02  0.20000002461E+02 0.  0.
         12    1    1    2    0    0  0.38270650293E+02  0.63293066287E+01 -0.19465878628E+02  0.43400728416E+02  0.00000000000E+00 0. -1.
         11    1    3    3    0    0  0.17457361995E+01 -0.10867636640E+01  0.10213343350E+00  0.20589030184E+01  0.51100000000E-03 0. -1.
        -11    1    3    3    0    0 -0.12052249044E+02  0.48505814806E+00  0.17541341491E+01  0.12188887369E+02  0.51100000000E-03 0.  1.
        -12    1    3    3    0    0 -0.27964137449E+02 -0.57276011127E+01  0.17609611046E+02  0.33539481197E+02  0.00000000000E+00 0.  1.
</event>
<event>
 7    1  0.2647566E-010  0.4778727E+02  0.7816164E-02  0.1312668E+00
        -11   -1    0    0    0    0  0.00000000000E+00  0.00000000000E+00  0.45593999997E+02  0.45594000000E+02  0.51100000000E-03 0.  1.
         11   -1    0    0    0    0 -0.00000000000E+00 -0.00000000000E+00 -0.45593999997E+02  0.45594000000E+02  0.51100000000E-03 0. -1.
    9900012    2    1    2    0    0  0.80870044638E+01 -0.27114778724E+02  0.32909156499E+02  0.47787269039E+02  0.19999990856E+02 0.  0.
         12    1    1    2    0    0 -0.80870044638E+01  0.27114778724E+02 -0.32909156499E+02  0.43400730961E+02  0.00000000000E+00 0. -1.
         11    1    3    3    0    0 -0.12681882642E+01  0.47640572886E-01  0.39022046392E+00  0.13277211188E+01  0.51100000000E-03 0. -1.
        -11    1    3    3    0    0  0.13808899007E+02 -0.17402806438E+02  0.24452982751E+02  0.33037731904E+02  0.51100000000E-03 0.  1.
        -12    1    3    3    0    0 -0.44537062787E+01 -0.97596128594E+01  0.80659532842E+01  0.13421816016E+02  0.00000000000E+00 0.  1.
</event>
<event>
 7    1  0.2647566E-010  0.4778727E+02  0.7816164E-02  0.1312668E+00
        -11   -1    0    0    0    0  0.00000000000E+00  0.00000000000E+00  0.45593999997E+02  0.45594000000E+02  0.51100000000E-03 0. -1.
         11   -1    0    0    0    0 -0.00000000000E+00 -0.00000000000E+00 -0.45593999997E+02  0.45594000000E+02  0.51100000000E-03 0.  1.
    9900012    2    1    2    0    0 -0.15047172593E+02  0.26731101285E+02 -0.30702671387E+02  0.47787271789E+02  0.20000003395E+02 0.  0.
         12    1    1    2    0    0  0.15047172593E+02 -0.26731101285E+02  0.30702671387E+02  0.43400728211E+02  0.00000000000E+00 0. -1.
         11    1    3    3    0    0 -0.28764988334E+01  0.55715235972E+01 -0.52220124097E+01  0.81599959927E+01  0.51100000000E-03 0.  1.
        -11    1    3    3    0    0 -0.36022819897E+01 -0.28471081431E+01 -0.21415579529E+01  0.50664317857E+01  0.51100000000E-03 0. -1.
         12    1    3    3    0    0 -0.85683917699E+01  0.24006685831E+02 -0.23339101024E+02  0.34560844011E+02  0.00000000000E+00 0. -1.
</event>
<event>
 7    1  0.2647566E-010  0.4778727E+02  0.7816164E-02  0.1312668E+00
        -11   -1    0    0    0    0  0.00000000000E+00  0.00000000000E+00  0.45593999997E+02  0.45594000000E+02  0.51100000000E-03 0. -1.
         11   -1    0    0    0    0 -0.00000000000E+00 -0.00000000000E+00 -0.45593999997E+02  0.45594000000E+02  0.51100000000E-03 0.  1.
    9900012    2    1    2    0    0  0.32933858534E+02  0.14178899360E+02 -0.24452870988E+02  0.47787272765E+02  0.20000007845E+02 0.  0.
         12    1    1    2    0    0 -0.32933858534E+02 -0.14178899360E+02  0.24452870988E+02  0.43400727235E+02  0.00000000000E+00 0. -1.
         11    1    3    3    0    0  0.11771649433E+02  0.10955539945E+02 -0.14288813570E+02  0.21511991525E+02  0.51100000000E-03 0. -1.
        -11    1    3    3    0    0  0.29283301486E+01  0.51135241736E+01 -0.22323028517E+01  0.63013032950E+01  0.51100000000E-03 0.  1.
        -12    1    3    3    0    0  0.18233878952E+02 -0.18901647592E+01 -0.79317545663E+01  0.19973977945E+02  0.00000000000E+00 0.  1.
</event>
<event>
 7    1  0.2647566E-010  0.4778727E+02  0.7816164E-02  0.1312668E+00
        -11   -1    0    0    0    0  0.00000000000E+00  0.00000000000E+00  0.45593999997E+02  0.45594000000E+02  0.51100000000E-03 0. -1.
         11   -1    0    0    0    0 -0.00000000000E+00 -0.00000000000E+00 -0.45593999997E+02  0.45594000000E+02  0.51100000000E-03 0.  1.
    9900012    2    1    2    0    0  0.30735832045E+02 -0.46405319151E+00 -0.30638486205E+02  0.47787267819E+02  0.19999985296E+02 0.  0.
         12    1    1    2    0    0 -0.30735832045E+02  0.46405319151E+00  0.30638486205E+02  0.43400732181E+02  0.00000000000E+00 0. -1.
         11    1    3    3    0    0  0.64471129048E+01 -0.10209829605E+00  0.10231054347E+01  0.65285859006E+01  0.51100000000E-03 0.  1.
        -11    1    3    3    0    0  0.60145658926E+01  0.10487288409E+01 -0.20624548525E+01  0.64442653063E+01  0.51100000000E-03 0. -1.
        -12    1    3    3    0    0  0.18274153248E+02 -0.14106837363E+01 -0.29599136787E+02  0.34814416613E+02  0.00000000000E+00 0.  1.
</event>
<event>
 7    1  0.2647566E-010  0.4778727E+02  0.7816164E-02  0.1312668E+00
        -11   -1    0    0    0    0  0.00000000000E+00  0.00000000000E+00  0.45593999997E+02  0.45594000000E+02  0.51100000000E-03 0. -1.
         11   -1    0    0    0    0 -0.00000000000E+00 -0.00000000000E+00 -0.45593999997E+02  0.45594000000E+02  0.51100000000E-03 0.  1.
    9900012    2    1    2    0    0  0.29485271515E+02  0.30972161863E+02  0.74139960617E+01  0.47787269772E+02  0.19999994197E+02 0.  0.
         12    1    1    2    0    0 -0.29485271515E+02 -0.30972161863E+02 -0.74139960617E+01  0.43400730228E+02  0.00000000000E+00 0. -1.
         11    1    3    3    0    0  0.35087444683E+01  0.13103849541E+02  0.37257960881E+00  0.13570592337E+02  0.51100000000E-03 0. -1.
        -11    1    3    3    0    0  0.12257995056E+02  0.13447354649E+02  0.47044210475E-01  0.18195933702E+02  0.51100000000E-03 0.  1.
         12    1    3    3    0    0  0.13718531990E+02  0.44209576723E+01  0.69943722424E+01  0.16020743733E+02  0.00000000000E+00 0. -1.
</event>
<event>
 7    1  0.2647566E-010  0.4778727E+02  0.7816164E-02  0.1312668E+00
        -11   -1    0    0    0    0  0.00000000000E+00  0.00000000000E+00  0.45593999997E+02  0.45594000000E+02  0.51100000000E-03 0. -1.
         11   -1    0    0    0    0 -0.00000000000E+00 -0.00000000000E+00 -0.45593999997E+02  0.45594000000E+02  0.51100000000E-03 0.  1.
    9900012    2    1    2    0    0  0.20974286162E+02  0.64563188552E+01 -0.37443540310E+02  0.47787269083E+02  0.19999991058E+02 0.  0.
         12    1    1    2    0    0 -0.20974286162E+02 -0.64563188552E+01  0.37443540310E+02  0.43400730917E+02  0.00000000000E+00 0. -1.
         11    1    3    3    0    0  0.48473312095E+01  0.14179639930E+01 -0.76467767353E+01  0.91640840481E+01  0.51100000000E-03 0. -1.
        -11    1    3    3    0    0  0.99779554696E+01  0.84573047714E+00 -0.29523870204E+02  0.31175852313E+02  0.51100000000E-03 0.  1.
         12    1    3    3    0    0  0.61489994831E+01  0.41926243850E+01 -0.27289337092E+00  0.74473327218E+01  0.00000000000E+00 0. -1.
</event>
<event>
 7    1  0.2647566E-010  0.4778726E+02  0.7816164E-02  0.1312668E+00
        -11   -1    0    0    0    0  0.00000000000E+00  0.00000000000E+00  0.45593999997E+02  0.45594000000E+02  0.51100000000E-03 0.  1.
         11   -1    0    0    0    0 -0.00000000000E+00 -0.00000000000E+00 -0.45593999997E+02  0.45594000000E+02  0.51100000000E-03 0. -1.
    9900012    2    1    2    0    0 -0.15573685657E+02  0.27130502636E+02  0.30083550857E+02  0.47787263942E+02  0.19999967616E+02 0.  0.
         12    1    1    2    0    0  0.15573685657E+02 -0.27130502636E+02 -0.30083550857E+02  0.43400736058E+02  0.00000000000E+00 0. -1.
         11    1    3    3    0    0  0.21926012138E+01  0.29779220074E+01  0.73063629723E+01  0.81889229883E+01  0.51100000000E-03 0. -1.
        -11    1    3    3    0    0  0.13007383193E+01  0.38768526663E+01  0.54474564788E+01  0.68115115152E+01  0.51100000000E-03 0.  1.
        -12    1    3    3    0    0 -0.19067025190E+02  0.20275727962E+02  0.17329731406E+02  0.32786829438E+02  0.00000000000E+00 0.  1.
</event>
<event>
 7    1  0.2647566E-010  0.4778727E+02  0.7816164E-02  0.1312668E+00
        -11   -1    0    0    0    0  0.00000000000E+00  0.00000000000E+00  0.45593999997E+02  0.45594000000E+02  0.51100000000E-03 0.  1.
         11   -1    0    0    0    0 -0.00000000000E+00 -0.00000000000E+00 -0.45593999997E+02  0.45594000000E+02  0.51100000000E-03 0. -1.
    9900012    2    1    2    0    0  0.16552663295E+02 -0.32804470545E+02  0.23097602990E+02  0.47787271737E+02  0.20000003156E+02 0.  0.
         12    1    1    2    0    0 -0.16552663295E+02  0.32804470545E+02 -0.23097602990E+02  0.43400728263E+02  0.00000000000E+00 0. -1.
         11    1    3    3    0    0  0.12109000749E+00 -0.72902585483E+01  0.32287031506E+01  0.79741492830E+01  0.51100000000E-03 0. -1.
        -11    1    3    3    0    0  0.18172322749E+02 -0.22870304902E+02  0.12462169069E+02  0.31758303144E+02  0.51100000000E-03 0.  1.
         12    1    3    3    0    0 -0.17407494611E+01 -0.26439070945E+01  0.74067307701E+01  0.80548193096E+01  0.00000000000E+00 0. -1.
</event>
<event>
 7    1  0.2647566E-010  0.4778727E+02  0.7816164E-02  0.1312668E+00
        -11   -1    0    0    0    0  0.00000000000E+00  0.00000000000E+00  0.45593999997E+02  0.45594000000E+02  0.51100000000E-03 0.  1.
         11   -1    0    0    0    0 -0.00000000000E+00 -0.00000000000E+00 -0.45593999997E+02  0.45594000000E+02  0.51100000000E-03 0. -1.
    9900012    2    1    2    0    0  0.43231200980E+02 -0.37937454078E+01 -0.54220268413E+00  0.47787271594E+02  0.20000002506E+02 0.  0.
         12    1    1    2    0    0 -0.43231200980E+02  0.37937454078E+01  0.54220268413E+00  0.43400728406E+02  0.00000000000E+00 0. -1.
         11    1    3    3    0    0  0.48665943655E+01  0.31555291357E+01  0.81122701101E+00  0.58565514058E+01  0.51100000000E-03 0. -1.
        -11    1    3    3    0    0  0.21499642309E+02  0.38656939447E+01  0.82888781447E-01  0.21844566370E+02  0.51100000000E-03 0.  1.
         12    1    3    3    0    0  0.16864964306E+02 -0.10814968488E+02 -0.14363184766E+01  0.20086153818E+02  0.00000000000E+00 0. -1.
</event>
<event>
 7    1  0.2647566E-010  0.4778728E+02  0.7816164E-02  0.1312668E+00
        -11   -1    0    0    0    0  0.00000000000E+00  0.00000000000E+00  0.45593999997E+02  0.45594000000E+02  0.51100000000E-03 0.  1.
         11   -1    0    0    0    0 -0.00000000000E+00 -0.00000000000E+00 -0.45593999997E+02  0.45594000000E+02  0.51100000000E-03 0. -1.
    9900012    2    1    2    0    0 -0.37629606067E+02  0.19336401024E+02  0.96818834128E+01  0.47787279686E+02  0.20000039400E+02 0.  0.
         12    1    1    2    0    0  0.37629606067E+02 -0.19336401024E+02 -0.96818834128E+01  0.43400720314E+02  0.00000000000E+00 0. -1.
         11    1    3    3    0    0 -0.24045892251E+02  0.76163746217E+01  0.83413546597E+01  0.26566751671E+02  0.51100000000E-03 0. -1.
        -11    1    3    3    0    0 -0.13180595816E+02  0.47400773660E+01 -0.41043986593E+00  0.14013026106E+02  0.51100000000E-03 0.  1.
         12    1    3    3    0    0 -0.40311800098E+00  0.69799490364E+01  0.17509686190E+01  0.72075019097E+01  0.00000000000E+00 0. -1.
</event>
<event>
 7    1  0.2647566E-010  0.4778728E+02  0.7816164E-02  0.1312668E+00
        -11   -1    0    0    0    0  0.00000000000E+00  0.00000000000E+00  0.45593999997E+02  0.45594000000E+02  0.51100000000E-03 0.  1.
         11   -1    0    0    0    0 -0.00000000000E+00 -0.00000000000E+00 -0.45593999997E+02  0.45594000000E+02  0.51100000000E-03 0. -1.
    9900012    2    1    2    0    0 -0.20600270100E+02  0.19624311601E+02  0.32774045612E+02  0.47787276507E+02  0.20000024904E+02 0.  0.
         12    1    1    2    0    0  0.20600270100E+02 -0.19624311601E+02 -0.32774045612E+02  0.43400723493E+02  0.00000000000E+00 0. -1.
         11    1    3    3    0    0 -0.86349615199E+00  0.38305640466E+00 -0.67158720365E+00  0.11590459210E+01  0.51100000000E-03 0. -1.
        -11    1    3    3    0    0 -0.19636568491E+02  0.20546196162E+02  0.34673976739E+02  0.44833309737E+02  0.51100000000E-03 0.  1.
        -12    1    3    3    0    0 -0.10020545617E+00 -0.13049409663E+01 -0.12283439230E+01  0.17949208484E+01  0.00000000000E+00 0.  1.
</event>
<event>
 7    1  0.2647566E-010  0.4778727E+02  0.7816164E-02  0.1312668E+00
        -11   -1    0    0    0    0  0.00000000000E+00  0.00000000000E+00  0.45593999997E+02  0.45594000000E+02  0.51100000000E-03 0.  1.
         11   -1    0    0    0    0 -0.00000000000E+00 -0.00000000000E+00 -0.45593999997E+02  0.45594000000E+02  0.51100000000E-03 0. -1.
    9900012    2    1    2    0    0 -0.95352620342E+01 -0.41457161919E+02  0.86026656678E+01  0.47787270132E+02  0.19999995841E+02 0.  0.
         12    1    1    2    0    0  0.95352620342E+01  0.41457161919E+02 -0.86026656678E+01  0.43400729868E+02  0.00000000000E+00 0. -1.
         11    1    3    3    0    0 -0.87786391904E+01 -0.10820372571E+02  0.15134330692E+01  0.14015543105E+02  0.51100000000E-03 0. -1.
        -11    1    3    3    0    0 -0.43844303380E+01 -0.28305027680E+02  0.54402031283E+01  0.29154650259E+02  0.51100000000E-03 0.  1.
         12    1    3    3    0    0  0.36278074942E+01 -0.23317616678E+01  0.16490294703E+01  0.46170767683E+01  0.00000000000E+00 0. -1.
</event>
<event>
 7    1  0.2647566E-010  0.4778727E+02  0.7816164E-02  0.1312668E+00
        -11   -1    0    0    0    0  0.00000000000E+00  0.00000000000E+00  0.45593999997E+02  0.45594000000E+02  0.51100000000E-03 0.  1.
         11   -1    0    0    0    0 -0.00000000000E+00 -0.00000000000E+00 -0.45593999997E+02  0.45594000000E+02  0.51100000000E-03 0. -1.
    9900012    2    1    2    0    0 -0.12301478965E+01 -0.40716476246E+02 -0.14975926926E+02  0.47787273174E+02  0.20000009711E+02 0.  0.
         12    1    1    2    0    0  0.12301478965E+01  0.40716476246E+02  0.14975926926E+02  0.43400726826E+02  0.00000000000E+00 0. -1.
         11    1    3    3    0    0  0.51145227874E+01 -0.11307082993E+02 -0.48600607062E+01  0.13327740225E+02  0.51100000000E-03 0. -1.
        -11    1    3    3    0    0 -0.87738604223E+00 -0.16687928152E+02  0.94477606334E+00  0.16737662750E+02  0.51100000000E-03 0.  1.
         12    1    3    3    0    0 -0.54672846418E+01 -0.12721465101E+02 -0.11060642283E+02  0.17721870200E+02  0.00000000000E+00 0. -1.
</event>
<event>
 7    1  0.2647566E-010  0.4778727E+02  0.7816164E-02  0.1312668E+00
        -11   -1    0    0    0    0  0.00000000000E+00  0.00000000000E+00  0.45593999997E+02  0.45594000000E+02  0.51100000000E-03 0.  1.
         11   -1    0    0    0    0 -0.00000000000E+00 -0.00000000000E+00 -0.45593999997E+02  0.45594000000E+02  0.51100000000E-03 0. -1.
    9900012    2    1    2    0    0 -0.35934779013E+02 -0.80139942927E+01  0.22980224295E+02  0.47787272404E+02  0.20000006198E+02 0.  0.
         12    1    1    2    0    0  0.35934779013E+02  0.80139942927E+01 -0.22980224295E+02  0.43400727596E+02  0.00000000000E+00 0. -1.
         11    1    3    3    0    0 -0.39064397312E+00 -0.36740288792E+01  0.61704331137E+00  0.37459089188E+01  0.51100000000E-03 0. -1.
        -11    1    3    3    0    0 -0.25477201601E+02 -0.47311769532E+01  0.92703155646E+01  0.27521093505E+02  0.51100000000E-03 0.  1.
         12    1    3    3    0    0 -0.10066933439E+02  0.39121153974E+00  0.13092865419E+02  0.16520269980E+02  0.00000000000E+00 0. -1.
</event>
<event>
 7    1  0.2647566E-010  0.4778727E+02  0.7816164E-02  0.1312668E+00
        -11   -1    0    0    0    0  0.00000000000E+00  0.00000000000E+00  0.45593999997E+02  0.45594000000E+02  0.51100000000E-03 0.  1.
         11   -1    0    0    0    0 -0.00000000000E+00 -0.00000000000E+00 -0.45593999997E+02  0.45594000000E+02  0.51100000000E-03 0. -1.
    9900012    2    1    2    0    0  0.94400997229E+01  0.32725482744E+02  0.26898894654E+02  0.47787271467E+02  0.20000001926E+02 0.  0.
         12    1    1    2    0    0 -0.94400997229E+01 -0.32725482744E+02 -0.26898894654E+02  0.43400728533E+02  0.00000000000E+00 0. -1.
         11    1    3    3    0    0  0.70460008340E+01  0.39799787821E+01  0.10196001568E+02  0.13017096723E+02  0.51100000000E-03 0. -1.
        -11    1    3    3    0    0  0.55405226376E+01  0.12566682859E+02  0.99456314481E+01  0.16956842110E+02  0.51100000000E-03 0.  1.
        -12    1    3    3    0    0 -0.31464237487E+01  0.16178821103E+02  0.67572616378E+01  0.17813332634E+02  0.00000000000E+00 0.  1.
</event>
<event>
 7    1  0.2647566E-010  0.4778729E+02  0.7816164E-02  0.1312668E+00
        -11   -1    0    0    0    0  0.00000000000E+00  0.00000000000E+00  0.45593999997E+02  0.45594000000E+02  0.51100000000E-03 0.  1.
         11   -1    0    0    0    0 -0.00000000000E+00 -0.00000000000E+00 -0.45593999997E+02  0.45594000000E+02  0.51100000000E-03 0. -1.
    9900012    2    1    2    0    0 -0.53063453870E+01  0.21855717911E+02  0.37118622154E+02  0.47787287824E+02  0.20000076506E+02 0.  0.
         12    1    1    2    0    0  0.53063453870E+01 -0.21855717911E+02 -0.37118622154E+02  0.43400712176E+02  0.00000000000E+00 0. -1.
         11    1    3    3    0    0 -0.13104697461E+00  0.30593314859E+01 -0.91593368412E+00  0.31961879207E+01  0.51100000000E-03 0. -1.
        -11    1    3    3    0    0 -0.48696717397E+01  0.77524921915E+00  0.11515893479E+02  0.12527191110E+02  0.51100000000E-03 0.  1.
        -12    1    3    3    0    0 -0.30562667263E+00  0.18021137206E+02  0.26518662358E+02  0.32063908794E+02  0.00000000000E+00 0.  1.
</event>
<event>
 7    1  0.2647566E-010  0.4778725E+02  0.7816164E-02  0.1312668E+00
        -11   -1    0    0    0    0  0.00000000000E+00  0.00000000000E+00  0.45593999997E+02  0.45594000000E+02  0.51100000000E-03 0.  1.
         11   -1    0    0    0    0 -0.00000000000E+00 -0.00000000000E+00 -0.45593999997E+02  0.45594000000E+02  0.51100000000E-03 0. -1.
    9900012    2    1    2    0    0 -0.26397483986E+02 -0.29883840709E+02  0.17139247758E+02  0.47787252195E+02  0.19999914059E+02 0.  0.
         12    1    1    2    0    0  0.26397483986E+02  0.29883840709E+02 -0.17139247758E+02  0.43400747805E+02  0.00000000000E+00 0. -1.
         11    1    3    3    0    0 -0.12671787357E+02 -0.82998704266E+01  0.76363490321E+01  0.16963957991E+02  0.51100000000E-03 0. -1.
        -11    1    3    3    0    0 -0.12160479427E+02 -0.10214419235E+02 -0.65091508584E-01  0.15881305279E+02  0.51100000000E-03 0.  1.
         12    1    3    3    0    0 -0.15652172013E+01 -0.11369551048E+02  0.95679902343E+01  0.14941988925E+02  0.00000000000E+00 0. -1.
</event>
<event>
 7    1  0.2647566E-010  0.4778727E+02  0.7816164E-02  0.1312668E+00
        -11   -1    0    0    0    0  0.00000000000E+00  0.00000000000E+00  0.45593999997E+02  0.45594000000E+02  0.51100000000E-03 0.  1.
         11   -1    0    0    0    0 -0.00000000000E+00 -0.00000000000E+00 -0.45593999997E+02  0.45594000000E+02  0.51100000000E-03 0. -1.
    9900012    2    1    2    0    0  0.39852710019E+02 -0.12056676403E+02  0.12248311848E+02  0.47787273222E+02  0.20000009930E+02 0.  0.
         12    1    1    2    0    0 -0.39852710019E+02  0.12056676403E+02 -0.12248311848E+02  0.43400726778E+02  0.00000000000E+00 0. -1.
         11    1    3    3    0    0 -0.54516212320E+00 -0.17603343824E+01 -0.12166673362E+01  0.22082252029E+01  0.51100000000E-03 0. -1.
        -11    1    3    3    0    0  0.28142714070E+01 -0.47604177184E+01  0.22371292108E+01  0.59654377688E+01  0.51100000000E-03 0.  1.
        -12    1    3    3    0    0  0.37583600735E+02 -0.55359243025E+01  0.11227849973E+02  0.39613610251E+02  0.00000000000E+00 0.  1.
</event>
<event>
 7    1  0.2647566E-010  0.4778727E+02  0.7816164E-02  0.1312668E+00
        -11   -1    0    0    0    0  0.00000000000E+00  0.00000000000E+00  0.45593999997E+02  0.45594000000E+02  0.51100000000E-03 0. -1.
         11   -1    0    0    0    0 -0.00000000000E+00 -0.00000000000E+00 -0.45593999997E+02  0.45594000000E+02  0.51100000000E-03 0.  1.
    9900012    2    1    2    0    0 -0.36444152846E+02 -0.11286053955E+02 -0.20689903730E+02  0.47787269511E+02  0.19999993010E+02 0.  0.
         12    1    1    2    0    0  0.36444152846E+02  0.11286053955E+02  0.20689903730E+02  0.43400730489E+02  0.00000000000E+00 0. -1.
         11    1    3    3    0    0 -0.10610956923E+02 -0.19119551736E+01 -0.22927665405E+01  0.11022919672E+02  0.51100000000E-03 0. -1.
        -11    1    3    3    0    0 -0.10814238832E+02 -0.43289441483E+01  0.10320503461E+01  0.11694128746E+02  0.51100000000E-03 0.  1.
         12    1    3    3    0    0 -0.15018957091E+02 -0.50451546330E+01 -0.19429187536E+02  0.25070221094E+02  0.00000000000E+00 0. -1.
</event>
<event>
 7    1  0.2647566E-010  0.4778727E+02  0.7816164E-02  0.1312668E+00
        -11   -1    0    0    0    0  0.00000000000E+00  0.00000000000E+00  0.45593999997E+02  0.45594000000E+02  0.51100000000E-03 0.  1.
         11   -1    0    0    0    0 -0.00000000000E+00 -0.00000000000E+00 -0.45593999997E+02  0.45594000000E+02  0.51100000000E-03 0. -1.
    9900012    2    1    2    0    0 -0.94945727324E+01 -0.37687440627E+02  0.19316655601E+02  0.47787271020E+02  0.19999999891E+02 0.  0.
         12    1    1    2    0    0  0.94945727324E+01  0.37687440627E+02 -0.19316655601E+02  0.43400728980E+02  0.00000000000E+00 0. -1.
         11    1    3    3    0    0 -0.11964390250E+02 -0.33070468136E+02  0.10694822370E+02  0.36758423831E+02  0.51100000000E-03 0. -1.
        -11    1    3    3    0    0  0.16894350687E+01 -0.22374442779E+01  0.95248936497E+00  0.29610106382E+01  0.51100000000E-03 0.  1.
        -12    1    3    3    0    0  0.78038244846E+00 -0.23795282129E+01  0.76693438657E+01  0.80678365509E+01  0.00000000000E+00 0.  1.
</event>
<event>
 7    1  0.2647566E-010  0.4778727E+02  0.7816164E-02  0.1312668E+00
        -11   -1    0    0    0    0  0.00000000000E+00  0.00000000000E+00  0.45593999997E+02  0.45594000000E+02  0.51100000000E-03 0. -1.
         11   -1    0    0    0    0 -0.00000000000E+00 -0.00000000000E+00 -0.45593999997E+02  0.45594000000E+02  0.51100000000E-03 0.  1.
    9900012    2    1    2    0    0  0.31532423234E+02 -0.70560742614E+00 -0.29813286946E+02  0.47787266419E+02  0.19999978909E+02 0.  0.
         12    1    1    2    0    0 -0.31532423234E+02  0.70560742614E+00  0.29813286946E+02  0.43400733581E+02  0.00000000000E+00 0. -1.
         11    1    3    3    0    0 -0.97237438784E+00 -0.59352727187E+00  0.11150265057E+01  0.15940736941E+01  0.51100000000E-03 0. -1.
        -11    1    3    3    0    0  0.62441966459E+01  0.27892442976E+01 -0.22491554144E+01  0.71992066121E+01  0.51100000000E-03 0.  1.
        -12    1    3    3    0    0  0.26260600976E+02 -0.29013244518E+01 -0.28679158038E+02  0.38993986113E+02  0.00000000000E+00 0.  1.
</event>
<event>
 7    1  0.2647566E-010  0.4778727E+02  0.7816164E-02  0.1312668E+00
        -11   -1    0    0    0    0  0.00000000000E+00  0.00000000000E+00  0.45593999997E+02  0.45594000000E+02  0.51100000000E-03 0. -1.
         11   -1    0    0    0    0 -0.00000000000E+00 -0.00000000000E+00 -0.45593999997E+02  0.45594000000E+02  0.51100000000E-03 0.  1.
    9900012    2    1    2    0    0  0.30116188372E+02  0.10904474030E+02 -0.29287041359E+02  0.47787272501E+02  0.20000006639E+02 0.  0.
         12    1    1    2    0    0 -0.30116188372E+02 -0.10904474030E+02  0.29287041359E+02  0.43400727499E+02  0.00000000000E+00 0. -1.
         11    1    3    3    0    0  0.15657629864E+02  0.83278259854E+01 -0.19171171575E+02  0.26116046378E+02  0.51100000000E-03 0. -1.
        -11    1    3    3    0    0  0.74438011971E+00  0.49848181149E+01 -0.41257927474E+01  0.65134230215E+01  0.51100000000E-03 0.  1.
        -12    1    3    3    0    0  0.13714178388E+02 -0.24081700699E+01 -0.59900770368E+01  0.15157803101E+02  0.00000000000E+00 0.  1.
</event>
<event>
 7    1  0.2647566E-010  0.4778731E+02  0.7816164E-02  0.1312668E+00
        -11   -1    0    0    0    0  0.00000000000E+00  0.00000000000E+00  0.45593999997E+02  0.45594000000E+02  0.51100000000E-03 0. -1.
         11   -1    0    0    0    0 -0.00000000000E+00 -0.00000000000E+00 -0.45593999997E+02  0.45594000000E+02  0.51100000000E-03 0.  1.
    9900012    2    1    2    0    0 -0.23762177257E+02 -0.17708660435E+02 -0.31707768249E+02  0.47787305424E+02  0.20000156748E+02 0.  0.
         12    1    1    2    0    0  0.23762177257E+02  0.17708660435E+02  0.31707768249E+02  0.43400694576E+02  0.00000000000E+00 0. -1.
         11    1    3    3    0    0 -0.62870886080E+01 -0.29550564424E+00 -0.44290881715E+01  0.76962087448E+01  0.51100000000E-03 0. -1.
        -11    1    3    3    0    0 -0.13416300679E+02 -0.21619610139E+01 -0.12145599026E+02  0.18225991751E+02  0.51100000000E-03 0.  1.
         12    1    3    3    0    0 -0.40587879696E+01 -0.15251193777E+02 -0.15133081052E+02  0.21865104928E+02  0.00000000000E+00 0. -1.
</event>
<event>
 7    1  0.2647566E-010  0.4778729E+02  0.7816164E-02  0.1312668E+00
        -11   -1    0    0    0    0  0.00000000000E+00  0.00000000000E+00  0.45593999997E+02  0.45594000000E+02  0.51100000000E-03 0. -1.
         11   -1    0    0    0    0 -0.00000000000E+00 -0.00000000000E+00 -0.45593999997E+02  0.45594000000E+02  0.51100000000E-03 0.  1.
    9900012    2    1    2    0    0  0.38091459536E+02  0.37131354362E+01 -0.20466436039E+02  0.47787289539E+02  0.20000084325E+02 0.  0.
         12    1    1    2    0    0 -0.38091459536E+02 -0.37131354362E+01  0.20466436039E+02  0.43400710461E+02  0.00000000000E+00 0. -1.
         11    1    3    3    0    0  0.22077570953E+02 -0.27168272170E+01 -0.13517499790E+02  0.26029273716E+02  0.51100000000E-03 0.  1.
        -11    1    3    3    0    0  0.23762381308E+01 -0.26006487921E+01  0.87009373707E+00  0.36286285517E+01  0.51100000000E-03 0. -1.
        -12    1    3    3    0    0  0.13637650452E+02  0.90306114453E+01 -0.78190299856E+01  0.18129387272E+02  0.00000000000E+00 0.  1.
</event>
<event>
 7    1  0.2647566E-010  0.4778727E+02  0.7816164E-02  0.1312668E+00
        -11   -1    0    0    0    0  0.00000000000E+00  0.00000000000E+00  0.45593999997E+02  0.45594000000E+02  0.51100000000E-03 0.  1.
         11   -1    0    0    0    0 -0.00000000000E+00 -0.00000000000E+00 -0.45593999997E+02  0.45594000000E+02  0.51100000000E-03 0. -1.
    9900012    2    1    2    0    0  0.88730921761E+01  0.20101004413E+02  0.37427811030E+02  0.47787272107E+02  0.20000004844E+02 0.  0.
         12    1    1    2    0    0 -0.88730921761E+01 -0.20101004413E+02 -0.37427811030E+02  0.43400727893E+02  0.00000000000E+00 0. -1.
         11    1    3    3    0    0 -0.11026375742E+01  0.14668681755E+02  0.15786707131E+02  0.21577908989E+02  0.51100000000E-03 0. -1.
        -11    1    3    3    0    0  0.31338630887E+01  0.31325022484E+01  0.12882223081E+01  0.46144539408E+01  0.51100000000E-03 0.  1.
        -12    1    3    3    0    0  0.68418666616E+01  0.22998204100E+01  0.20352881590E+02  0.21594909177E+02  0.00000000000E+00 0.  1.
</event>
<event>
 7    1  0.2647566E-010  0.4778726E+02  0.7816164E-02  0.1312668E+00
        -11   -1    0    0    0    0  0.00000000000E+00  0.00000000000E+00  0.45593999997E+02  0.45594000000E+02  0.51100000000E-03 0. -1.
         11   -1    0    0    0    0 -0.00000000000E+00 -0.00000000000E+00 -0.45593999997E+02  0.45594000000E+02  0.51100000000E-03 0.  1.
    9900012    2    1    2    0    0 -0.16492845928E+02  0.20617082571E+02 -0.34446277312E+02  0.47787261744E+02  0.19999957596E+02 0.  0.
         12    1    1    2    0    0  0.16492845928E+02 -0.20617082571E+02  0.34446277312E+02  0.43400738256E+02  0.00000000000E+00 0. -1.
         11    1    3    3    0    0 -0.56574052331E+01  0.28612854691E+01 -0.14817213358E+01  0.65106594816E+01  0.51100000000E-03 0. -1.
        -11    1    3    3    0    0 -0.47728336042E+01  0.66842257566E+00 -0.16540111518E+01  0.50953392924E+01  0.51100000000E-03 0.  1.
        -12    1    3    3    0    0 -0.60626070904E+01  0.17087374526E+02 -0.31310544824E+02  0.36181262970E+02  0.00000000000E+00 0.  1.
</event>
<event>
 7    1  0.2647566E-010  0.4778727E+02  0.7816164E-02  0.1312668E+00
        -11   -1    0    0    0    0  0.00000000000E+00  0.00000000000E+00  0.45593999997E+02  0.45594000000E+02  0.51100000000E-03 0.  1.
         11   -1    0    0    0    0 -0.00000000000E+00 -0.00000000000E+00 -0.45593999997E+02  0.45594000000E+02  0.51100000000E-03 0. -1.
    9900012    2    1    2    0    0  0.70154232901E+01  0.39656030535E+02  0.16180439270E+02  0.47787268017E+02  0.19999986196E+02 0.  0.
         12    1    1    2    0    0 -0.70154232901E+01 -0.39656030535E+02 -0.16180439270E+02  0.43400731983E+02  0.00000000000E+00 0. -1.
         11    1    3    3    0    0  0.30050008184E+00 -0.17519104981E+00  0.40434250968E+01  0.40583591484E+01  0.51100000000E-03 0. -1.
        -11    1    3    3    0    0  0.41883770221E+01  0.11880242703E+02  0.90159397641E+01  0.15490959908E+02  0.51100000000E-03 0.  1.
        -12    1    3    3    0    0  0.25265461861E+01  0.27950978881E+02  0.31210744089E+01  0.28237948961E+02  0.00000000000E+00 0.  1.
</event>
<event>
 7    1  0.2647566E-010  0.4778727E+02  0.7816164E-02  0.1312668E+00
        -11   -1    0    0    0    0  0.00000000000E+00  0.00000000000E+00  0.45593999997E+02  0.45594000000E+02  0.51100000000E-03 0.  1.
         11   -1    0    0    0    0 -0.00000000000E+00 -0.00000000000E+00 -0.45593999997E+02  0.45594000000E+02  0.51100000000E-03 0. -1.
    9900012    2    1    2    0    0  0.70129381999E+00  0.31635661806E+02  0.29703813495E+02  0.47787269049E+02  0.19999990901E+02 0.  0.
         12    1    1    2    0    0 -0.70129381999E+00 -0.31635661806E+02 -0.29703813495E+02  0.43400730951E+02  0.00000000000E+00 0. -1.
         11    1    3    3    0    0 -0.27864718682E+01  0.55898810332E+01  0.15190725982E+01  0.64279683616E+01  0.51100000000E-03 0. -1.
        -11    1    3    3    0    0 -0.15778101044E+01  0.16263826581E+02  0.25046362556E+02  0.29905213882E+02  0.51100000000E-03 0.  1.
         12    1    3    3    0    0  0.50655757926E+01  0.97819541924E+01  0.31383783408E+01  0.11454086805E+02  0.00000000000E+00 0. -1.
</event>
<event>
 7    1  0.2647566E-010  0.4778728E+02  0.7816164E-02  0.1312668E+00
        -11   -1    0    0    0    0  0.00000000000E+00  0.00000000000E+00  0.45593999997E+02  0.45594000000E+02  0.51100000000E-03 0.  1.
         11   -1    0    0    0    0 -0.00000000000E+00 -0.00000000000E+00 -0.45593999997E+02  0.45594000000E+02  0.51100000000E-03 0. -1.
    9900012    2    1    2    0    0 -0.29728873925E+01  0.27346469421E+02  0.33570155603E+02  0.47787276544E+02  0.20000025076E+02 0.  0.
         12    1    1    2    0    0  0.29728873925E+01 -0.27346469421E+02 -0.33570155603E+02  0.43400723456E+02  0.00000000000E+00 0. -1.
         11    1    3    3    0    0  0.34937246578E+00  0.91865487797E+01  0.27484353951E+01  0.95952403297E+01  0.51100000000E-03 0. -1.
        -11    1    3    3    0    0  0.24709420182E+01  0.17881285887E+01  0.28617851532E+00  0.30634713498E+01  0.51100000000E-03 0.  1.
        -12    1    3    3    0    0 -0.57932018765E+01  0.16371792053E+02  0.30535541693E+02  0.35128564865E+02  0.00000000000E+00 0.  1.
</event>
<event>
 7    1  0.2647566E-010  0.4778727E+02  0.7816164E-02  0.1312668E+00
        -11   -1    0    0    0    0  0.00000000000E+00  0.00000000000E+00  0.45593999997E+02  0.45594000000E+02  0.51100000000E-03 0.  1.
         11   -1    0    0    0    0 -0.00000000000E+00 -0.00000000000E+00 -0.45593999997E+02  0.45594000000E+02  0.51100000000E-03 0. -1.
    9900012    2    1    2    0    0 -0.14673490198E+02  0.10407763028E+02  0.39496717459E+02  0.47787268026E+02  0.19999986237E+02 0.  0.
         12    1    1    2    0    0  0.14673490198E+02 -0.10407763028E+02 -0.39496717459E+02  0.43400731974E+02  0.00000000000E+00 0. -1.
         11    1    3    3    0    0 -0.63607258131E+01  0.38566184982E+01  0.25657317289E+02  0.26713859134E+02  0.51100000000E-03 0. -1.
        -11    1    3    3    0    0 -0.78613776087E+01  0.25535209821E+01  0.14786899738E+02  0.16940310843E+02  0.51100000000E-03 0.  1.
         12    1    3    3    0    0 -0.45138677581E+00  0.39976235477E+01 -0.94749956803E+00  0.41330980489E+01  0.00000000000E+00 0. -1.
</event>
<event>
 7    1  0.2647566E-010  0.4778727E+02  0.7816164E-02  0.1312668E+00
        -11   -1    0    0    0    0  0.00000000000E+00  0.00000000000E+00  0.45593999997E+02  0.45594000000E+02  0.51100000000E-03 0.  1.
         11   -1    0    0    0    0 -0.00000000000E+00 -0.00000000000E+00 -0.45593999997E+02  0.45594000000E+02  0.51100000000E-03 0. -1.
    9900012    2    1    2    0    0 -0.26454170210E+02 -0.31641480602E+02  0.13513586321E+02  0.47787269229E+02  0.19999991723E+02 0.  0.
         12    1    1    2    0    0  0.26454170210E+02  0.31641480602E+02 -0.13513586321E+02  0.43400730771E+02  0.00000000000E+00 0. -1.
         11    1    3    3    0    0  0.51827069593E+00 -0.61863435551E+01 -0.46862019133E+00  0.62256771712E+01  0.51100000000E-03 0. -1.
        -11    1    3    3    0    0 -0.92770132391E+01 -0.16979993406E+02  0.88761188206E+01  0.21287757897E+02  0.51100000000E-03 0.  1.
        -12    1    3    3    0    0 -0.17695427667E+02 -0.84751436410E+01  0.51060876915E+01  0.20273834161E+02  0.00000000000E+00 0.  1.
</event>
<event>
 7    1  0.2647566E-010  0.4778725E+02  0.7816164E-02  0.1312668E+00
        -11   -1    0    0    0    0  0.00000000000E+00  0.00000000000E+00  0.45593999997E+02  0.45594000000E+02  0.51100000000E-03 0.  1.
         11   -1    0    0    0    0 -0.00000000000E+00 -0.00000000000E+00 -0.45593999997E+02  0.45594000000E+02  0.51100000000E-03 0. -1.
    9900012    2    1    2    0    0 -0.17813315196E+02  0.81365503284E+01  0.38731219043E+02  0.47787251411E+02  0.19999910485E+02 0.  0.
         12    1    1    2    0    0  0.17813315196E+02 -0.81365503284E+01 -0.38731219043E+02  0.43400748589E+02  0.00000000000E+00 0. -1.
         11    1    3    3    0    0  0.16030975473E+00  0.74082178834E+00  0.62601088541E+01  0.63058289912E+01  0.51100000000E-03 0. -1.
        -11    1    3    3    0    0 -0.19444520756E+02  0.71545958853E+01  0.33693241917E+02  0.39553914861E+02  0.51100000000E-03 0.  1.
         12    1    3    3    0    0  0.14708958059E+01  0.24113265476E+00 -0.12221317281E+01  0.19275075589E+01  0.00000000000E+00 0. -1.
</event>
<event>
 7    1  0.2647566E-010  0.4778724E+02  0.7816164E-02  0.1312668E+00
        -11   -1    0    0    0    0  0.00000000000E+00  0.00000000000E+00  0.45593999997E+02  0.45594000000E+02  0.51100000000E-03 0.  1.
         11   -1    0    0    0    0 -0.00000000000E+00 -0.00000000000E+00 -0.45593999997E+02  0.45594000000E+02  0.51100000000E-03 0. -1.
    9900012    2    1    2    0    0 -0.18212895966E+01 -0.16769182788E+02  0.39988788154E+02  0.47787242343E+02  0.19999869139E+02 0.  0.
         12    1    1    2    0    0  0.18212895966E+01  0.16769182788E+02 -0.39988788154E+02  0.43400757657E+02  0.00000000000E+00 0. -1.
         11    1    3    3    0    0  0.51439914091E+01 -0.58660368080E+01  0.94616391541E+01  0.12263508927E+02  0.51100000000E-03 0. -1.
        -11    1    3    3    0    0  0.24227760567E+01 -0.77085524078E+01  0.16144509909E+02  0.18053720517E+02  0.51100000000E-03 0.  1.
         12    1    3    3    0    0 -0.93880570624E+01 -0.31945935723E+01  0.14382639091E+02  0.17470012900E+02  0.00000000000E+00 0. -1.
</event>
<event>
 7    1  0.2647566E-010  0.4778727E+02  0.7816164E-02  0.1312668E+00
        -11   -1    0    0    0    0  0.00000000000E+00  0.00000000000E+00  0.45593999997E+02  0.45594000000E+02  0.51100000000E-03 0.  1.
         11   -1    0    0    0    0 -0.00000000000E+00 -0.00000000000E+00 -0.45593999997E+02  0.45594000000E+02  0.51100000000E-03 0. -1.
    9900012    2    1    2    0    0 -0.21289347584E+02  0.27326545141E+02  0.26146638631E+02  0.47787273030E+02  0.20000009052E+02 0.  0.
         12    1    1    2    0    0  0.21289347584E+02 -0.27326545141E+02 -0.26146638631E+02  0.43400726970E+02  0.00000000000E+00 0. -1.
         11    1    3    3    0    0 -0.20854373593E+02  0.16486061038E+02  0.15307855420E+02  0.30676139658E+02  0.51100000000E-03 0. -1.
        -11    1    3    3    0    0 -0.36395737046E+01  0.62161453775E+01  0.81451294024E+01  0.10873366238E+02  0.51100000000E-03 0.  1.
         12    1    3    3    0    0  0.32045997139E+01  0.46243387257E+01  0.26936538084E+01  0.62377671339E+01  0.00000000000E+00 0. -1.
</event>
<event>
 7    1  0.2647566E-010  0.4778727E+02  0.7816164E-02  0.1312668E+00
        -11   -1    0    0    0    0  0.00000000000E+00  0.00000000000E+00  0.45593999997E+02  0.45594000000E+02  0.51100000000E-03 0. -1.
         11   -1    0    0    0    0 -0.00000000000E+00 -0.00000000000E+00 -0.45593999997E+02  0.45594000000E+02  0.51100000000E-03 0.  1.
    9900012    2    1    2    0    0 -0.32214713033E+02 -0.17829545919E+02 -0.22977006549E+02  0.47787271049E+02  0.20000000022E+02 0.  0.
         12    1    1    2    0    0  0.32214713033E+02  0.17829545919E+02  0.22977006549E+02  0.43400728951E+02  0.00000000000E+00 0. -1.
         11    1    3    3    0    0 -0.22834196144E+01 -0.60811994488E+00 -0.21804743017E+01  0.32153201153E+01  0.51100000000E-03 0.  1.
        -11    1    3    3    0    0  0.22564254716E+01 -0.31171065887E+01 -0.42366966133E+01  0.57234087612E+01  0.51100000000E-03 0. -1.
         12    1    3    3    0    0 -0.32187718890E+02 -0.14104319386E+02 -0.16559835634E+02  0.38848542173E+02  0.00000000000E+00 0. -1.
</event>
<event>
 7    1  0.2647566E-010  0.4778727E+02  0.7816164E-02  0.1312668E+00
        -11   -1    0    0    0    0  0.00000000000E+00  0.00000000000E+00  0.45593999997E+02  0.45594000000E+02  0.51100000000E-03 0. -1.
         11   -1    0    0    0    0 -0.00000000000E+00 -0.00000000000E+00 -0.45593999997E+02  0.45594000000E+02  0.51100000000E-03 0.  1.
    9900012    2    1    2    0    0  0.16267923801E+02 -0.26837315752E+02 -0.29978934657E+02  0.47787269767E+02  0.19999994176E+02 0.  0.
         12    1    1    2    0    0 -0.16267923801E+02  0.26837315752E+02  0.29978934657E+02  0.43400730233E+02  0.00000000000E+00 0. -1.
         11    1    3    3    0    0  0.39608252686E+01 -0.14842461336E+02 -0.31354191199E+01  0.15678572915E+02  0.51100000000E-03 0. -1.
        -11    1    3    3    0    0  0.56451131920E+01 -0.52704672793E+01 -0.86213786296E+01  0.11574683496E+02  0.51100000000E-03 0.  1.
         12    1    3    3    0    0  0.66619853404E+01 -0.67243871362E+01 -0.18222136908E+02  0.20534013357E+02  0.00000000000E+00 0. -1.
</event>
<event>
 7    1  0.2647566E-010  0.4778727E+02  0.7816164E-02  0.1312668E+00
        -11   -1    0    0    0    0  0.00000000000E+00  0.00000000000E+00  0.45593999997E+02  0.45594000000E+02  0.51100000000E-03 0.  1.
         11   -1    0    0    0    0 -0.00000000000E+00 -0.00000000000E+00 -0.45593999997E+02  0.45594000000E+02  0.51100000000E-03 0. -1.
    9900012    2    1    2    0    0  0.26490671222E+02 -0.33491363418E+02 -0.77586261716E+01  0.47787269990E+02  0.19999995192E+02 0.  0.
         12    1    1    2    0    0 -0.26490671222E+02  0.33491363418E+02  0.77586261716E+01  0.43400730010E+02  0.00000000000E+00 0. -1.
         11    1    3    3    0    0  0.66934763777E-01 -0.64672413053E+01  0.20070844474E+01  0.67718593166E+01  0.51100000000E-03 0. -1.
        -11    1    3    3    0    0 -0.66252529028E+00 -0.46271520417E+01 -0.15093301232E+01  0.49119806046E+01  0.51100000000E-03 0.  1.
        -12    1    3    3    0    0  0.27086261748E+02 -0.22396970070E+02 -0.82563804958E+01  0.36103430069E+02  0.00000000000E+00 0.  1.
</event>
<event>
 7    1  0.2647566E-010  0.4778729E+02  0.7816164E-02  0.1312668E+00
        -11   -1    0    0    0    0  0.00000000000E+00  0.00000000000E+00  0.45593999997E+02  0.45594000000E+02  0.51100000000E-03 0. -1.
         11   -1    0    0    0    0 -0.00000000000E+00 -0.00000000000E+00 -0.45593999997E+02  0.45594000000E+02  0.51100000000E-03 0.  1.
    9900012    2    1    2    0    0  0.28177912345E+02  0.78193088777E+01 -0.32070007302E+02  0.47787289133E+02  0.20000082471E+02 0.  0.
         12    1    1    2    0    0 -0.28177912345E+02 -0.78193088777E+01  0.32070007302E+02  0.43400710867E+02  0.00000000000E+00 0. -1.
         11    1    3    3    0    0  0.11630266443E+02  0.41030393279E+01 -0.21489443880E+02  0.24776888986E+02  0.51100000000E-03 0. -1.
        -11    1    3    3    0    0  0.10747196211E+02  0.72545835070E+01 -0.96263768133E+01  0.16149251966E+02  0.51100000000E-03 0.  1.
         12    1    3    3    0    0  0.58004496907E+01 -0.35383139572E+01 -0.95418660865E+00  0.68611481807E+01  0.00000000000E+00 0. -1.
</event>
<event>
 7    1  0.2647566E-010  0.4778727E+02  0.7816164E-02  0.1312668E+00
        -11   -1    0    0    0    0  0.00000000000E+00  0.00000000000E+00  0.45593999997E+02  0.45594000000E+02  0.51100000000E-03 0.  1.
         11   -1    0    0    0    0 -0.00000000000E+00 -0.00000000000E+00 -0.45593999997E+02  0.45594000000E+02  0.51100000000E-03 0. -1.
    9900012    2    1    2    0    0  0.25532554787E+02  0.18679211037E+02  0.29711931591E+02  0.47787272382E+02  0.20000006101E+02 0.  0.
         12    1    1    2    0    0 -0.25532554787E+02 -0.18679211037E+02 -0.29711931591E+02  0.43400727618E+02  0.00000000000E+00 0. -1.
         11    1    3    3    0    0  0.89276168580E+01  0.11441149642E+02  0.14488533422E+02  0.20506580624E+02  0.51100000000E-03 0. -1.
        -11    1    3    3    0    0  0.70639924842E+01  0.19884506435E+01  0.14638752662E+02  0.16375194825E+02  0.51100000000E-03 0.  1.
        -12    1    3    3    0    0  0.95409454445E+01  0.52496107512E+01  0.58464550636E+00  0.10905496934E+02  0.00000000000E+00 0.  1.
</event>
<event>
 7    1  0.2647566E-010  0.4778727E+02  0.7816164E-02  0.1312668E+00
        -11   -1    0    0    0    0  0.00000000000E+00  0.00000000000E+00  0.45593999997E+02  0.45594000000E+02  0.51100000000E-03 0.  1.
         11   -1    0    0    0    0 -0.00000000000E+00 -0.00000000000E+00 -0.45593999997E+02  0.45594000000E+02  0.51100000000E-03 0. -1.
    9900012    2    1    2    0    0 -0.12438651732E+02  0.15773748669E+02  0.38471966068E+02  0.47787269855E+02  0.19999994579E+02 0.  0.
         12    1    1    2    0    0  0.12438651732E+02 -0.15773748669E+02 -0.38471966068E+02  0.43400730145E+02  0.00000000000E+00 0. -1.
         11    1    3    3    0    0 -0.43163195252E+01  0.76467735237E+01  0.11538815179E+02  0.14499931571E+02  0.51100000000E-03 0. -1.
        -11    1    3    3    0    0 -0.10577278956E+02  0.54675009113E+01  0.27165702464E+02  0.29660542594E+02  0.51100000000E-03 0.  1.
         12    1    3    3    0    0  0.24549467500E+01  0.26594742338E+01 -0.23255157549E+00  0.36267956905E+01  0.00000000000E+00 0. -1.
</event>
<event>
 7    1  0.2647566E-010  0.4778727E+02  0.7816164E-02  0.1312668E+00
        -11   -1    0    0    0    0  0.00000000000E+00  0.00000000000E+00  0.45593999997E+02  0.45594000000E+02  0.51100000000E-03 0.  1.
         11   -1    0    0    0    0 -0.00000000000E+00 -0.00000000000E+00 -0.45593999997E+02  0.45594000000E+02  0.51100000000E-03 0. -1.
    9900012    2    1    2    0    0  0.27729100551E+02 -0.22419396641E+02  0.24740471561E+02  0.47787270788E+02  0.19999998829E+02 0.  0.
         12    1    1    2    0    0 -0.27729100551E+02  0.22419396641E+02 -0.24740471561E+02  0.43400729212E+02  0.00000000000E+00 0. -1.
         11    1    3    3    0    0  0.17181712098E+01 -0.57832396743E+01 -0.58547327447E-01  0.60333573976E+01  0.51100000000E-03 0. -1.
        -11    1    3    3    0    0  0.94948449434E+01 -0.13202784209E+02  0.15621397309E+02  0.22549803669E+02  0.51100000000E-03 0.  1.
        -12    1    3    3    0    0  0.16516084398E+02 -0.34333727580E+01  0.91776215794E+01  0.19204109722E+02  0.00000000000E+00 0.  1.
</event>
<event>
 7    1  0.2647566E-010  0.4778727E+02  0.7816164E-02  0.1312668E+00
        -11   -1    0    0    0    0  0.00000000000E+00  0.00000000000E+00  0.45593999997E+02  0.45594000000E+02  0.51100000000E-03 0.  1.
         11   -1    0    0    0    0 -0.00000000000E+00 -0.00000000000E+00 -0.45593999997E+02  0.45594000000E+02  0.51100000000E-03 0. -1.
    9900012    2    1    2    0    0 -0.29707744365E+02 -0.19622374931E+02  0.24820057748E+02  0.47787274894E+02  0.20000017550E+02 0.  0.
         12    1    1    2    0    0  0.29707744365E+02  0.19622374931E+02 -0.24820057748E+02  0.43400725106E+02  0.00000000000E+00 0. -1.
         11    1    3    3    0    0 -0.64740848216E+01 -0.66390613699E+01  0.15779004907E+02  0.18302128462E+02  0.51100000000E-03 0. -1.
        -11    1    3    3    0    0  0.45300886278E+00  0.46271469841E+00  0.79892136207E+00  0.10283956076E+01  0.51100000000E-03 0.  1.
        -12    1    3    3    0    0 -0.23686668406E+02 -0.13446028259E+02  0.82421314791E+01  0.28456750824E+02  0.00000000000E+00 0.  1.
</event>
<event>
 7    1  0.2647566E-010  0.4778727E+02  0.7816164E-02  0.1312668E+00
        -11   -1    0    0    0    0  0.00000000000E+00  0.00000000000E+00  0.45593999997E+02  0.45594000000E+02  0.51100000000E-03 0.  1.
         11   -1    0    0    0    0 -0.00000000000E+00 -0.00000000000E+00 -0.45593999997E+02  0.45594000000E+02  0.51100000000E-03 0. -1.
    9900012    2    1    2    0    0  0.31812987455E+02  0.77913664625E+01  0.28475461043E+02  0.47787269087E+02  0.19999991075E+02 0.  0.
         12    1    1    2    0    0 -0.31812987455E+02 -0.77913664625E+01 -0.28475461043E+02  0.43400730913E+02  0.00000000000E+00 0. -1.
         11    1    3    3    0    0  0.13719474694E+02  0.15799458640E+01  0.49807253489E+01  0.14680866462E+02  0.51100000000E-03 0. -1.
        -11    1    3    3    0    0 -0.60433743945E+00 -0.88735574946E+00 -0.10113376150E+01  0.14749332187E+01  0.51100000000E-03 0.  1.
        -12    1    3    3    0    0  0.18697850200E+02  0.70987763480E+01  0.24506073309E+02  0.31631469406E+02  0.00000000000E+00 0.  1.
</event>
<event>
 7    1  0.2647566E-010  0.4778727E+02  0.7816164E-02  0.1312668E+00
        -11   -1    0    0    0    0  0.00000000000E+00  0.00000000000E+00  0.45593999997E+02  0.45594000000E+02  0.51100000000E-03 0.  1.
         11   -1    0    0    0    0 -0.00000000000E+00 -0.00000000000E+00 -0.45593999997E+02  0.45594000000E+02  0.51100000000E-03 0. -1.
    9900012    2    1    2    0    0 -0.34066358043E+02  0.14599236911E+01  0.26850985274E+02  0.47787268005E+02  0.19999986141E+02 0.  0.
         12    1    1    2    0    0  0.34066358043E+02 -0.14599236911E+01 -0.26850985274E+02  0.43400731995E+02  0.00000000000E+00 0. -1.
         11    1    3    3    0    0 -0.99394087386E+01  0.40582925117E+01  0.15301957040E+02  0.18692551289E+02  0.51100000000E-03 0. -1.
        -11    1    3    3    0    0 -0.15272923346E+02  0.68338333577E+00  0.12300486507E+02  0.19622211111E+02  0.51100000000E-03 0.  1.
         12    1    3    3    0    0 -0.88540259589E+01 -0.32817521563E+01 -0.75145827265E+00  0.94725056047E+01  0.00000000000E+00 0. -1.
</event>
<event>
 7    1  0.2647566E-010  0.4778727E+02  0.7816164E-02  0.1312668E+00
        -11   -1    0    0    0    0  0.00000000000E+00  0.00000000000E+00  0.45593999997E+02  0.45594000000E+02  0.51100000000E-03 0.  1.
         11   -1    0    0    0    0 -0.00000000000E+00 -0.00000000000E+00 -0.45593999997E+02  0.45594000000E+02  0.51100000000E-03 0. -1.
    9900012    2    1    2    0    0 -0.14988838033E+02  0.14149763619E+02  0.38193488885E+02  0.47787266489E+02  0.19999979231E+02 0.  0.
         12    1    1    2    0    0  0.14988838033E+02 -0.14149763619E+02 -0.38193488885E+02  0.43400733511E+02  0.00000000000E+00 0. -1.
         11    1    3    3    0    0 -0.82908863119E+01  0.43493769685E+01  0.71664404428E+01  0.11790409015E+02  0.51100000000E-03 0. -1.
        -11    1    3    3    0    0 -0.61525281142E+01  0.13019245266E+02  0.21088661535E+02  0.25535974528E+02  0.51100000000E-03 0.  1.
         12    1    3    3    0    0 -0.54542360701E+00 -0.32188586158E+01  0.99383869075E+01  0.10460882947E+02  0.00000000000E+00 0. -1.
</event>
<event>
 7    1  0.2647566E-010  0.4778727E+02  0.7816164E-02  0.1312668E+00
        -11   -1    0    0    0    0  0.00000000000E+00  0.00000000000E+00  0.45593999997E+02  0.45594000000E+02  0.51100000000E-03 0.  1.
         11   -1    0    0    0    0 -0.00000000000E+00 -0.00000000000E+00 -0.45593999997E+02  0.45594000000E+02  0.51100000000E-03 0. -1.
    9900012    2    1    2    0    0 -0.19220872789E+02 -0.23472204159E+02  0.31036058308E+02  0.47787271502E+02  0.20000002088E+02 0.  0.
         12    1    1    2    0    0  0.19220872789E+02  0.23472204159E+02 -0.31036058308E+02  0.43400728498E+02  0.00000000000E+00 0. -1.
         11    1    3    3    0    0 -0.47333278725E+01 -0.13226118614E+02  0.12737547601E+02  0.18962587521E+02  0.51100000000E-03 0. -1.
        -11    1    3    3    0    0 -0.60494314837E+01 -0.89629912620E+01  0.28621528657E+01  0.11185828218E+02  0.51100000000E-03 0.  1.
         12    1    3    3    0    0 -0.84381134326E+01 -0.12830942826E+01  0.15436357841E+02  0.17638855763E+02  0.00000000000E+00 0. -1.
</event>
<event>
 7    1  0.2647566E-010  0.4778727E+02  0.7816164E-02  0.1312668E+00
        -11   -1    0    0    0    0  0.00000000000E+00  0.00000000000E+00  0.45593999997E+02  0.45594000000E+02  0.51100000000E-03 0.  1.
         11   -1    0    0    0    0 -0.00000000000E+00 -0.00000000000E+00 -0.45593999997E+02  0.45594000000E+02  0.51100000000E-03 0. -1.
    9900012    2    1    2    0    0  0.29576282697E+02  0.15627043981E+02  0.27652536397E+02  0.47787265317E+02  0.19999973888E+02 0.  0.
         12    1    1    2    0    0 -0.29576282697E+02 -0.15627043981E+02 -0.27652536397E+02  0.43400734683E+02  0.00000000000E+00 0. -1.
         11    1    3    3    0    0  0.29714298422E+01  0.61893501759E+01  0.48067346299E+01  0.83810589408E+01  0.51100000000E-03 0. -1.
        -11    1    3    3    0    0  0.19716078427E+02  0.13209807619E+02  0.13905600628E+02  0.27506153765E+02  0.51100000000E-03 0.  1.
         12    1    3    3    0    0  0.68887744283E+01 -0.37721138135E+01  0.89402011393E+01  0.11900052612E+02  0.00000000000E+00 0. -1.
</event>
<event>
 7    1  0.2647566E-010  0.4778728E+02  0.7816164E-02  0.1312668E+00
        -11   -1    0    0    0    0  0.00000000000E+00  0.00000000000E+00  0.45593999997E+02  0.45594000000E+02  0.51100000000E-03 0. -1.
         11   -1    0    0    0    0 -0.00000000000E+00 -0.00000000000E+00 -0.45593999997E+02  0.45594000000E+02  0.51100000000E-03 0.  1.
    9900012    2    1    2    0    0 -0.17257757248E+02  0.13468400646E+02 -0.37475248331E+02  0.47787282971E+02  0.20000054376E+02 0.  0.
         12    1    1    2    0    0  0.17257757248E+02 -0.13468400646E+02  0.37475248331E+02  0.43400717029E+02  0.00000000000E+00 0. -1.
         11    1    3    3    0    0 -0.84918205414E+01  0.69476400774E+01 -0.36506478734E+01  0.11563215336E+02  0.51100000000E-03 0. -1.
        -11    1    3    3    0    0 -0.59475022099E+01  0.54478768688E+01 -0.13883892999E+02  0.16056607050E+02  0.51100000000E-03 0.  1.
         12    1    3    3    0    0 -0.28184344971E+01  0.10728836996E+01 -0.19940707459E+02  0.20167460584E+02  0.00000000000E+00 0. -1.
</event>
<event>
 7    1  0.2647566E-010  0.4778727E+02  0.7816164E-02  0.1312668E+00
        -11   -1    0    0    0    0  0.00000000000E+00  0.00000000000E+00  0.45593999997E+02  0.45594000000E+02  0.51100000000E-03 0. -1.
         11   -1    0    0    0    0 -0.00000000000E+00 -0.00000000000E+00 -0.45593999997E+02  0.45594000000E+02  0.51100000000E-03 0.  1.
    9900012    2    1    2    0    0 -0.30638661014E+02  0.20275256439E+02 -0.23104327164E+02  0.47787268369E+02  0.19999987802E+02 0.  0.
         12    1    1    2    0    0  0.30638661014E+02 -0.20275256439E+02  0.23104327164E+02  0.43400731631E+02  0.00000000000E+00 0. -1.
         11    1    3    3    0    0 -0.82826967003E+01  0.10438005460E+02 -0.81980361623E+01  0.15644897564E+02  0.51100000000E-03 0. -1.
        -11    1    3    3    0    0 -0.16441429382E+02  0.13631043966E+02 -0.10069429564E+02  0.23611848122E+02  0.51100000000E-03 0.  1.
         12    1    3    3    0    0 -0.59145349316E+01 -0.37937929866E+01 -0.48368614372E+01  0.85305226830E+01  0.00000000000E+00 0. -1.
</event>
<event>
 7    1  0.2647566E-010  0.4778727E+02  0.7816164E-02  0.1312668E+00
        -11   -1    0    0    0    0  0.00000000000E+00  0.00000000000E+00  0.45593999997E+02  0.45594000000E+02  0.51100000000E-03 0.  1.
         11   -1    0    0    0    0 -0.00000000000E+00 -0.00000000000E+00 -0.45593999997E+02  0.45594000000E+02  0.51100000000E-03 0. -1.
    9900012    2    1    2    0    0  0.27154328628E+02  0.23454917962E+02  0.24415824040E+02  0.47787271856E+02  0.20000003702E+02 0.  0.
         12    1    1    2    0    0 -0.27154328628E+02 -0.23454917962E+02 -0.24415824040E+02  0.43400728144E+02  0.00000000000E+00 0. -1.
         11    1    3    3    0    0  0.17279195474E+02  0.12986508418E+02  0.82275614818E+01  0.23128181193E+02  0.51100000000E-03 0. -1.
        -11    1    3    3    0    0  0.11375585312E+02  0.11932125962E+02  0.14706539552E+02  0.22092122510E+02  0.51100000000E-03 0.  1.
         12    1    3    3    0    0 -0.15004521581E+01 -0.14637164175E+01  0.14817230067E+01  0.25669681529E+01  0.00000000000E+00 0. -1.
</event>
<event>
 7    1  0.2647566E-010  0.4778727E+02  0.7816164E-02  0.1312668E+00
        -11   -1    0    0    0    0  0.00000000000E+00  0.00000000000E+00  0.45593999997E+02  0.45594000000E+02  0.51100000000E-03 0.  1.
         11   -1    0    0    0    0 -0.00000000000E+00 -0.00000000000E+00 -0.45593999997E+02  0.45594000000E+02  0.51100000000E-03 0. -1.
    9900012    2    1    2    0    0  0.18749964573E+02  0.38198796937E+02  0.85389652443E+01  0.47787272053E+02  0.20000004597E+02 0.  0.
         12    1    1    2    0    0 -0.18749964573E+02 -0.38198796937E+02 -0.85389652443E+01  0.43400727947E+02  0.00000000000E+00 0. -1.
         11    1    3    3    0    0  0.17488293159E+01  0.18685452989E-01  0.16163982767E+01  0.23814904518E+01  0.51100000000E-03 0. -1.
        -11    1    3    3    0    0  0.67423553527E+01  0.25449892604E+02 -0.26488536624E+01  0.26460778811E+02  0.51100000000E-03 0.  1.
        -12    1    3    3    0    0  0.10258779904E+02  0.12730218880E+02  0.95714206300E+01  0.18945002790E+02  0.00000000000E+00 0.  1.
</event>
<event>
 7    1  0.2647566E-010  0.4778729E+02  0.7816164E-02  0.1312668E+00
        -11   -1    0    0    0    0  0.00000000000E+00  0.00000000000E+00  0.45593999997E+02  0.45594000000E+02  0.51100000000E-03 0. -1.
         11   -1    0    0    0    0 -0.00000000000E+00 -0.00000000000E+00 -0.45593999997E+02  0.45594000000E+02  0.51100000000E-03 0.  1.
    9900012    2    1    2    0    0  0.31501772187E+02 -0.26471874114E+02  0.13802156420E+02  0.47787293878E+02  0.20000104109E+02 0.  0.
         12    1    1    2    0    0 -0.31501772187E+02  0.26471874114E+02 -0.13802156420E+02  0.43400706122E+02  0.00000000000E+00 0. -1.
         11    1    3    3    0    0  0.14331268760E+02 -0.46244035655E+01  0.14020302099E+01  0.15124022666E+02  0.51100000000E-03 0. -1.
        -11    1    3    3    0    0  0.16207587896E+02 -0.11614775004E+02  0.80985112421E+01  0.21521495961E+02  0.51100000000E-03 0.  1.
        -12    1    3    3    0    0  0.96291553001E+00 -0.10232695544E+02  0.43016149684E+01  0.11141775251E+02  0.00000000000E+00 0.  1.
</event>
<event>
 7    1  0.2647566E-010  0.4778729E+02  0.7816164E-02  0.1312668E+00
        -11   -1    0    0    0    0  0.00000000000E+00  0.00000000000E+00  0.45593999997E+02  0.45594000000E+02  0.51100000000E-03 0.  1.
         11   -1    0    0    0    0 -0.00000000000E+00 -0.00000000000E+00 -0.45593999997E+02  0.45594000000E+02  0.51100000000E-03 0. -1.
    9900012    2    1    2    0    0 -0.20321684603E+02 -0.16591018755E+02  0.34574398593E+02  0.47787287950E+02  0.20000077077E+02 0.  0.
         12    1    1    2    0    0  0.20321684603E+02  0.16591018755E+02 -0.34574398593E+02  0.43400712050E+02  0.00000000000E+00 0. -1.
         11    1    3    3    0    0  0.15107158145E+01  0.19740048819E+01  0.42438479037E+00  0.25217177196E+01  0.51100000000E-03 0. -1.
        -11    1    3    3    0    0 -0.82386332769E+00  0.76886049868E+00  0.17436199511E+01  0.20760799706E+01  0.51100000000E-03 0.  1.
        -12    1    3    3    0    0 -0.21008537090E+02 -0.19333884135E+02  0.32406393851E+02  0.43189490259E+02  0.00000000000E+00 0.  1.
</event>
<event>
 7    1  0.2647566E-010  0.4778727E+02  0.7816164E-02  0.1312668E+00
        -11   -1    0    0    0    0  0.00000000000E+00  0.00000000000E+00  0.45593999997E+02  0.45594000000E+02  0.51100000000E-03 0.  1.
         11   -1    0    0    0    0 -0.00000000000E+00 -0.00000000000E+00 -0.45593999997E+02  0.45594000000E+02  0.51100000000E-03 0. -1.
    9900012    2    1    2    0    0 -0.13256319257E+02  0.36486153483E+02  0.19407567754E+02  0.47787273251E+02  0.20000010061E+02 0.  0.
         12    1    1    2    0    0  0.13256319257E+02 -0.36486153483E+02 -0.19407567754E+02  0.43400726749E+02  0.00000000000E+00 0. -1.
         11    1    3    3    0    0  0.21536987337E+01 -0.10959069559E+00 -0.24400167873E-01  0.21566232831E+01  0.51100000000E-03 0. -1.
        -11    1    3    3    0    0 -0.58613043323E+00  0.10483811897E+02  0.13667053011E+01  0.10588755565E+02  0.51100000000E-03 0.  1.
        -12    1    3    3    0    0 -0.14823887557E+02  0.26111932281E+02  0.18065262621E+02  0.35041894403E+02  0.00000000000E+00 0.  1.
</event>
<event>
 7    1  0.2647566E-010  0.4778728E+02  0.7816164E-02  0.1312668E+00
        -11   -1    0    0    0    0  0.00000000000E+00  0.00000000000E+00  0.45593999997E+02  0.45594000000E+02  0.51100000000E-03 0. -1.
         11   -1    0    0    0    0 -0.00000000000E+00 -0.00000000000E+00 -0.45593999997E+02  0.45594000000E+02  0.51100000000E-03 0.  1.
    9900012    2    1    2    0    0 -0.37027193979E+02 -0.16094343336E+02  0.15924236526E+02  0.47787282376E+02  0.20000051664E+02 0.  0.
         12    1    1    2    0    0  0.37027193979E+02  0.16094343336E+02 -0.15924236526E+02  0.43400717624E+02  0.00000000000E+00 0. -1.
         11    1    3    3    0    0  0.14072473585E+00 -0.15078263730E+01 -0.21413155108E+01  0.26227039864E+01  0.51100000000E-03 0.  1.
        -11    1    3    3    0    0 -0.64699714626E+01  0.14355947520E+01  0.15804561418E+01  0.68131714271E+01  0.51100000000E-03 0. -1.
        -12    1    3    3    0    0 -0.30697947253E+02 -0.16022111715E+02  0.16485095895E+02  0.38351406962E+02  0.00000000000E+00 0.  1.
</event>
<event>
 7    1  0.2647566E-010  0.4778722E+02  0.7816164E-02  0.1312668E+00
        -11   -1    0    0    0    0  0.00000000000E+00  0.00000000000E+00  0.45593999997E+02  0.45594000000E+02  0.51100000000E-03 0.  1.
         11   -1    0    0    0    0 -0.00000000000E+00 -0.00000000000E+00 -0.45593999997E+02  0.45594000000E+02  0.51100000000E-03 0. -1.
    9900012    2    1    2    0    0  0.10409463356E-01 -0.39299151394E+02  0.18417495886E+02  0.47787221627E+02  0.19999774684E+02 0.  0.
         12    1    1    2    0    0 -0.10409463356E-01  0.39299151394E+02 -0.18417495886E+02  0.43400778373E+02  0.00000000000E+00 0. -1.
         11    1    3    3    0    0  0.87229257144E+01 -0.16080369650E+02  0.54315804230E+01  0.19083233144E+02  0.51100000000E-03 0. -1.
        -11    1    3    3    0    0 -0.61803729438E+00 -0.10521790852E+02  0.52277763152E+01  0.11765190109E+02  0.51100000000E-03 0.  1.
         12    1    3    3    0    0 -0.80944789566E+01 -0.12696990893E+02  0.77581391479E+01  0.16938798374E+02  0.00000000000E+00 0. -1.
</event>
<event>
 7    1  0.2647566E-010  0.4778727E+02  0.7816164E-02  0.1312668E+00
        -11   -1    0    0    0    0  0.00000000000E+00  0.00000000000E+00  0.45593999997E+02  0.45594000000E+02  0.51100000000E-03 0. -1.
         11   -1    0    0    0    0 -0.00000000000E+00 -0.00000000000E+00 -0.45593999997E+02  0.45594000000E+02  0.51100000000E-03 0.  1.
    9900012    2    1    2    0    0  0.40686277099E+02  0.15085524003E+02 -0.82278987415E+00  0.47787272335E+02  0.20000005886E+02 0.  0.
         12    1    1    2    0    0 -0.40686277099E+02 -0.15085524003E+02  0.82278987415E+00  0.43400727665E+02  0.00000000000E+00 0. -1.
         11    1    3    3    0    0  0.19105890193E+01  0.43307554151E+01 -0.42971599467E+01  0.63930725582E+01  0.51100000000E-03 0. -1.
        -11    1    3    3    0    0  0.12993988923E+02  0.81124255906E+01  0.79031394524E+00  0.15338832859E+02  0.51100000000E-03 0.  1.
         12    1    3    3    0    0  0.25781699157E+02  0.26423429970E+01  0.26840561273E+01  0.26055366918E+02  0.00000000000E+00 0. -1.
</event>
<event>
 7    1  0.2647566E-010  0.4778727E+02  0.7816164E-02  0.1312668E+00
        -11   -1    0    0    0    0  0.00000000000E+00  0.00000000000E+00  0.45593999997E+02  0.45594000000E+02  0.51100000000E-03 0.  1.
         11   -1    0    0    0    0 -0.00000000000E+00 -0.00000000000E+00 -0.45593999997E+02  0.45594000000E+02  0.51100000000E-03 0. -1.
    9900012    2    1    2    0    0 -0.94281767960E+00  0.68516074230E+01  0.42846119984E+02  0.47787269279E+02  0.19999991952E+02 0.  0.
         12    1    1    2    0    0  0.94281767960E+00 -0.68516074230E+01 -0.42846119984E+02  0.43400730721E+02  0.00000000000E+00 0. -1.
         11    1    3    3    0    0 -0.38788070580E+01  0.66878287718E+01  0.82572596285E+01  0.11311699019E+02  0.51100000000E-03 0. -1.
        -11    1    3    3    0    0  0.46059858772E+01  0.34722473948E+01  0.94967640048E+01  0.11111261616E+02  0.51100000000E-03 0.  1.
         12    1    3    3    0    0 -0.16699964988E+01 -0.33084687435E+01  0.25092096350E+02  0.25364308644E+02  0.00000000000E+00 0. -1.
</event>
<event>
 7    1  0.2647566E-010  0.4778727E+02  0.7816164E-02  0.1312668E+00
        -11   -1    0    0    0    0  0.00000000000E+00  0.00000000000E+00  0.45593999997E+02  0.45594000000E+02  0.51100000000E-03 0. -1.
         11   -1    0    0    0    0 -0.00000000000E+00 -0.00000000000E+00 -0.45593999997E+02  0.45594000000E+02  0.51100000000E-03 0.  1.
    9900012    2    1    2    0    0  0.97593366566E+01 -0.14823568729E+02 -0.39606065516E+02  0.47787271118E+02  0.20000000334E+02 0.  0.
         12    1    1    2    0    0 -0.97593366566E+01  0.14823568729E+02  0.39606065516E+02  0.43400728882E+02  0.00000000000E+00 0. -1.
         11    1    3    3    0    0 -0.19812098499E+01  0.79748345709E+00  0.25748295270E+00  0.21511555187E+01  0.51100000000E-03 0. -1.
        -11    1    3    3    0    0  0.89676442789E+00 -0.32849310097E+01 -0.17841948689E+02  0.18163977853E+02  0.51100000000E-03 0.  1.
        -12    1    3    3    0    0  0.10843782079E+02 -0.12336121177E+02 -0.22021599780E+02  0.27472137746E+02  0.00000000000E+00 0.  1.
</event>
<event>
 7    1  0.2647566E-010  0.4778728E+02  0.7816164E-02  0.1312668E+00
        -11   -1    0    0    0    0  0.00000000000E+00  0.00000000000E+00  0.45593999997E+02  0.45594000000E+02  0.51100000000E-03 0.  1.
         11   -1    0    0    0    0 -0.00000000000E+00 -0.00000000000E+00 -0.45593999997E+02  0.45594000000E+02  0.51100000000E-03 0. -1.
    9900012    2    1    2    0    0  0.39474576098E+02 -0.16559706031E+02  0.71524027421E+01  0.47787275503E+02  0.20000020327E+02 0.  0.
         12    1    1    2    0    0 -0.39474576098E+02  0.16559706031E+02 -0.71524027421E+01  0.43400724497E+02  0.00000000000E+00 0. -1.
         11    1    3    3    0    0  0.11682556329E+02 -0.32746181644E+00 -0.30416006141E+01  0.12076451804E+02  0.51100000000E-03 0. -1.
        -11    1    3    3    0    0  0.13159165420E+02 -0.10740694581E+02 -0.11735627554E+00  0.16986463063E+02  0.51100000000E-03 0.  1.
        -12    1    3    3    0    0  0.14632854349E+02 -0.54915496335E+01  0.10311359632E+02  0.18724360636E+02  0.00000000000E+00 0.  1.
</event>
<event>
 7    1  0.2647566E-010  0.4778727E+02  0.7816164E-02  0.1312668E+00
        -11   -1    0    0    0    0  0.00000000000E+00  0.00000000000E+00  0.45593999997E+02  0.45594000000E+02  0.51100000000E-03 0.  1.
         11   -1    0    0    0    0 -0.00000000000E+00 -0.00000000000E+00 -0.45593999997E+02  0.45594000000E+02  0.51100000000E-03 0. -1.
    9900012    2    1    2    0    0 -0.40544017315E+02 -0.95063413550E+01  0.12224378773E+02  0.47787270716E+02  0.19999998502E+02 0.  0.
         12    1    1    2    0    0  0.40544017315E+02  0.95063413550E+01 -0.12224378773E+02  0.43400729284E+02  0.00000000000E+00 0. -1.
         11    1    3    3    0    0 -0.29302714918E+02  0.78408055057E-01  0.10467629782E+02  0.31116338520E+02  0.51100000000E-03 0. -1.
        -11    1    3    3    0    0 -0.91321933691E+01 -0.30322864337E+01  0.25690283529E+00  0.96258878071E+01  0.51100000000E-03 0.  1.
        -12    1    3    3    0    0 -0.21091090280E+01 -0.65524629764E+01  0.14998461558E+01  0.70450443888E+01  0.00000000000E+00 0.  1.
</event>
<event>
 7    1  0.2647566E-010  0.4778727E+02  0.7816164E-02  0.1312668E+00
        -11   -1    0    0    0    0  0.00000000000E+00  0.00000000000E+00  0.45593999997E+02  0.45594000000E+02  0.51100000000E-03 0.  1.
         11   -1    0    0    0    0 -0.00000000000E+00 -0.00000000000E+00 -0.45593999997E+02  0.45594000000E+02  0.51100000000E-03 0. -1.
    9900012    2    1    2    0    0 -0.19825621495E+02 -0.38190542721E+02 -0.56613202402E+01  0.47787269962E+02  0.19999995063E+02 0.  0.
         12    1    1    2    0    0  0.19825621495E+02  0.38190542721E+02  0.56613202402E+01  0.43400730038E+02  0.00000000000E+00 0. -1.
         11    1    3    3    0    0 -0.99040331815E+00 -0.56940189776E+01 -0.74155045201E+00  0.58268900954E+01  0.51100000000E-03 0. -1.
        -11    1    3    3    0    0 -0.17986540567E+02 -0.31640094852E+02 -0.91781116538E+01  0.37534637039E+02  0.51100000000E-03 0.  1.
         12    1    3    3    0    0 -0.84867760930E+00 -0.85642889126E+00  0.42583418655E+01  0.44257428274E+01  0.00000000000E+00 0. -1.
</event>
<event>
 7    1  0.2647566E-010  0.4778729E+02  0.7816164E-02  0.1312668E+00
        -11   -1    0    0    0    0  0.00000000000E+00  0.00000000000E+00  0.45593999997E+02  0.45594000000E+02  0.51100000000E-03 0.  1.
         11   -1    0    0    0    0 -0.00000000000E+00 -0.00000000000E+00 -0.45593999997E+02  0.45594000000E+02  0.51100000000E-03 0. -1.
    9900012    2    1    2    0    0 -0.32431514523E+02 -0.55385937333E+01 -0.28304454187E+02  0.47787293996E+02  0.20000104647E+02 0.  0.
         12    1    1    2    0    0  0.32431514523E+02  0.55385937333E+01  0.28304454187E+02  0.43400706004E+02  0.00000000000E+00 0. -1.
         11    1    3    3    0    0 -0.13161080695E+02  0.54064796786E+01 -0.95704989389E+01  0.17147551364E+02  0.51100000000E-03 0. -1.
        -11    1    3    3    0    0 -0.11977088695E+02 -0.16883166790E+01 -0.68371324959E+01  0.13894151570E+02  0.51100000000E-03 0.  1.
        -12    1    3    3    0    0 -0.72933451321E+01 -0.92567567329E+01 -0.11896822752E+02  0.16745591062E+02  0.00000000000E+00 0.  1.
</event>
<event>
 7    1  0.2647566E-010  0.4778726E+02  0.7816164E-02  0.1312668E+00
        -11   -1    0    0    0    0  0.00000000000E+00  0.00000000000E+00  0.45593999997E+02  0.45594000000E+02  0.51100000000E-03 0.  1.
         11   -1    0    0    0    0 -0.00000000000E+00 -0.00000000000E+00 -0.45593999997E+02  0.45594000000E+02  0.51100000000E-03 0. -1.
    9900012    2    1    2    0    0 -0.29030962085E+02  0.24263469990E+02  0.21262908107E+02  0.47787262718E+02  0.19999962034E+02 0.  0.
         12    1    1    2    0    0  0.29030962085E+02 -0.24263469990E+02 -0.21262908107E+02  0.43400737282E+02  0.00000000000E+00 0. -1.
         11    1    3    3    0    0 -0.12857529566E+02  0.48179910881E+01  0.27350656358E+01  0.14000346030E+02  0.51100000000E-03 0. -1.
        -11    1    3    3    0    0 -0.18085145072E+02  0.16444404280E+02  0.14534995075E+02  0.28438653036E+02  0.51100000000E-03 0.  1.
        -12    1    3    3    0    0  0.19117125526E+01  0.30010746217E+01  0.39928473955E+01  0.53482636521E+01  0.00000000000E+00 0.  1.
</event>
<event>
 7    1  0.2647566E-010  0.4778727E+02  0.7816164E-02  0.1312668E+00
        -11   -1    0    0    0    0  0.00000000000E+00  0.00000000000E+00  0.45593999997E+02  0.45594000000E+02  0.51100000000E-03 0.  1.
         11   -1    0    0    0    0 -0.00000000000E+00 -0.00000000000E+00 -0.45593999997E+02  0.45594000000E+02  0.51100000000E-03 0. -1.
    9900012    2    1    2    0    0  0.24013870494E+02  0.16893238306E+02  0.31962101935E+02  0.47787269168E+02  0.19999991447E+02 0.  0.
         12    1    1    2    0    0 -0.24013870494E+02 -0.16893238306E+02 -0.31962101935E+02  0.43400730832E+02  0.00000000000E+00 0. -1.
         11    1    3    3    0    0  0.41752773152E+01  0.26506355499E+01  0.17060674192E+01  0.52315844424E+01  0.51100000000E-03 0. -1.
        -11    1    3    3    0    0  0.14451961609E+02  0.18168231104E+02  0.22505260283E+02  0.32333118570E+02  0.51100000000E-03 0.  1.
         12    1    3    3    0    0  0.53866315700E+01 -0.39256283480E+01  0.77507742333E+01  0.10222566156E+02  0.00000000000E+00 0. -1.
</event>
<event>
 7    1  0.2647566E-010  0.4778722E+02  0.7816164E-02  0.1312668E+00
        -11   -1    0    0    0    0  0.00000000000E+00  0.00000000000E+00  0.45593999997E+02  0.45594000000E+02  0.51100000000E-03 0.  1.
         11   -1    0    0    0    0 -0.00000000000E+00 -0.00000000000E+00 -0.45593999997E+02  0.45594000000E+02  0.51100000000E-03 0. -1.
    9900012    2    1    2    0    0 -0.43267757085E+02  0.79299142037E+00  0.33014736375E+01  0.47787223892E+02  0.19999785014E+02 0.  0.
         12    1    1    2    0    0  0.43267757085E+02 -0.79299142037E+00 -0.33014736375E+01  0.43400776108E+02  0.00000000000E+00 0. -1.
         11    1    3    3    0    0 -0.11412095925E+02 -0.63869752101E+01 -0.14159490402E+01  0.13154250176E+02  0.51100000000E-03 0. -1.
        -11    1    3    3    0    0 -0.13624703782E+02 -0.36814592724E-01  0.62010498668E+01  0.14969533332E+02  0.51100000000E-03 0.  1.
        -12    1    3    3    0    0 -0.18230957378E+02  0.72167812232E+01 -0.14836271891E+01  0.19663440385E+02  0.00000000000E+00 0.  1.
</event>
<event>
 7    1  0.2647566E-010  0.4778727E+02  0.7816164E-02  0.1312668E+00
        -11   -1    0    0    0    0  0.00000000000E+00  0.00000000000E+00  0.45593999997E+02  0.45594000000E+02  0.51100000000E-03 0.  1.
         11   -1    0    0    0    0 -0.00000000000E+00 -0.00000000000E+00 -0.45593999997E+02  0.45594000000E+02  0.51100000000E-03 0. -1.
    9900012    2    1    2    0    0 -0.66527487228E+01  0.42626347978E+02  0.47284790117E+01  0.47787272802E+02  0.20000008015E+02 0.  0.
         12    1    1    2    0    0  0.66527487228E+01 -0.42626347978E+02 -0.47284790117E+01  0.43400727198E+02  0.00000000000E+00 0. -1.
         11    1    3    3    0    0 -0.91843988211E+00 -0.99234002067E+00 -0.84571153580E+00  0.15948350374E+01  0.51100000000E-03 0. -1.
        -11    1    3    3    0    0 -0.41610938715E+01  0.33344275817E+01 -0.74894893007E+00  0.53846108741E+01  0.51100000000E-03 0.  1.
        -12    1    3    3    0    0 -0.15732149692E+01  0.40284260417E+02  0.63231394775E+01  0.40807826891E+02  0.00000000000E+00 0.  1.
</event>
<event>
 7    1  0.2647566E-010  0.4778727E+02  0.7816164E-02  0.1312668E+00
        -11   -1    0    0    0    0  0.00000000000E+00  0.00000000000E+00  0.45593999997E+02  0.45594000000E+02  0.51100000000E-03 0. -1.
         11   -1    0    0    0    0 -0.00000000000E+00 -0.00000000000E+00 -0.45593999997E+02  0.45594000000E+02  0.51100000000E-03 0.  1.
    9900012    2    1    2    0    0 -0.30630041763E+02 -0.20632315399E+02 -0.22797612023E+02  0.47787274072E+02  0.20000013803E+02 0.  0.
         12    1    1    2    0    0  0.30630041763E+02  0.20632315399E+02  0.22797612023E+02  0.43400725928E+02  0.00000000000E+00 0. -1.
         11    1    3    3    0    0 -0.54610840611E+01 -0.59358069280E+01 -0.67853090835E+01  0.10540287597E+02  0.51100000000E-03 0. -1.
        -11    1    3    3    0    0 -0.13129829795E+02 -0.15649881665E+02 -0.14553943684E+02  0.25082434164E+02  0.51100000000E-03 0.  1.
         12    1    3    3    0    0 -0.12039127907E+02  0.95337319343E+00 -0.14583592555E+01  0.12164552311E+02  0.00000000000E+00 0. -1.
</event>
<event>
 7    1  0.2647566E-010  0.4778727E+02  0.7816164E-02  0.1312668E+00
        -11   -1    0    0    0    0  0.00000000000E+00  0.00000000000E+00  0.45593999997E+02  0.45594000000E+02  0.51100000000E-03 0.  1.
         11   -1    0    0    0    0 -0.00000000000E+00 -0.00000000000E+00 -0.45593999997E+02  0.45594000000E+02  0.51100000000E-03 0. -1.
    9900012    2    1    2    0    0  0.32528556311E+02 -0.17108917459E+02  0.23082497474E+02  0.47787265882E+02  0.19999976464E+02 0.  0.
         12    1    1    2    0    0 -0.32528556311E+02  0.17108917459E+02 -0.23082497474E+02  0.43400734118E+02  0.00000000000E+00 0. -1.
         11    1    3    3    0    0  0.69172862174E+01 -0.43215418686E+01  0.62391342589E+01  0.10268951714E+02  0.51100000000E-03 0. -1.
        -11    1    3    3    0    0  0.17842769881E+02 -0.13943286794E+02  0.18791615823E+02  0.29426255439E+02  0.51100000000E-03 0.  1.
         12    1    3    3    0    0  0.77685002126E+01  0.11559112031E+01 -0.19482526078E+01  0.80920587298E+01  0.00000000000E+00 0. -1.
</event>
<event>
 7    1  0.2647566E-010  0.4778726E+02  0.7816164E-02  0.1312668E+00
        -11   -1    0    0    0    0  0.00000000000E+00  0.00000000000E+00  0.45593999997E+02  0.45594000000E+02  0.51100000000E-03 0.  1.
         11   -1    0    0    0    0 -0.00000000000E+00 -0.00000000000E+00 -0.45593999997E+02  0.45594000000E+02  0.51100000000E-03 0. -1.
    9900012    2    1    2    0    0 -0.15755840423E+02  0.31633237792E+02  0.25193571604E+02  0.47787259329E+02  0.19999946584E+02 0.  0.
         12    1    1    2    0    0  0.15755840423E+02 -0.31633237792E+02 -0.25193571604E+02  0.43400740671E+02  0.00000000000E+00 0. -1.
         11    1    3    3    0    0 -0.40898478280E+01  0.28349478424E+01  0.32513635322E+01  0.59443376086E+01  0.51100000000E-03 0. -1.
        -11    1    3    3    0    0 -0.69455389185E+01  0.17850956190E+02  0.22933045780E+02  0.29880122771E+02  0.51100000000E-03 0.  1.
         12    1    3    3    0    0 -0.47204536763E+01  0.10947333759E+02 -0.99083770833E+00  0.11962798949E+02  0.00000000000E+00 0. -1.
</event>
<event>
 7    1  0.2647566E-010  0.4778727E+02  0.7816164E-02  0.1312668E+00
        -11   -1    0    0    0    0  0.00000000000E+00  0.00000000000E+00  0.45593999997E+02  0.45594000000E+02  0.51100000000E-03 0.  1.
         11   -1    0    0    0    0 -0.00000000000E+00 -0.00000000000E+00 -0.45593999997E+02  0.45594000000E+02  0.51100000000E-03 0. -1.
    9900012    2    1    2    0    0  0.20676786655E+02  0.39525460638E+01  0.37953540835E+02  0.47787269722E+02  0.19999993970E+02 0.  0.
         12    1    1    2    0    0 -0.20676786655E+02 -0.39525460638E+01 -0.37953540835E+02  0.43400730278E+02  0.00000000000E+00 0. -1.
         11    1    3    3    0    0  0.39526334183E+01 -0.45668873254E+01  0.18678537963E+01  0.63220763083E+01  0.51100000000E-03 0. -1.
        -11    1    3    3    0    0  0.67767054193E-01  0.16315998139E+01  0.74794398710E+00  0.17961433115E+01  0.51100000000E-03 0.  1.
        -12    1    3    3    0    0  0.16656386183E+02  0.68878335753E+01  0.35337743051E+02  0.39669050102E+02  0.00000000000E+00 0.  1.
</event>
<event>
 7    1  0.2647566E-010  0.4778727E+02  0.7816164E-02  0.1312668E+00
        -11   -1    0    0    0    0  0.00000000000E+00  0.00000000000E+00  0.45593999997E+02  0.45594000000E+02  0.51100000000E-03 0.  1.
         11   -1    0    0    0    0 -0.00000000000E+00 -0.00000000000E+00 -0.45593999997E+02  0.45594000000E+02  0.51100000000E-03 0. -1.
    9900012    2    1    2    0    0 -0.76281340545E+01 -0.42319135597E+02  0.58758323491E+01  0.47787273363E+02  0.20000010570E+02 0.  0.
         12    1    1    2    0    0  0.76281340545E+01  0.42319135597E+02 -0.58758323491E+01  0.43400726637E+02  0.00000000000E+00 0. -1.
         11    1    3    3    0    0 -0.48286582907E+01 -0.26059363394E+02  0.45077337697E+01  0.26883564224E+02  0.51100000000E-03 0. -1.
        -11    1    3    3    0    0 -0.13253726069E+01 -0.16960655984E+02 -0.20308564272E+01  0.17133150383E+02  0.51100000000E-03 0.  1.
         12    1    3    3    0    0 -0.14741031569E+01  0.70088378096E+00  0.33989550067E+01  0.37705587556E+01  0.00000000000E+00 0. -1.
</event>
<event>
 7    1  0.2647566E-010  0.4778726E+02  0.7816164E-02  0.1312668E+00
        -11   -1    0    0    0    0  0.00000000000E+00  0.00000000000E+00  0.45593999997E+02  0.45594000000E+02  0.51100000000E-03 0. -1.
         11   -1    0    0    0    0 -0.00000000000E+00 -0.00000000000E+00 -0.45593999997E+02  0.45594000000E+02  0.51100000000E-03 0.  1.
    9900012    2    1    2    0    0 -0.14402268375E+02  0.67723535400E+01 -0.40377391830E+02  0.47787264087E+02  0.19999968278E+02 0.  0.
         12    1    1    2    0    0  0.14402268375E+02 -0.67723535400E+01  0.40377391830E+02  0.43400735913E+02  0.00000000000E+00 0. -1.
         11    1    3    3    0    0 -0.51476812745E+01 -0.12774719587E+01 -0.19926202877E+01  0.56657826450E+01  0.51100000000E-03 0. -1.
        -11    1    3    3    0    0 -0.11683120373E+02  0.57254683014E+01 -0.35047889111E+02  0.37384900967E+02  0.51100000000E-03 0.  1.
         12    1    3    3    0    0  0.24285332722E+01  0.23243571973E+01 -0.33368824311E+01  0.47365804748E+01  0.00000000000E+00 0. -1.
</event>
<event>
 7    1  0.2647566E-010  0.4778727E+02  0.7816164E-02  0.1312668E+00
        -11   -1    0    0    0    0  0.00000000000E+00  0.00000000000E+00  0.45593999997E+02  0.45594000000E+02  0.51100000000E-03 0.  1.
         11   -1    0    0    0    0 -0.00000000000E+00 -0.00000000000E+00 -0.45593999997E+02  0.45594000000E+02  0.51100000000E-03 0. -1.
    9900012    2    1    2    0    0 -0.40154677488E+01  0.21019995084E+02  0.37757900407E+02  0.47787271691E+02  0.20000002950E+02 0.  0.
         12    1    1    2    0    0  0.40154677488E+01 -0.21019995084E+02 -0.37757900407E+02  0.43400728309E+02  0.00000000000E+00 0. -1.
         11    1    3    3    0    0 -0.45688265544E+01  0.60614172040E+01  0.57414774302E+01  0.95173272480E+01  0.51100000000E-03 0. -1.
        -11    1    3    3    0    0 -0.55364715605E+01  0.78996954876E+01  0.24379107180E+02  0.26218287001E+02  0.51100000000E-03 0.  1.
         12    1    3    3    0    0  0.60898303661E+01  0.70588823927E+01  0.76373157970E+01  0.12051657442E+02  0.00000000000E+00 0. -1.
</event>
<event>
 7    1  0.2647566E-010  0.4778726E+02  0.7816164E-02  0.1312668E+00
        -11   -1    0    0    0    0  0.00000000000E+00  0.00000000000E+00  0.45593999997E+02  0.45594000000E+02  0.51100000000E-03 0.  1.
         11   -1    0    0    0    0 -0.00000000000E+00 -0.00000000000E+00 -0.45593999997E+02  0.45594000000E+02  0.51100000000E-03 0. -1.
    9900012    2    1    2    0    0  0.15025395675E+02  0.29698697014E+02  0.27854060611E+02  0.47787264844E+02  0.19999971731E+02 0.  0.
         12    1    1    2    0    0 -0.15025395675E+02 -0.29698697014E+02 -0.27854060611E+02  0.43400735156E+02  0.00000000000E+00 0. -1.
         11    1    3    3    0    0 -0.16466733284E+01  0.14170024250E+02  0.13635968258E+02  0.19734253239E+02  0.51100000000E-03 0. -1.
        -11    1    3    3    0    0  0.99802956575E+01  0.13270528453E+02  0.12502192114E+02  0.20785043535E+02  0.51100000000E-03 0.  1.
        -12    1    3    3    0    0  0.66917733454E+01  0.22581443112E+01  0.17159002385E+01  0.72679680699E+01  0.00000000000E+00 0.  1.
</event>
<event>
 7    1  0.2647566E-010  0.4778732E+02  0.7816164E-02  0.1312668E+00
        -11   -1    0    0    0    0  0.00000000000E+00  0.00000000000E+00  0.45593999997E+02  0.45594000000E+02  0.51100000000E-03 0.  1.
         11   -1    0    0    0    0 -0.00000000000E+00 -0.00000000000E+00 -0.45593999997E+02  0.45594000000E+02  0.51100000000E-03 0. -1.
    9900012    2    1    2    0    0 -0.17254851791E+02 -0.18215863465E+02  0.35412874833E+02  0.47787316871E+02  0.20000208941E+02 0.  0.
         12    1    1    2    0    0  0.17254851791E+02  0.18215863465E+02 -0.35412874833E+02  0.43400683129E+02  0.00000000000E+00 0. -1.
         11    1    3    3    0    0 -0.96679023642E+01 -0.16292151595E+01  0.92574558538E+01  0.13484182115E+02  0.51100000000E-03 0. -1.
        -11    1    3    3    0    0 -0.10434057163E+02 -0.15419515868E+02  0.19445617366E+02  0.26921423690E+02  0.51100000000E-03 0.  1.
        -12    1    3    3    0    0  0.28471077358E+01 -0.11671324382E+01  0.67098016126E+01  0.73817110664E+01  0.00000000000E+00 0.  1.
</event>
<event>
 7    1  0.2647566E-010  0.4778727E+02  0.7816164E-02  0.1312668E+00
        -11   -1    0    0    0    0  0.00000000000E+00  0.00000000000E+00  0.45593999997E+02  0.45594000000E+02  0.51100000000E-03 0.  1.
         11   -1    0    0    0    0 -0.00000000000E+00 -0.00000000000E+00 -0.45593999997E+02  0.45594000000E+02  0.51100000000E-03 0. -1.
    9900012    2    1    2    0    0  0.26770750221E+01 -0.19094027594E+02  0.38882834734E+02  0.47787268930E+02  0.19999990360E+02 0.  0.
         12    1    1    2    0    0 -0.26770750221E+01  0.19094027594E+02 -0.38882834734E+02  0.43400731070E+02  0.00000000000E+00 0. -1.
         11    1    3    3    0    0  0.83105812304E+01 -0.10630743966E+02  0.18140679620E+02  0.22608908311E+02  0.51100000000E-03 0. -1.
        -11    1    3    3    0    0  0.75412137351E-01  0.15338075692E+01  0.73926274823E+01  0.75504432984E+01  0.51100000000E-03 0.  1.
         12    1    3    3    0    0 -0.57089183456E+01 -0.99970911968E+01  0.13349527632E+02  0.17627917321E+02  0.00000000000E+00 0. -1.
</event>
<event>
 7    1  0.2647566E-010  0.4778729E+02  0.7816164E-02  0.1312668E+00
        -11   -1    0    0    0    0  0.00000000000E+00  0.00000000000E+00  0.45593999997E+02  0.45594000000E+02  0.51100000000E-03 0. -1.
         11   -1    0    0    0    0 -0.00000000000E+00 -0.00000000000E+00 -0.45593999997E+02  0.45594000000E+02  0.51100000000E-03 0.  1.
    9900012    2    1    2    0    0  0.28973588564E+02  0.19506905362E+00 -0.32312766517E+02  0.47787288414E+02  0.20000079195E+02 0.  0.
         12    1    1    2    0    0 -0.28973588564E+02 -0.19506905362E+00  0.32312766517E+02  0.43400711586E+02  0.00000000000E+00 0. -1.
         11    1    3    3    0    0  0.86528934319E+01  0.18130346507E+01 -0.16936747114E+02  0.19105315031E+02  0.51100000000E-03 0. -1.
        -11    1    3    3    0    0  0.48027331594E+01  0.20110726474E+01 -0.10977060084E+02  0.12149341848E+02  0.51100000000E-03 0.  1.
         12    1    3    3    0    0  0.15517961973E+02 -0.36290382445E+01 -0.43989593188E+01  0.16532631535E+02  0.00000000000E+00 0. -1.
</event>
<event>
 7    1  0.2647566E-010  0.4778727E+02  0.7816164E-02  0.1312668E+00
        -11   -1    0    0    0    0  0.00000000000E+00  0.00000000000E+00  0.45593999997E+02  0.45594000000E+02  0.51100000000E-03 0. -1.
         11   -1    0    0    0    0 -0.00000000000E+00 -0.00000000000E+00 -0.45593999997E+02  0.45594000000E+02  0.51100000000E-03 0.  1.
    9900012    2    1    2    0    0 -0.20864165358E+02  0.18342651418E+02 -0.33344516311E+02  0.47787273910E+02  0.20000013065E+02 0.  0.
         12    1    1    2    0    0  0.20864165358E+02 -0.18342651418E+02  0.33344516311E+02  0.43400726090E+02  0.00000000000E+00 0. -1.
         11    1    3    3    0    0 -0.22202916249E+01  0.74510751756E+01 -0.42852311697E+00  0.77866455226E+01  0.51100000000E-03 0. -1.
        -11    1    3    3    0    0 -0.39170077354E+01  0.44488102122E+01 -0.48563718654E+01  0.76628460679E+01  0.51100000000E-03 0.  1.
        -12    1    3    3    0    0 -0.14726865998E+02  0.64427660298E+01 -0.28059621329E+02  0.32337782320E+02  0.00000000000E+00 0.  1.
</event>
<event>
 7    1  0.2647566E-010  0.4778732E+02  0.7816164E-02  0.1312668E+00
        -11   -1    0    0    0    0  0.00000000000E+00  0.00000000000E+00  0.45593999997E+02  0.45594000000E+02  0.51100000000E-03 0. -1.
         11   -1    0    0    0    0 -0.00000000000E+00 -0.00000000000E+00 -0.45593999997E+02  0.45594000000E+02  0.51100000000E-03 0.  1.
    9900012    2    1    2    0    0  0.33575525948E+02 -0.27209513130E+02  0.39932068723E+01  0.47787317418E+02  0.20000211433E+02 0.  0.
         12    1    1    2    0    0 -0.33575525948E+02  0.27209513130E+02 -0.39932068723E+01  0.43400682582E+02  0.00000000000E+00 0. -1.
         11    1    3    3    0    0  0.77151744002E+01 -0.98752222298E+01  0.56374351544E+01  0.13741346568E+02  0.51100000000E-03 0. -1.
        -11    1    3    3    0    0  0.11487228276E+02 -0.30447178696E+01  0.47433737117E+01  0.12795558402E+02  0.51100000000E-03 0.  1.
         12    1    3    3    0    0  0.14373123272E+02 -0.14289573031E+02 -0.63876019938E+01  0.21250412448E+02  0.00000000000E+00 0. -1.
</event>
<event>
 7    1  0.2647566E-010  0.4778727E+02  0.7816164E-02  0.1312668E+00
        -11   -1    0    0    0    0  0.00000000000E+00  0.00000000000E+00  0.45593999997E+02  0.45594000000E+02  0.51100000000E-03 0. -1.
         11   -1    0    0    0    0 -0.00000000000E+00 -0.00000000000E+00 -0.45593999997E+02  0.45594000000E+02  0.51100000000E-03 0.  1.
    9900012    2    1    2    0    0 -0.19274520149E+02 -0.26483293895E+00 -0.38885037117E+02  0.47787269879E+02  0.19999994686E+02 0.  0.
         12    1    1    2    0    0  0.19274520149E+02  0.26483293895E+00  0.38885037117E+02  0.43400730121E+02  0.00000000000E+00 0. -1.
         11    1    3    3    0    0 -0.20900375281E+01  0.29911807866E+01 -0.11613622679E+01  0.38293840165E+01  0.51100000000E-03 0. -1.
        -11    1    3    3    0    0 -0.11127742281E+02 -0.48798069007E+01 -0.10617962854E+02  0.16136303762E+02  0.51100000000E-03 0.  1.
         12    1    3    3    0    0 -0.60567403399E+01  0.16237931751E+01 -0.27105711995E+02  0.27821582101E+02  0.00000000000E+00 0. -1.
</event>
<event>
 7    1  0.2647566E-010  0.4778727E+02  0.7816164E-02  0.1312668E+00
        -11   -1    0    0    0    0  0.00000000000E+00  0.00000000000E+00  0.45593999997E+02  0.45594000000E+02  0.51100000000E-03 0.  1.
         11   -1    0    0    0    0 -0.00000000000E+00 -0.00000000000E+00 -0.45593999997E+02  0.45594000000E+02  0.51100000000E-03 0. -1.
    9900012    2    1    2    0    0 -0.24490170933E+02  0.34160995092E+02  0.10811153276E+02  0.47787273127E+02  0.20000009495E+02 0.  0.
         12    1    1    2    0    0  0.24490170933E+02 -0.34160995092E+02 -0.10811153276E+02  0.43400726873E+02  0.00000000000E+00 0. -1.
         11    1    3    3    0    0 -0.11152820865E+02  0.17278986668E+02 -0.15152894593E+01  0.20621466871E+02  0.51100000000E-03 0. -1.
        -11    1    3    3    0    0 -0.80315664774E+01  0.16436441466E+02  0.11901341605E+02  0.21824403782E+02  0.51100000000E-03 0.  1.
         12    1    3    3    0    0 -0.53057835904E+01  0.44556695755E+00  0.42510112992E+00  0.53414024743E+01  0.00000000000E+00 0. -1.
</event>
<event>
 7    1  0.2647566E-010  0.4778727E+02  0.7816164E-02  0.1312668E+00
        -11   -1    0    0    0    0  0.00000000000E+00  0.00000000000E+00  0.45593999997E+02  0.45594000000E+02  0.51100000000E-03 0.  1.
         11   -1    0    0    0    0 -0.00000000000E+00 -0.00000000000E+00 -0.45593999997E+02  0.45594000000E+02  0.51100000000E-03 0. -1.
    9900012    2    1    2    0    0 -0.68991103588E+01  0.22338570603E+02  0.36565196069E+02  0.47787273924E+02  0.20000013130E+02 0.  0.
         12    1    1    2    0    0  0.68991103588E+01 -0.22338570603E+02 -0.36565196069E+02  0.43400726076E+02  0.00000000000E+00 0. -1.
         11    1    3    3    0    0 -0.38128597620E+01  0.21081162364E+02  0.23506828628E+02  0.31804469790E+02  0.51100000000E-03 0. -1.
        -11    1    3    3    0    0 -0.10567839726E+01  0.39332497527E+01  0.22251597604E+01  0.46409678088E+01  0.51100000000E-03 0.  1.
        -12    1    3    3    0    0 -0.20294666242E+01 -0.26758415142E+01  0.10833207680E+02  0.11341836325E+02  0.00000000000E+00 0.  1.
</event>
<event>
 7    1  0.2647566E-010  0.4778727E+02  0.7816164E-02  0.1312668E+00
        -11   -1    0    0    0    0  0.00000000000E+00  0.00000000000E+00  0.45593999997E+02  0.45594000000E+02  0.51100000000E-03 0.  1.
         11   -1    0    0    0    0 -0.00000000000E+00 -0.00000000000E+00 -0.45593999997E+02  0.45594000000E+02  0.51100000000E-03 0. -1.
    9900012    2    1    2    0    0 -0.25483154769E+02 -0.88019760818E+01  0.34011134759E+02  0.47787271348E+02  0.20000001382E+02 0.  0.
         12    1    1    2    0    0  0.25483154769E+02  0.88019760818E+01 -0.34011134759E+02  0.43400728652E+02  0.00000000000E+00 0. -1.
         11    1    3    3    0    0 -0.14938655408E+01 -0.50588579772E+01  0.42073670568E+01  0.67472673061E+01  0.51100000000E-03 0. -1.
        -11    1    3    3    0    0 -0.19454666977E+02 -0.81264802003E+01  0.26670689334E+02  0.33997785479E+02  0.51100000000E-03 0.  1.
        -12    1    3    3    0    0 -0.45346222515E+01  0.43833620957E+01  0.31330783684E+01  0.70422185630E+01  0.00000000000E+00 0.  1.
</event>
<event>
 7    1  0.2647566E-010  0.4778727E+02  0.7816164E-02  0.1312668E+00
        -11   -1    0    0    0    0  0.00000000000E+00  0.00000000000E+00  0.45593999997E+02  0.45594000000E+02  0.51100000000E-03 0.  1.
         11   -1    0    0    0    0 -0.00000000000E+00 -0.00000000000E+00 -0.45593999997E+02  0.45594000000E+02  0.51100000000E-03 0. -1.
    9900012    2    1    2    0    0 -0.88688973294E+01 -0.59297264923E+01  0.42069040574E+02  0.47787272231E+02  0.20000005409E+02 0.  0.
         12    1    1    2    0    0  0.88688973294E+01  0.59297264923E+01 -0.42069040574E+02  0.43400727769E+02  0.00000000000E+00 0. -1.
         11    1    3    3    0    0 -0.60876393719E+01  0.86729019460E+00  0.53277704155E+01  0.81361344178E+01  0.51100000000E-03 0. -1.
        -11    1    3    3    0    0 -0.25211726520E+01  0.33885218107E+01  0.15917914800E+02  0.16468709829E+02  0.51100000000E-03 0.  1.
        -12    1    3    3    0    0 -0.26008530550E+00 -0.10185538498E+02  0.20823355358E+02  0.23182427984E+02  0.00000000000E+00 0.  1.
</event>
<event>
 7    1  0.2647566E-010  0.4778727E+02  0.7816164E-02  0.1312668E+00
        -11   -1    0    0    0    0  0.00000000000E+00  0.00000000000E+00  0.45593999997E+02  0.45594000000E+02  0.51100000000E-03 0.  1.
         11   -1    0    0    0    0 -0.00000000000E+00 -0.00000000000E+00 -0.45593999997E+02  0.45594000000E+02  0.51100000000E-03 0. -1.
    9900012    2    1    2    0    0  0.94858949209E+01 -0.86444398123E+01  0.41459795510E+02  0.47787272058E+02  0.20000004623E+02 0.  0.
         12    1    1    2    0    0 -0.94858949209E+01  0.86444398123E+01 -0.41459795510E+02  0.43400727942E+02  0.00000000000E+00 0. -1.
         11    1    3    3    0    0  0.29062026105E+01 -0.92942274332E+01  0.88169955515E+01  0.13136517347E+02  0.51100000000E-03 0.  1.
        -11    1    3    3    0    0 -0.13100141991E+01  0.87183640871E+00  0.65653463439E+00  0.17050729933E+01  0.51100000000E-03 0. -1.
        -12    1    3    3    0    0  0.78897065095E+01 -0.22204878780E+00  0.31986265324E+02  0.32945681718E+02  0.00000000000E+00 0.  1.
</event>
<event>
 7    1  0.2647566E-010  0.4778727E+02  0.7816164E-02  0.1312668E+00
        -11   -1    0    0    0    0  0.00000000000E+00  0.00000000000E+00  0.45593999997E+02  0.45594000000E+02  0.51100000000E-03 0.  1.
         11   -1    0    0    0    0 -0.00000000000E+00 -0.00000000000E+00 -0.45593999997E+02  0.45594000000E+02  0.51100000000E-03 0. -1.
    9900012    2    1    2    0    0  0.60843990444E+01  0.41217743679E+02 -0.12153220777E+02  0.47787273266E+02  0.20000010131E+02 0.  0.
         12    1    1    2    0    0 -0.60843990444E+01 -0.41217743679E+02  0.12153220777E+02  0.43400726734E+02  0.00000000000E+00 0. -1.
         11    1    3    3    0    0 -0.10587203469E+00  0.23266507629E+01 -0.25226356767E+01  0.34333953572E+01  0.51100000000E-03 0. -1.
        -11    1    3    3    0    0 -0.38597164067E+01  0.27020904523E+02 -0.30473815263E+01  0.27464763360E+02  0.51100000000E-03 0.  1.
        -12    1    3    3    0    0  0.10049987486E+02  0.11870188393E+02 -0.65832035739E+01  0.16889114549E+02  0.00000000000E+00 0.  1.
</event>
<event>
 7    1  0.2647566E-010  0.4778727E+02  0.7816164E-02  0.1312668E+00
        -11   -1    0    0    0    0  0.00000000000E+00  0.00000000000E+00  0.45593999997E+02  0.45594000000E+02  0.51100000000E-03 0. -1.
         11   -1    0    0    0    0 -0.00000000000E+00 -0.00000000000E+00 -0.45593999997E+02  0.45594000000E+02  0.51100000000E-03 0.  1.
    9900012    2    1    2    0    0  0.34518611034E+02  0.25164408762E+02 -0.76708187570E+01  0.47787269172E+02  0.19999991461E+02 0.  0.
         12    1    1    2    0    0 -0.34518611034E+02 -0.25164408762E+02  0.76708187570E+01  0.43400730828E+02  0.00000000000E+00 0. -1.
         11    1    3    3    0    0  0.89979079423E+01  0.11887016425E+02 -0.62836117309E+01  0.16178605734E+02  0.51100000000E-03 0. -1.
        -11    1    3    3    0    0  0.17429926082E+02  0.69621896894E+01 -0.68522897075E+01  0.19980697760E+02  0.51100000000E-03 0.  1.
         12    1    3    3    0    0  0.80907770099E+01  0.63152026467E+01  0.54650826814E+01  0.11627965678E+02  0.00000000000E+00 0. -1.
</event>
<event>
 7    1  0.2647566E-010  0.4778727E+02  0.7816164E-02  0.1312668E+00
        -11   -1    0    0    0    0  0.00000000000E+00  0.00000000000E+00  0.45593999997E+02  0.45594000000E+02  0.51100000000E-03 0.  1.
         11   -1    0    0    0    0 -0.00000000000E+00 -0.00000000000E+00 -0.45593999997E+02  0.45594000000E+02  0.51100000000E-03 0. -1.
    9900012    2    1    2    0    0 -0.14809945908E+02 -0.10164340755E+02  0.39509174950E+02  0.47787271596E+02  0.20000002515E+02 0.  0.
         12    1    1    2    0    0  0.14809945908E+02  0.10164340755E+02 -0.39509174950E+02  0.43400728404E+02  0.00000000000E+00 0. -1.
         11    1    3    3    0    0 -0.47576396944E+01  0.78124481998E+00  0.17609058257E+01  0.51328616305E+01  0.51100000000E-03 0. -1.
        -11    1    3    3    0    0 -0.52394235116E+01  0.12216446213E+01  0.19308497768E+02  0.20044003109E+02  0.51100000000E-03 0.  1.
        -12    1    3    3    0    0 -0.48128827023E+01 -0.12167230196E+02  0.18439771356E+02  0.22610406857E+02  0.00000000000E+00 0.  1.
</event>
<event>
 7    1  0.2647566E-010  0.4778727E+02  0.7816164E-02  0.1312668E+00
        -11   -1    0    0    0    0  0.00000000000E+00  0.00000000000E+00  0.45593999997E+02  0.45594000000E+02  0.51100000000E-03 0. -1.
         11   -1    0    0    0    0 -0.00000000000E+00 -0.00000000000E+00 -0.45593999997E+02  0.45594000000E+02  0.51100000000E-03 0.  1.
    9900012    2    1    2    0    0  0.26448569857E+01 -0.35431434295E+02 -0.24924717153E+02  0.47787270400E+02  0.19999997060E+02 0.  0.
         12    1    1    2    0    0 -0.26448569857E+01  0.35431434295E+02  0.24924717153E+02  0.43400729600E+02  0.00000000000E+00 0. -1.
         11    1    3    3    0    0  0.30752801016E+01 -0.34881420979E+00 -0.13561921460E+01  0.33790940286E+01  0.51100000000E-03 0. -1.
        -11    1    3    3    0    0  0.32216877391E-01  0.12137243308E+01 -0.18247508255E+00  0.12277874797E+01  0.51100000000E-03 0.  1.
        -12    1    3    3    0    0 -0.46263999324E+00 -0.36296344416E+02 -0.23386049924E+02  0.43180388891E+02  0.00000000000E+00 0.  1.
</event>
<event>
 7    1  0.2647566E-010  0.4778727E+02  0.7816164E-02  0.1312668E+00
        -11   -1    0    0    0    0  0.00000000000E+00  0.00000000000E+00  0.45593999997E+02  0.45594000000E+02  0.51100000000E-03 0.  1.
         11   -1    0    0    0    0 -0.00000000000E+00 -0.00000000000E+00 -0.45593999997E+02  0.45594000000E+02  0.51100000000E-03 0. -1.
    9900012    2    1    2    0    0  0.23731663717E+02 -0.33169335914E+02  0.14840034271E+02  0.47787270457E+02  0.19999997321E+02 0.  0.
         12    1    1    2    0    0 -0.23731663717E+02  0.33169335914E+02 -0.14840034271E+02  0.43400729543E+02  0.00000000000E+00 0. -1.
         11    1    3    3    0    0  0.10196726654E+01 -0.52238871636E+00  0.38321693398E+01  0.39997680465E+01  0.51100000000E-03 0. -1.
        -11    1    3    3    0    0  0.98575372877E+01 -0.81389032937E+01 -0.24472025085E+01  0.13015436550E+02  0.51100000000E-03 0.  1.
        -12    1    3    3    0    0  0.12854453764E+02 -0.24508043903E+02  0.13455067439E+02  0.30772065861E+02  0.00000000000E+00 0.  1.
</event>
<event>
 7    1  0.2647566E-010  0.4778727E+02  0.7816164E-02  0.1312668E+00
        -11   -1    0    0    0    0  0.00000000000E+00  0.00000000000E+00  0.45593999997E+02  0.45594000000E+02  0.51100000000E-03 0.  1.
         11   -1    0    0    0    0 -0.00000000000E+00 -0.00000000000E+00 -0.45593999997E+02  0.45594000000E+02  0.51100000000E-03 0. -1.
    9900012    2    1    2    0    0 -0.43316900170E+02  0.18446741437E+01 -0.19664014774E+01  0.47787269616E+02  0.19999993489E+02 0.  0.
         12    1    1    2    0    0  0.43316900170E+02 -0.18446741437E+01  0.19664014774E+01  0.43400730384E+02  0.00000000000E+00 0. -1.
         11    1    3    3    0    0 -0.20037163311E+02 -0.43735511624E+01 -0.19167496046E+01  0.20598295867E+02  0.51100000000E-03 0. -1.
        -11    1    3    3    0    0 -0.13695420212E+02  0.19431699083E+00  0.52770048947E+01  0.14678183634E+02  0.51100000000E-03 0.  1.
        -12    1    3    3    0    0 -0.95843166470E+01  0.60239083153E+01 -0.53266567675E+01  0.12510790115E+02  0.00000000000E+00 0.  1.
</event>
<event>
 7    1  0.2647566E-010  0.4778727E+02  0.7816164E-02  0.1312668E+00
        -11   -1    0    0    0    0  0.00000000000E+00  0.00000000000E+00  0.45593999997E+02  0.45594000000E+02  0.51100000000E-03 0.  1.
         11   -1    0    0    0    0 -0.00000000000E+00 -0.00000000000E+00 -0.45593999997E+02  0.45594000000E+02  0.51100000000E-03 0. -1.
    9900012    2    1    2    0    0  0.37857280224E+02  0.19571267198E+02  0.82106604356E+01  0.47787272926E+02  0.20000008580E+02 0.  0.
         12    1    1    2    0    0 -0.37857280224E+02 -0.19571267198E+02 -0.82106604356E+01  0.43400727074E+02  0.00000000000E+00 0. -1.
         11    1    3    3    0    0  0.13440056187E+02  0.13183072376E+02  0.57148377428E+01  0.19674548998E+02  0.51100000000E-03 0. -1.
        -11    1    3    3    0    0  0.23788387866E+02  0.86604710928E+01  0.34876025426E+01  0.25554931590E+02  0.51100000000E-03 0.  1.
        -12    1    3    3    0    0  0.62883617134E+00 -0.22722762701E+01 -0.99177984975E+00  0.25577923388E+01  0.00000000000E+00 0.  1.
</event>
<event>
 7    1  0.2647566E-010  0.4778728E+02  0.7816164E-02  0.1312668E+00
        -11   -1    0    0    0    0  0.00000000000E+00  0.00000000000E+00  0.45593999997E+02  0.45594000000E+02  0.51100000000E-03 0.  1.
         11   -1    0    0    0    0 -0.00000000000E+00 -0.00000000000E+00 -0.45593999997E+02  0.45594000000E+02  0.51100000000E-03 0. -1.
    9900012    2    1    2    0    0  0.32064370612E+02 -0.20540588515E+02  0.20822659268E+02  0.47787276754E+02  0.20000026032E+02 0.  0.
         12    1    1    2    0    0 -0.32064370612E+02  0.20540588515E+02 -0.20822659268E+02  0.43400723246E+02  0.00000000000E+00 0. -1.
         11    1    3    3    0    0  0.48767230008E+01 -0.45232991134E+01  0.13426048323E+02  0.14983371982E+02  0.51100000000E-03 0.  1.
        -11    1    3    3    0    0  0.11663911618E+01 -0.20731499222E+01  0.10864878935E+01  0.26151243079E+01  0.51100000000E-03 0. -1.
        -12    1    3    3    0    0  0.26021256449E+02 -0.13944139480E+02  0.63101230515E+01  0.30188780465E+02  0.00000000000E+00 0.  1.
</event>
<event>
 7    1  0.2647566E-010  0.4778727E+02  0.7816164E-02  0.1312668E+00
        -11   -1    0    0    0    0  0.00000000000E+00  0.00000000000E+00  0.45593999997E+02  0.45594000000E+02  0.51100000000E-03 0. -1.
         11   -1    0    0    0    0 -0.00000000000E+00 -0.00000000000E+00 -0.45593999997E+02  0.45594000000E+02  0.51100000000E-03 0.  1.
    9900012    2    1    2    0    0  0.13137661785E+02  0.26646245592E+02 -0.31638625485E+02  0.47787272081E+02  0.20000004724E+02 0.  0.
         12    1    1    2    0    0 -0.13137661785E+02 -0.26646245592E+02  0.31638625485E+02  0.43400727919E+02  0.00000000000E+00 0. -1.
         11    1    3    3    0    0  0.53030354192E+01  0.47180260972E+01 -0.77326374092E+01  0.10496458282E+02  0.51100000000E-03 0. -1.
        -11    1    3    3    0    0 -0.12508367265E+01  0.10669605696E+02 -0.19334421121E+02  0.22118429388E+02  0.51100000000E-03 0.  1.
         12    1    3    3    0    0  0.90854630927E+01  0.11258613799E+02 -0.45715669550E+01  0.15172384410E+02  0.00000000000E+00 0. -1.
</event>
<event>
 7    1  0.2647566E-010  0.4778728E+02  0.7816164E-02  0.1312668E+00
        -11   -1    0    0    0    0  0.00000000000E+00  0.00000000000E+00  0.45593999997E+02  0.45594000000E+02  0.51100000000E-03 0. -1.
         11   -1    0    0    0    0 -0.00000000000E+00 -0.00000000000E+00 -0.45593999997E+02  0.45594000000E+02  0.51100000000E-03 0.  1.
    9900012    2    1    2    0    0 -0.17224439068E+02  0.54426524033E+01 -0.39462881347E+02  0.47787276843E+02  0.20000026437E+02 0.  0.
         12    1    1    2    0    0  0.17224439068E+02 -0.54426524033E+01  0.39462881347E+02  0.43400723157E+02  0.00000000000E+00 0. -1.
         11    1    3    3    0    0 -0.10691101582E+02 -0.29936045165E+01 -0.24046686618E+02  0.26485929446E+02  0.51100000000E-03 0.  1.
        -11    1    3    3    0    0 -0.91640653401E+01  0.76959823326E+01 -0.12577475282E+02  0.17360907878E+02  0.51100000000E-03 0. -1.
        -12    1    3    3    0    0  0.26307278541E+01  0.74027458725E+00 -0.28387194464E+01  0.39404395190E+01  0.00000000000E+00 0.  1.
</event>
<event>
 7    1  0.2647566E-010  0.4778724E+02  0.7816164E-02  0.1312668E+00
        -11   -1    0    0    0    0  0.00000000000E+00  0.00000000000E+00  0.45593999997E+02  0.45594000000E+02  0.51100000000E-03 0. -1.
         11   -1    0    0    0    0 -0.00000000000E+00 -0.00000000000E+00 -0.45593999997E+02  0.45594000000E+02  0.51100000000E-03 0.  1.
    9900012    2    1    2    0    0 -0.10225619306E+02  0.31371654451E+02 -0.28193655206E+02  0.47787237483E+02  0.19999846981E+02 0.  0.
         12    1    1    2    0    0  0.10225619306E+02 -0.31371654451E+02  0.28193655206E+02  0.43400762517E+02  0.00000000000E+00 0. -1.
         11    1    3    3    0    0  0.12410898085E+01  0.79236961238E+01 -0.10498583304E+02  0.13211567501E+02  0.51100000000E-03 0. -1.
        -11    1    3    3    0    0  0.60737942203E+00  0.11691428120E+02 -0.12056041749E+02  0.16804955941E+02  0.51100000000E-03 0.  1.
         12    1    3    3    0    0 -0.12074088536E+02  0.11756530207E+02 -0.56390301524E+01  0.17770714042E+02  0.00000000000E+00 0. -1.
</event>
<event>
 7    1  0.2647566E-010  0.4778727E+02  0.7816164E-02  0.1312668E+00
        -11   -1    0    0    0    0  0.00000000000E+00  0.00000000000E+00  0.45593999997E+02  0.45594000000E+02  0.51100000000E-03 0.  1.
         11   -1    0    0    0    0 -0.00000000000E+00 -0.00000000000E+00 -0.45593999997E+02  0.45594000000E+02  0.51100000000E-03 0. -1.
    9900012    2    1    2    0    0  0.12432712432E+02  0.34753783654E+02  0.22830357729E+02  0.47787273615E+02  0.20000011721E+02 0.  0.
         12    1    1    2    0    0 -0.12432712432E+02 -0.34753783654E+02 -0.22830357729E+02  0.43400726385E+02  0.00000000000E+00 0. -1.
         11    1    3    3    0    0  0.39260365004E+01 -0.18006260521E+01  0.27211071649E+01  0.51049428250E+01  0.51100000000E-03 0. -1.
        -11    1    3    3    0    0  0.20093153418E+01  0.53999533881E+01  0.39884417183E+01  0.70074611905E+01  0.51100000000E-03 0.  1.
         12    1    3    3    0    0  0.64973605902E+01  0.31154456318E+02  0.16120808846E+02  0.35674869600E+02  0.00000000000E+00 0. -1.
</event>
<event>
 7    1  0.2647566E-010  0.4778727E+02  0.7816164E-02  0.1312668E+00
        -11   -1    0    0    0    0  0.00000000000E+00  0.00000000000E+00  0.45593999997E+02  0.45594000000E+02  0.51100000000E-03 0.  1.
         11   -1    0    0    0    0 -0.00000000000E+00 -0.00000000000E+00 -0.45593999997E+02  0.45594000000E+02  0.51100000000E-03 0. -1.
    9900012    2    1    2    0    0 -0.15817041699E+01  0.22234568759E+02  0.37239029447E+02  0.47787272470E+02  0.20000006500E+02 0.  0.
         12    1    1    2    0    0  0.15817041699E+01 -0.22234568759E+02 -0.37239029447E+02  0.43400727530E+02  0.00000000000E+00 0. -1.
         11    1    3    3    0    0 -0.42047933512E+01 -0.11355552765E+00  0.32067499581E+01  0.52892747650E+01  0.51100000000E-03 0. -1.
        -11    1    3    3    0    0 -0.15330593709E+01  0.60302309384E+01  0.18760290974E+02  0.19765183376E+02  0.51100000000E-03 0.  1.
         12    1    3    3    0    0  0.41561485523E+01  0.16317893348E+02  0.15271988515E+02  0.22732814329E+02  0.00000000000E+00 0. -1.
</event>
<event>
 7    1  0.2647566E-010  0.4778727E+02  0.7816164E-02  0.1312668E+00
        -11   -1    0    0    0    0  0.00000000000E+00  0.00000000000E+00  0.45593999997E+02  0.45594000000E+02  0.51100000000E-03 0.  1.
         11   -1    0    0    0    0 -0.00000000000E+00 -0.00000000000E+00 -0.45593999997E+02  0.45594000000E+02  0.51100000000E-03 0. -1.
    9900012    2    1    2    0    0  0.16495540900E+02  0.42575683827E+01  0.39917334428E+02  0.47787270214E+02  0.19999996215E+02 0.  0.
         12    1    1    2    0    0 -0.16495540900E+02 -0.42575683827E+01 -0.39917334428E+02  0.43400729786E+02  0.00000000000E+00 0. -1.
         11    1    3    3    0    0  0.43930022903E+01  0.28403721331E+01  0.20143435168E+02  0.20811635294E+02  0.51100000000E-03 0. -1.
        -11    1    3    3    0    0  0.14705029834E+02  0.27590665168E+01  0.13945399191E+02  0.20452982896E+02  0.51100000000E-03 0.  1.
         12    1    3    3    0    0 -0.26024912241E+01 -0.13418702672E+01  0.58285000683E+01  0.65226520244E+01  0.00000000000E+00 0. -1.
</event>
<event>
 7    1  0.2647566E-010  0.4778727E+02  0.7816164E-02  0.1312668E+00
        -11   -1    0    0    0    0  0.00000000000E+00  0.00000000000E+00  0.45593999997E+02  0.45594000000E+02  0.51100000000E-03 0.  1.
         11   -1    0    0    0    0 -0.00000000000E+00 -0.00000000000E+00 -0.45593999997E+02  0.45594000000E+02  0.51100000000E-03 0. -1.
    9900012    2    1    2    0    0  0.21232763446E+02 -0.37822043923E+02  0.15119810757E+01  0.47787270319E+02  0.19999996692E+02 0.  0.
         12    1    1    2    0    0 -0.21232763446E+02  0.37822043923E+02 -0.15119810757E+01  0.43400729681E+02  0.00000000000E+00 0. -1.
         11    1    3    3    0    0 -0.56541806080E+00 -0.21901741993E+01 -0.26136488424E+01  0.34565475752E+01  0.51100000000E-03 0. -1.
        -11    1    3    3    0    0  0.38440685686E+01 -0.12735044497E+00  0.23455879999E+01  0.45049822000E+01  0.51100000000E-03 0.  1.
        -12    1    3    3    0    0  0.17954112938E+02 -0.35504519279E+02  0.17800419182E+01  0.39825740544E+02  0.00000000000E+00 0.  1.
</event>
<event>
 7    1  0.2647566E-010  0.4778725E+02  0.7816164E-02  0.1312668E+00
        -11   -1    0    0    0    0  0.00000000000E+00  0.00000000000E+00  0.45593999997E+02  0.45594000000E+02  0.51100000000E-03 0.  1.
         11   -1    0    0    0    0 -0.00000000000E+00 -0.00000000000E+00 -0.45593999997E+02  0.45594000000E+02  0.51100000000E-03 0. -1.
    9900012    2    1    2    0    0  0.18944829905E+02 -0.20062205032E+02  0.33499647532E+02  0.47787250748E+02  0.19999907460E+02 0.  0.
         12    1    1    2    0    0 -0.18944829905E+02  0.20062205032E+02 -0.33499647532E+02  0.43400749252E+02  0.00000000000E+00 0. -1.
         11    1    3    3    0    0 -0.60050154644E+00  0.23231422918E+00  0.56054164478E+01  0.56422748802E+01  0.51100000000E-03 0. -1.
        -11    1    3    3    0    0 -0.15802489307E+01 -0.13179165783E+01  0.58329375598E+01  0.61852446700E+01  0.51100000000E-03 0.  1.
        -12    1    3    3    0    0  0.21125580382E+02 -0.18976602682E+02  0.22061293524E+02  0.35959731198E+02  0.00000000000E+00 0.  1.
</event>
<event>
 7    1  0.2647566E-010  0.4778727E+02  0.7816164E-02  0.1312668E+00
        -11   -1    0    0    0    0  0.00000000000E+00  0.00000000000E+00  0.45593999997E+02  0.45594000000E+02  0.51100000000E-03 0.  1.
         11   -1    0    0    0    0 -0.00000000000E+00 -0.00000000000E+00 -0.45593999997E+02  0.45594000000E+02  0.51100000000E-03 0. -1.
    9900012    2    1    2    0    0 -0.18033848769E+02  0.16656760514E+02  0.35790442000E+02  0.47787272923E+02  0.20000008566E+02 0.  0.
         12    1    1    2    0    0  0.18033848769E+02 -0.16656760514E+02 -0.35790442000E+02  0.43400727077E+02  0.00000000000E+00 0. -1.
         11    1    3    3    0    0 -0.70573165127E+01  0.10344548483E+02  0.27092304119E+02  0.29846412555E+02  0.51100000000E-03 0.  1.
        -11    1    3    3    0    0  0.94513150579E+00 -0.20968500686E+00 -0.88577812671E+00  0.13121907316E+01  0.51100000000E-03 0. -1.
        -12    1    3    3    0    0 -0.11921663762E+02  0.65218970384E+01  0.95839160075E+01  0.16628669636E+02  0.00000000000E+00 0.  1.
</event>
<event>
 7    1  0.2647566E-010  0.4778730E+02  0.7816164E-02  0.1312668E+00
        -11   -1    0    0    0    0  0.00000000000E+00  0.00000000000E+00  0.45593999997E+02  0.45594000000E+02  0.51100000000E-03 0.  1.
         11   -1    0    0    0    0 -0.00000000000E+00 -0.00000000000E+00 -0.45593999997E+02  0.45594000000E+02  0.51100000000E-03 0. -1.
    9900012    2    1    2    0    0 -0.20233969551E+02  0.86931122569E+01  0.37398352107E+02  0.47787303406E+02  0.20000147551E+02 0.  0.
         12    1    1    2    0    0  0.20233969551E+02 -0.86931122569E+01 -0.37398352107E+02  0.43400696594E+02  0.00000000000E+00 0. -1.
         11    1    3    3    0    0 -0.10959129188E+02  0.45640310307E+01  0.12640522673E+02  0.17341156407E+02  0.51100000000E-03 0. -1.
        -11    1    3    3    0    0 -0.80758509713E+01  0.78797594893E+01  0.23880555928E+02  0.26411946732E+02  0.51100000000E-03 0.  1.
         12    1    3    3    0    0 -0.11989893914E+01 -0.37506782630E+01  0.87727350652E+00  0.40342002676E+01  0.00000000000E+00 0. -1.
</event>
<event>
 7    1  0.2647566E-010  0.4778727E+02  0.7816164E-02  0.1312668E+00
        -11   -1    0    0    0    0  0.00000000000E+00  0.00000000000E+00  0.45593999997E+02  0.45594000000E+02  0.51100000000E-03 0. -1.
         11   -1    0    0    0    0 -0.00000000000E+00 -0.00000000000E+00 -0.45593999997E+02  0.45594000000E+02  0.51100000000E-03 0.  1.
    9900012    2    1    2    0    0 -0.37465316565E+02 -0.16941865356E+02  0.13890509480E+02  0.47787274192E+02  0.20000014349E+02 0.  0.
         12    1    1    2    0    0  0.37465316565E+02  0.16941865356E+02 -0.13890509480E+02  0.43400725808E+02  0.00000000000E+00 0. -1.
         11    1    3    3    0    0 -0.99537877731E+01 -0.54595164619E+01 -0.14365382590E-01  0.11352727322E+02  0.51100000000E-03 0. -1.
        -11    1    3    3    0    0 -0.18176113370E+02 -0.13732504288E+01  0.21825194744E+01  0.18358112798E+02  0.51100000000E-03 0.  1.
         12    1    3    3    0    0 -0.93354154219E+01 -0.10109098466E+02  0.11722355389E+02  0.18076434072E+02  0.00000000000E+00 0. -1.
</event>
<event>
 7    1  0.2647566E-010  0.4778727E+02  0.7816164E-02  0.1312668E+00
        -11   -1    0    0    0    0  0.00000000000E+00  0.00000000000E+00  0.45593999997E+02  0.45594000000E+02  0.51100000000E-03 0.  1.
         11   -1    0    0    0    0 -0.00000000000E+00 -0.00000000000E+00 -0.45593999997E+02  0.45594000000E+02  0.51100000000E-03 0. -1.
    9900012    2    1    2    0    0  0.36119062823E+02  0.19020502270E+01  0.23987889214E+02  0.47787270475E+02  0.19999997406E+02 0.  0.
         12    1    1    2    0    0 -0.36119062823E+02 -0.19020502270E+01 -0.23987889214E+02  0.43400729525E+02  0.00000000000E+00 0. -1.
         11    1    3    3    0    0  0.19417697178E+02  0.11335179232E+01  0.58779022507E+01  0.20319487240E+02  0.51100000000E-03 0. -1.
        -11    1    3    3    0    0  0.84772268788E+01  0.22502443399E+01  0.15332138212E+01  0.89038036831E+01  0.51100000000E-03 0.  1.
        -12    1    3    3    0    0  0.82241387671E+01 -0.14817120362E+01  0.16576773142E+02  0.18563979553E+02  0.00000000000E+00 0.  1.
</event>
<event>
 7    1  0.2647566E-010  0.4778727E+02  0.7816164E-02  0.1312668E+00
        -11   -1    0    0    0    0  0.00000000000E+00  0.00000000000E+00  0.45593999997E+02  0.45594000000E+02  0.51100000000E-03 0.  1.
         11   -1    0    0    0    0 -0.00000000000E+00 -0.00000000000E+00 -0.45593999997E+02  0.45594000000E+02  0.51100000000E-03 0. -1.
    9900012    2    1    2    0    0  0.15666448207E+01 -0.36384043807E+02  0.23608687697E+02  0.47787272420E+02  0.20000006270E+02 0.  0.
         12    1    1    2    0    0 -0.15666448207E+01  0.36384043807E+02 -0.23608687697E+02  0.43400727580E+02  0.00000000000E+00 0. -1.
         11    1    3    3    0    0 -0.95953953898E+00 -0.87809522428E+01  0.13299230961E+02  0.15965443396E+02  0.51100000000E-03 0. -1.
        -11    1    3    3    0    0 -0.43350080326E+01 -0.58342209373E+01  0.20989982365E+01  0.75654624740E+01  0.51100000000E-03 0.  1.
        -12    1    3    3    0    0  0.68611923923E+01 -0.21768870627E+02  0.82104584998E+01  0.24256366550E+02  0.00000000000E+00 0.  1.
</event>
<event>
 7    1  0.2647566E-010  0.4778727E+02  0.7816164E-02  0.1312668E+00
        -11   -1    0    0    0    0  0.00000000000E+00  0.00000000000E+00  0.45593999997E+02  0.45594000000E+02  0.51100000000E-03 0. -1.
         11   -1    0    0    0    0 -0.00000000000E+00 -0.00000000000E+00 -0.45593999997E+02  0.45594000000E+02  0.51100000000E-03 0.  1.
    9900012    2    1    2    0    0 -0.87084683056E+01  0.33852646750E+02 -0.25725165221E+02  0.47787271459E+02  0.20000001892E+02 0.  0.
         12    1    1    2    0    0  0.87084683056E+01 -0.33852646750E+02  0.25725165221E+02  0.43400728541E+02  0.00000000000E+00 0. -1.
         11    1    3    3    0    0 -0.59913283832E+01  0.31793369380E+01 -0.59441282768E+01  0.90186950493E+01  0.51100000000E-03 0. -1.
        -11    1    3    3    0    0 -0.12555239067E+01  0.92849082776E+01  0.32800190007E+00  0.93751505327E+01  0.51100000000E-03 0.  1.
         12    1    3    3    0    0 -0.14616160157E+01  0.21388401534E+02 -0.20109038845E+02  0.29393425877E+02  0.00000000000E+00 0. -1.
</event>
<event>
 7    1  0.2647566E-010  0.4778727E+02  0.7816164E-02  0.1312668E+00
        -11   -1    0    0    0    0  0.00000000000E+00  0.00000000000E+00  0.45593999997E+02  0.45594000000E+02  0.51100000000E-03 0.  1.
         11   -1    0    0    0    0 -0.00000000000E+00 -0.00000000000E+00 -0.45593999997E+02  0.45594000000E+02  0.51100000000E-03 0. -1.
    9900012    2    1    2    0    0 -0.28981764665E+02  0.19484556875E+02  0.25768832953E+02  0.47787269690E+02  0.19999993823E+02 0.  0.
         12    1    1    2    0    0  0.28981764665E+02 -0.19484556875E+02 -0.25768832953E+02  0.43400730310E+02  0.00000000000E+00 0. -1.
         11    1    3    3    0    0 -0.88189134131E+01  0.50607703057E+01  0.10601785753E+02  0.14689536797E+02  0.51100000000E-03 0. -1.
        -11    1    3    3    0    0 -0.15779715162E+02  0.17866513531E+02  0.12579621219E+02  0.26952895701E+02  0.51100000000E-03 0.  1.
         12    1    3    3    0    0 -0.43831360900E+01 -0.34427269620E+01  0.25874259799E+01  0.61448371923E+01  0.00000000000E+00 0. -1.
</event>
<event>
 7    1  0.2647566E-010  0.4778727E+02  0.7816164E-02  0.1312668E+00
        -11   -1    0    0    0    0  0.00000000000E+00  0.00000000000E+00  0.45593999997E+02  0.45594000000E+02  0.51100000000E-03 0.  1.
         11   -1    0    0    0    0 -0.00000000000E+00 -0.00000000000E+00 -0.45593999997E+02  0.45594000000E+02  0.51100000000E-03 0. -1.
    9900012    2    1    2    0    0  0.29485359071E+02 -0.28459046489E+02  0.14294038189E+02  0.47787271269E+02  0.20000001024E+02 0.  0.
         12    1    1    2    0    0 -0.29485359071E+02  0.28459046489E+02 -0.14294038189E+02  0.43400728731E+02  0.00000000000E+00 0. -1.
         11    1    3    3    0    0  0.16781353133E+02 -0.16180824285E+02  0.10221941967E+02  0.25454292082E+02  0.51100000000E-03 0. -1.
        -11    1    3    3    0    0  0.41197873312E+01 -0.12688079953E+02  0.29898156343E+01  0.13671101578E+02  0.51100000000E-03 0.  1.
         12    1    3    3    0    0  0.85842186064E+01  0.40985774900E+00  0.10822805872E+01  0.86618776098E+01  0.00000000000E+00 0. -1.
</event>
<event>
 7    1  0.2647566E-010  0.4778726E+02  0.7816164E-02  0.1312668E+00
        -11   -1    0    0    0    0  0.00000000000E+00  0.00000000000E+00  0.45593999997E+02  0.45594000000E+02  0.51100000000E-03 0.  1.
         11   -1    0    0    0    0 -0.00000000000E+00 -0.00000000000E+00 -0.45593999997E+02  0.45594000000E+02  0.51100000000E-03 0. -1.
    9900012    2    1    2    0    0  0.10082988226E+02 -0.40478034136E+02 -0.11978567780E+02  0.47787262851E+02  0.19999962641E+02 0.  0.
         12    1    1    2    0    0 -0.10082988226E+02  0.40478034136E+02  0.11978567780E+02  0.43400737149E+02  0.00000000000E+00 0. -1.
         11    1    3    3    0    0  0.89813275057E+00 -0.20609817331E+01  0.86439753623E+00  0.24086244007E+01  0.51100000000E-03 0. -1.
        -11    1    3    3    0    0  0.32584094248E+01 -0.31608100891E+02 -0.28361055155E+01  0.31901924216E+02  0.51100000000E-03 0.  1.
         12    1    3    3    0    0  0.59264460507E+01 -0.68089515118E+01 -0.10006859800E+02  0.13476714234E+02  0.00000000000E+00 0. -1.
</event>
<event>
 7    1  0.2647566E-010  0.4778727E+02  0.7816164E-02  0.1312668E+00
        -11   -1    0    0    0    0  0.00000000000E+00  0.00000000000E+00  0.45593999997E+02  0.45594000000E+02  0.51100000000E-03 0.  1.
         11   -1    0    0    0    0 -0.00000000000E+00 -0.00000000000E+00 -0.45593999997E+02  0.45594000000E+02  0.51100000000E-03 0. -1.
    9900012    2    1    2    0    0 -0.98219931737E+01  0.37510283651E+02  0.19496933766E+02  0.47787270101E+02  0.19999995699E+02 0.  0.
         12    1    1    2    0    0  0.98219931737E+01 -0.37510283651E+02 -0.19496933766E+02  0.43400729899E+02  0.00000000000E+00 0. -1.
         11    1    3    3    0    0 -0.10927879215E+02  0.95327140591E+01  0.96199456988E+01  0.17402141735E+02  0.51100000000E-03 0. -1.
        -11    1    3    3    0    0 -0.16644923876E+01  0.19651109538E+02  0.86094454394E+01  0.21518810190E+02  0.51100000000E-03 0.  1.
        -12    1    3    3    0    0  0.27703784286E+01  0.83264600544E+01  0.12675426273E+01  0.88663181754E+01  0.00000000000E+00 0.  1.
</event>
<event>
 7    1  0.2647566E-010  0.4778725E+02  0.7816164E-02  0.1312668E+00
        -11   -1    0    0    0    0  0.00000000000E+00  0.00000000000E+00  0.45593999997E+02  0.45594000000E+02  0.51100000000E-03 0.  1.
         11   -1    0    0    0    0 -0.00000000000E+00 -0.00000000000E+00 -0.45593999997E+02  0.45594000000E+02  0.51100000000E-03 0. -1.
    9900012    2    1    2    0    0 -0.92022130790E+01  0.41728118561E+02  0.75966148216E+01  0.47787249305E+02  0.19999900880E+02 0.  0.
         12    1    1    2    0    0  0.92022130790E+01 -0.41728118561E+02 -0.75966148216E+01  0.43400750695E+02  0.00000000000E+00 0. -1.
         11    1    3    3    0    0 -0.27535177767E+01  0.12479219839E+02  0.61308428345E+01  0.14173920490E+02  0.51100000000E-03 0. -1.
        -11    1    3    3    0    0 -0.90880604840E+01  0.24773086518E+02  0.55976816592E+01  0.26974667732E+02  0.51100000000E-03 0.  1.
         12    1    3    3    0    0  0.26393651817E+01  0.44758122036E+01 -0.41319096721E+01  0.66386610836E+01  0.00000000000E+00 0. -1.
</event>
<event>
 7    1  0.2647566E-010  0.4778727E+02  0.7816164E-02  0.1312668E+00
        -11   -1    0    0    0    0  0.00000000000E+00  0.00000000000E+00  0.45593999997E+02  0.45594000000E+02  0.51100000000E-03 0.  1.
         11   -1    0    0    0    0 -0.00000000000E+00 -0.00000000000E+00 -0.45593999997E+02  0.45594000000E+02  0.51100000000E-03 0. -1.
    9900012    2    1    2    0    0 -0.96175186421E+01  0.27459024910E+02  0.32204482125E+02  0.47787269790E+02  0.19999994282E+02 0.  0.
         12    1    1    2    0    0  0.96175186421E+01 -0.27459024910E+02 -0.32204482125E+02  0.43400730210E+02  0.00000000000E+00 0. -1.
         11    1    3    3    0    0 -0.55715742610E+01  0.23067068355E+01  0.26725945422E+01  0.65959152526E+01  0.51100000000E-03 0. -1.
        -11    1    3    3    0    0 -0.25493089271E+01  0.10709828042E+02  0.22520389770E+02  0.25067256498E+02  0.51100000000E-03 0.  1.
         12    1    3    3    0    0 -0.14966354539E+01  0.14442490032E+02  0.70114978128E+01  0.16124098040E+02  0.00000000000E+00 0. -1.
</event>
<event>
 7    1  0.2647566E-010  0.4778727E+02  0.7816164E-02  0.1312668E+00
        -11   -1    0    0    0    0  0.00000000000E+00  0.00000000000E+00  0.45593999997E+02  0.45594000000E+02  0.51100000000E-03 0.  1.
         11   -1    0    0    0    0 -0.00000000000E+00 -0.00000000000E+00 -0.45593999997E+02  0.45594000000E+02  0.51100000000E-03 0. -1.
    9900012    2    1    2    0    0 -0.15166255325E+02  0.40336506813E+02  0.51550194622E+01  0.47787270650E+02  0.19999998203E+02 0.  0.
         12    1    1    2    0    0  0.15166255325E+02 -0.40336506813E+02 -0.51550194622E+01  0.43400729350E+02  0.00000000000E+00 0. -1.
         11    1    3    3    0    0 -0.10983176350E+02  0.29486595247E+02 -0.34583811229E+01  0.31655171177E+02  0.51100000000E-03 0. -1.
        -11    1    3    3    0    0 -0.39391192792E+01  0.11540820785E+02  0.63413312577E+01  0.13744805836E+02  0.51100000000E-03 0.  1.
        -12    1    3    3    0    0 -0.24395969576E+00 -0.69090921935E+00  0.22720693274E+01  0.23872936373E+01  0.00000000000E+00 0.  1.
</event>
<event>
 7    1  0.2647566E-010  0.4778728E+02  0.7816164E-02  0.1312668E+00
        -11   -1    0    0    0    0  0.00000000000E+00  0.00000000000E+00  0.45593999997E+02  0.45594000000E+02  0.51100000000E-03 0.  1.
         11   -1    0    0    0    0 -0.00000000000E+00 -0.00000000000E+00 -0.45593999997E+02  0.45594000000E+02  0.51100000000E-03 0. -1.
    9900012    2    1    2    0    0 -0.16610192395E+02  0.40038507209E+02  0.21545893620E+01  0.47787276432E+02  0.20000024563E+02 0.  0.
         12    1    1    2    0    0  0.16610192395E+02 -0.40038507209E+02 -0.21545893620E+01  0.43400723568E+02  0.00000000000E+00 0. -1.
         11    1    3    3    0    0 -0.20297275092E+01  0.27506778728E+01 -0.30292273527E+01  0.45675202394E+01  0.51100000000E-03 0. -1.
        -11    1    3    3    0    0 -0.23060456130E+01  0.17919526851E+02 -0.40238616628E+01  0.18509963584E+02  0.51100000000E-03 0.  1.
        -12    1    3    3    0    0 -0.12274419273E+02  0.19368302485E+02  0.92076783775E+01  0.24709792608E+02  0.00000000000E+00 0.  1.
</event>
<event>
 7    1  0.2647566E-010  0.4778727E+02  0.7816164E-02  0.1312668E+00
        -11   -1    0    0    0    0  0.00000000000E+00  0.00000000000E+00  0.45593999997E+02  0.45594000000E+02  0.51100000000E-03 0. -1.
         11   -1    0    0    0    0 -0.00000000000E+00 -0.00000000000E+00 -0.45593999997E+02  0.45594000000E+02  0.51100000000E-03 0.  1.
    9900012    2    1    2    0    0  0.29259623960E+01  0.39191108663E+02 -0.18415175583E+02  0.47787274822E+02  0.20000017224E+02 0.  0.
         12    1    1    2    0    0 -0.29259623960E+01 -0.39191108663E+02  0.18415175583E+02  0.43400725178E+02  0.00000000000E+00 0. -1.
         11    1    3    3    0    0 -0.53587033835E+01  0.11258564847E+02 -0.26903978118E+01  0.12755752625E+02  0.51100000000E-03 0. -1.
        -11    1    3    3    0    0 -0.23258939488E+01  0.11509622553E+02 -0.63146608032E+01  0.13332521716E+02  0.51100000000E-03 0.  1.
         12    1    3    3    0    0  0.10610559728E+02  0.16422921263E+02 -0.94101169680E+01  0.21699000482E+02  0.00000000000E+00 0. -1.
</event>
<event>
 7    1  0.2647566E-010  0.4778730E+02  0.7816164E-02  0.1312668E+00
        -11   -1    0    0    0    0  0.00000000000E+00  0.00000000000E+00  0.45593999997E+02  0.45594000000E+02  0.51100000000E-03 0.  1.
         11   -1    0    0    0    0 -0.00000000000E+00 -0.00000000000E+00 -0.45593999997E+02  0.45594000000E+02  0.51100000000E-03 0. -1.
    9900012    2    1    2    0    0  0.27963666024E+01  0.38386402550E+02  0.20057038971E+02  0.47787304393E+02  0.20000152050E+02 0.  0.
         12    1    1    2    0    0 -0.27963666024E+01 -0.38386402550E+02 -0.20057038971E+02  0.43400695607E+02  0.00000000000E+00 0. -1.
         11    1    3    3    0    0  0.73045821366E+00  0.83089506206E+01 -0.13598344945E+01  0.84511170700E+01  0.51100000000E-03 0. -1.
        -11    1    3    3    0    0  0.68715764152E+01  0.20909115511E+02  0.10829761524E+02  0.24529439635E+02  0.51100000000E-03 0.  1.
         12    1    3    3    0    0 -0.48056680265E+01  0.91683364181E+01  0.10587111941E+02  0.14806747688E+02  0.00000000000E+00 0. -1.
</event>
<event>
 7    1  0.2647566E-010  0.4778726E+02  0.7816164E-02  0.1312668E+00
        -11   -1    0    0    0    0  0.00000000000E+00  0.00000000000E+00  0.45593999997E+02  0.45594000000E+02  0.51100000000E-03 0.  1.
         11   -1    0    0    0    0 -0.00000000000E+00 -0.00000000000E+00 -0.45593999997E+02  0.45594000000E+02  0.51100000000E-03 0. -1.
    9900012    2    1    2    0    0  0.31890832308E+01 -0.25096638587E+02  0.35264893497E+02  0.47787259988E+02  0.19999949591E+02 0.  0.
         12    1    1    2    0    0 -0.31890832308E+01  0.25096638587E+02 -0.35264893497E+02  0.43400740012E+02  0.00000000000E+00 0. -1.
         11    1    3    3    0    0  0.77635373883E+01 -0.11271295275E+02  0.92976117225E+01  0.16545700165E+02  0.51100000000E-03 0. -1.
        -11    1    3    3    0    0  0.89289170920E-01 -0.31186335093E+01  0.41547933067E+00  0.31474546632E+01  0.51100000000E-03 0.  1.
        -12    1    3    3    0    0 -0.46637433285E+01 -0.10706709803E+02  0.25551802443E+02  0.28094105160E+02  0.00000000000E+00 0.  1.
</event>
<event>
 7    1  0.2647566E-010  0.4778727E+02  0.7816164E-02  0.1312668E+00
        -11   -1    0    0    0    0  0.00000000000E+00  0.00000000000E+00  0.45593999997E+02  0.45594000000E+02  0.51100000000E-03 0. -1.
         11   -1    0    0    0    0 -0.00000000000E+00 -0.00000000000E+00 -0.45593999997E+02  0.45594000000E+02  0.51100000000E-03 0.  1.
    9900012    2    1    2    0    0 -0.24585167261E+02  0.34237750167E+02  0.10342594288E+02  0.47787271408E+02  0.20000001656E+02 0.  0.
         12    1    1    2    0    0  0.24585167261E+02 -0.34237750167E+02 -0.10342594288E+02  0.43400728592E+02  0.00000000000E+00 0. -1.
         11    1    3    3    0    0  0.38998002485E+00  0.72919640801E+01  0.62187344703E+01  0.95915318505E+01  0.51100000000E-03 0. -1.
        -11    1    3    3    0    0 -0.57466650498E+01  0.20548550889E+01  0.28005556337E+01  0.67148865031E+01  0.51100000000E-03 0.  1.
        -12    1    3    3    0    0 -0.19228482236E+02  0.24890930998E+02  0.13233041843E+01  0.31480853054E+02  0.00000000000E+00 0.  1.
</event>
<event>
 7    1  0.2647566E-010  0.4778727E+02  0.7816164E-02  0.1312668E+00
        -11   -1    0    0    0    0  0.00000000000E+00  0.00000000000E+00  0.45593999997E+02  0.45594000000E+02  0.51100000000E-03 0.  1.
         11   -1    0    0    0    0 -0.00000000000E+00 -0.00000000000E+00 -0.45593999997E+02  0.45594000000E+02  0.51100000000E-03 0. -1.
    9900012    2    1    2    0    0 -0.19412468895E+02  0.38750390893E+02  0.22773800474E+01  0.47787271863E+02  0.20000003730E+02 0.  0.
         12    1    1    2    0    0  0.19412468895E+02 -0.38750390893E+02 -0.22773800474E+01  0.43400728137E+02  0.00000000000E+00 0. -1.
         11    1    3    3    0    0 -0.55447757990E+01  0.11257880249E+01 -0.41647970562E+01  0.70254873225E+01  0.51100000000E-03 0. -1.
        -11    1    3    3    0    0 -0.13392362934E+01  0.71745257292E+01  0.17174809854E+01  0.74978073118E+01  0.51100000000E-03 0.  1.
         12    1    3    3    0    0 -0.12528456802E+02  0.30450077139E+02  0.47246961182E+01  0.33263977228E+02  0.00000000000E+00 0. -1.
</event>
<event>
 7    1  0.2647566E-010  0.4778727E+02  0.7816164E-02  0.1312668E+00
        -11   -1    0    0    0    0  0.00000000000E+00  0.00000000000E+00  0.45593999997E+02  0.45594000000E+02  0.51100000000E-03 0.  1.
         11   -1    0    0    0    0 -0.00000000000E+00 -0.00000000000E+00 -0.45593999997E+02  0.45594000000E+02  0.51100000000E-03 0. -1.
    9900012    2    1    2    0    0 -0.31139030690E+02 -0.22586237674E+02  0.20095919564E+02  0.47787270194E+02  0.19999996124E+02 0.  0.
         12    1    1    2    0    0  0.31139030690E+02  0.22586237674E+02 -0.20095919564E+02  0.43400729806E+02  0.00000000000E+00 0. -1.
         11    1    3    3    0    0 -0.62847918216E+01 -0.74807181047E+01  0.16657764032E+01  0.99113350710E+01  0.51100000000E-03 0. -1.
        -11    1    3    3    0    0 -0.71610091338E+01 -0.10686205349E+02  0.14189735260E+02  0.19152640120E+02  0.51100000000E-03 0.  1.
         12    1    3    3    0    0 -0.17693229734E+02 -0.44193142200E+01  0.42404079006E+01  0.18723295003E+02  0.00000000000E+00 0. -1.
</event>
<event>
 7    1  0.2647566E-010  0.4778726E+02  0.7816164E-02  0.1312668E+00
        -11   -1    0    0    0    0  0.00000000000E+00  0.00000000000E+00  0.45593999997E+02  0.45594000000E+02  0.51100000000E-03 0. -1.
         11   -1    0    0    0    0 -0.00000000000E+00 -0.00000000000E+00 -0.45593999997E+02  0.45594000000E+02  0.51100000000E-03 0.  1.
    9900012    2    1    2    0    0  0.35578937668E+02 -0.13694584633E+02  0.20741780484E+02  0.47787263698E+02  0.19999966505E+02 0.  0.
         12    1    1    2    0    0 -0.35578937668E+02  0.13694584633E+02 -0.20741780484E+02  0.43400736302E+02  0.00000000000E+00 0. -1.
         11    1    3    3    0    0  0.78790223040E+01 -0.55947536417E+01 -0.29585030356E+01  0.10106087336E+02  0.51100000000E-03 0. -1.
        -11    1    3    3    0    0  0.10449652810E+02 -0.37202419323E+01  0.61366741754E+01  0.12676522160E+02  0.51100000000E-03 0.  1.
         12    1    3    3    0    0  0.17250262554E+02 -0.43795890588E+01  0.17563609345E+02  0.25004654201E+02  0.00000000000E+00 0. -1.
</event>
<event>
 7    1  0.2647566E-010  0.4778727E+02  0.7816164E-02  0.1312668E+00
        -11   -1    0    0    0    0  0.00000000000E+00  0.00000000000E+00  0.45593999997E+02  0.45594000000E+02  0.51100000000E-03 0.  1.
         11   -1    0    0    0    0 -0.00000000000E+00 -0.00000000000E+00 -0.45593999997E+02  0.45594000000E+02  0.51100000000E-03 0. -1.
    9900012    2    1    2    0    0  0.10642943737E+00 -0.32068367709E+02  0.29244344563E+02  0.47787271623E+02  0.20000002638E+02 0.  0.
         12    1    1    2    0    0 -0.10642943737E+00  0.32068367709E+02 -0.29244344563E+02  0.43400728377E+02  0.00000000000E+00 0. -1.
         11    1    3    3    0    0  0.47133560923E+01 -0.86017209094E+01  0.46705387793E+01  0.10863667015E+02  0.51100000000E-03 0. -1.
        -11    1    3    3    0    0 -0.32292643522E+00 -0.21951910666E+02  0.15818761385E+02  0.27059635537E+02  0.51100000000E-03 0.  1.
         12    1    3    3    0    0 -0.42840002197E+01 -0.15147361342E+01  0.87550443979E+01  0.98639690717E+01  0.00000000000E+00 0. -1.
</event>
<event>
 7    1  0.2647566E-010  0.4778727E+02  0.7816164E-02  0.1312668E+00
        -11   -1    0    0    0    0  0.00000000000E+00  0.00000000000E+00  0.45593999997E+02  0.45594000000E+02  0.51100000000E-03 0. -1.
         11   -1    0    0    0    0 -0.00000000000E+00 -0.00000000000E+00 -0.45593999997E+02  0.45594000000E+02  0.51100000000E-03 0.  1.
    9900012    2    1    2    0    0  0.13588454706E+02  0.36748604348E+02  0.18668621439E+02  0.47787269024E+02  0.19999990788E+02 0.  0.
         12    1    1    2    0    0 -0.13588454706E+02 -0.36748604348E+02 -0.18668621439E+02  0.43400730976E+02  0.00000000000E+00 0. -1.
         11    1    3    3    0    0  0.13862676593E+00  0.36446313211E+01  0.45768480364E+01  0.58523579057E+01  0.51100000000E-03 0. -1.
        -11    1    3    3    0    0 -0.17599581203E+01  0.17517837276E+02  0.78775012677E+01  0.19288004093E+02  0.51100000000E-03 0.  1.
         12    1    3    3    0    0  0.15209786060E+02  0.15586135751E+02  0.62142721345E+01  0.22646907025E+02  0.00000000000E+00 0. -1.
</event>
<event>
 7    1  0.2647566E-010  0.4778727E+02  0.7816164E-02  0.1312668E+00
        -11   -1    0    0    0    0  0.00000000000E+00  0.00000000000E+00  0.45593999997E+02  0.45594000000E+02  0.51100000000E-03 0.  1.
         11   -1    0    0    0    0 -0.00000000000E+00 -0.00000000000E+00 -0.45593999997E+02  0.45594000000E+02  0.51100000000E-03 0. -1.
    9900012    2    1    2    0    0  0.15338745024E+02 -0.82873657116E+01  0.39745009715E+02  0.47787270438E+02  0.19999997233E+02 0.  0.
         12    1    1    2    0    0 -0.15338745024E+02  0.82873657116E+01 -0.39745009715E+02  0.43400729562E+02  0.00000000000E+00 0. -1.
         11    1    3    3    0    0  0.37654292932E+01 -0.96804927887E+01  0.17062581636E+02  0.19975537308E+02  0.51100000000E-03 0. -1.
        -11    1    3    3    0    0 -0.10415963125E+01  0.16431983273E+01  0.89662193835E+01  0.91748631551E+01  0.51100000000E-03 0.  1.
        -12    1    3    3    0    0  0.12614912043E+02 -0.25007125030E+00  0.13716208696E+02  0.18636869975E+02  0.00000000000E+00 0.  1.
</event>
<event>
 7    1  0.2647566E-010  0.4778727E+02  0.7816164E-02  0.1312668E+00
        -11   -1    0    0    0    0  0.00000000000E+00  0.00000000000E+00  0.45593999997E+02  0.45594000000E+02  0.51100000000E-03 0.  1.
         11   -1    0    0    0    0 -0.00000000000E+00 -0.00000000000E+00 -0.45593999997E+02  0.45594000000E+02  0.51100000000E-03 0. -1.
    9900012    2    1    2    0    0 -0.28160738928E+02 -0.25058555501E+02  0.21509651341E+02  0.47787268191E+02  0.19999986991E+02 0.  0.
         12    1    1    2    0    0  0.28160738928E+02  0.25058555501E+02 -0.21509651341E+02  0.43400731809E+02  0.00000000000E+00 0. -1.
         11    1    3    3    0    0 -0.51988060117E+01 -0.52347827707E+01  0.39977531096E+00  0.73885286197E+01  0.51100000000E-03 0. -1.
        -11    1    3    3    0    0 -0.84505716148E+01 -0.54988668878E+01 -0.12245429021E+01  0.10156239621E+02  0.51100000000E-03 0.  1.
        -12    1    3    3    0    0 -0.14511361301E+02 -0.14324905842E+02  0.22334418932E+02  0.30242499950E+02  0.00000000000E+00 0.  1.
</event>
<event>
 7    1  0.2647566E-010  0.4778727E+02  0.7816164E-02  0.1312668E+00
        -11   -1    0    0    0    0  0.00000000000E+00  0.00000000000E+00  0.45593999997E+02  0.45594000000E+02  0.51100000000E-03 0.  1.
         11   -1    0    0    0    0 -0.00000000000E+00 -0.00000000000E+00 -0.45593999997E+02  0.45594000000E+02  0.51100000000E-03 0. -1.
    9900012    2    1    2    0    0 -0.45951745747E+01 -0.23261186492E+02  0.36351407852E+02  0.47787270983E+02  0.19999999721E+02 0.  0.
         12    1    1    2    0    0  0.45951745747E+01  0.23261186492E+02 -0.36351407852E+02  0.43400729017E+02  0.00000000000E+00 0. -1.
         11    1    3    3    0    0 -0.29187505783E+01 -0.49402449919E+01  0.12366020476E+01  0.58697794169E+01  0.51100000000E-03 0. -1.
        -11    1    3    3    0    0  0.22201615006E+01  0.13496091816E+01  0.62719651551E+01  0.67888223721E+01  0.51100000000E-03 0.  1.
        -12    1    3    3    0    0 -0.38965854970E+01 -0.19670550682E+02  0.28842840649E+02  0.35128669194E+02  0.00000000000E+00 0.  1.
</event>
<event>
 7    1  0.2647566E-010  0.4778726E+02  0.7816164E-02  0.1312668E+00
        -11   -1    0    0    0    0  0.00000000000E+00  0.00000000000E+00  0.45593999997E+02  0.45594000000E+02  0.51100000000E-03 0.  1.
         11   -1    0    0    0    0 -0.00000000000E+00 -0.00000000000E+00 -0.45593999997E+02  0.45594000000E+02  0.51100000000E-03 0. -1.
    9900012    2    1    2    0    0 -0.31379503747E+02  0.47302749193E+01  0.29607012068E+02  0.47787263603E+02  0.19999966071E+02 0.  0.
         12    1    1    2    0    0  0.31379503747E+02 -0.47302749193E+01 -0.29607012068E+02  0.43400736397E+02  0.00000000000E+00 0. -1.
         11    1    3    3    0    0 -0.10658520899E+02  0.52030930416E+01  0.61534441947E+01  0.13361928030E+02  0.51100000000E-03 0. -1.
        -11    1    3    3    0    0 -0.17802844923E+02  0.46881833342E+01  0.13460455452E+02  0.22805793377E+02  0.51100000000E-03 0.  1.
         12    1    3    3    0    0 -0.29181379253E+01 -0.51610014566E+01  0.99931124215E+01  0.11619542196E+02  0.00000000000E+00 0. -1.
</event>
<event>
 7    1  0.2647566E-010  0.4778727E+02  0.7816164E-02  0.1312668E+00
        -11   -1    0    0    0    0  0.00000000000E+00  0.00000000000E+00  0.45593999997E+02  0.45594000000E+02  0.51100000000E-03 0. -1.
         11   -1    0    0    0    0 -0.00000000000E+00 -0.00000000000E+00 -0.45593999997E+02  0.45594000000E+02  0.51100000000E-03 0.  1.
    9900012    2    1    2    0    0 -0.42148495892E+02  0.33891019361E+01 -0.97796480515E+01  0.47787271505E+02  0.20000002099E+02 0.  0.
         12    1    1    2    0    0  0.42148495892E+02 -0.33891019361E+01  0.97796480515E+01  0.43400728495E+02  0.00000000000E+00 0. -1.
         11    1    3    3    0    0 -0.12658630318E+02  0.35834151338E+01 -0.43671607334E+01  0.13861957967E+02  0.51100000000E-03 0. -1.
        -11    1    3    3    0    0 -0.18706264173E+02  0.73911536630E+00 -0.11031961524E+02  0.21729583203E+02  0.51100000000E-03 0.  1.
         12    1    3    3    0    0 -0.10783601401E+02 -0.93342856402E+00  0.56194742057E+01  0.12195730335E+02  0.00000000000E+00 0. -1.
</event>
<event>
 7    1  0.2647566E-010  0.4778732E+02  0.7816164E-02  0.1312668E+00
        -11   -1    0    0    0    0  0.00000000000E+00  0.00000000000E+00  0.45593999997E+02  0.45594000000E+02  0.51100000000E-03 0.  1.
         11   -1    0    0    0    0 -0.00000000000E+00 -0.00000000000E+00 -0.45593999997E+02  0.45594000000E+02  0.51100000000E-03 0. -1.
    9900012    2    1    2    0    0  0.25599479003E+02 -0.20062006194E+02  0.28736763136E+02  0.47787320590E+02  0.20000225896E+02 0.  0.
         12    1    1    2    0    0 -0.25599479003E+02  0.20062006194E+02 -0.28736763136E+02  0.43400679410E+02  0.00000000000E+00 0. -1.
         11    1    3    3    0    0  0.25107006430E+01 -0.83126516203E+00 -0.25341949690E+01  0.36628901008E+01  0.51100000000E-03 0. -1.
        -11    1    3    3    0    0  0.71628238886E+01 -0.90234491987E+01  0.75064018600E+01  0.13750445471E+02  0.51100000000E-03 0.  1.
         12    1    3    3    0    0  0.15925954471E+02 -0.10207291833E+02  0.23764556245E+02  0.30373985018E+02  0.00000000000E+00 0. -1.
</event>
<event>
 7    1  0.2651736E-010  0.4778727E+02  0.7816164E-02  0.1312668E+00
        -11   -1    0    0    0    0  0.00000000000E+00  0.00000000000E+00  0.45593999997E+02  0.45594000000E+02  0.51100000000E-03 0.  1.
         11   -1    0    0    0    0 -0.00000000000E+00 -0.00000000000E+00 -0.45593999997E+02  0.45594000000E+02  0.51100000000E-03 0. -1.
    9900012    2    1    2    0    0 -0.20010428896E+02 -0.33318549554E+02 -0.19315286232E+02  0.47787270845E+02  0.19999999089E+02 0.  0.
         12    1    1    2    0    0  0.20010428896E+02  0.33318549554E+02  0.19315286232E+02  0.43400729155E+02  0.00000000000E+00 0. -1.
         11    1    3    3    0    0  0.21195998829E+00 -0.49990180431E+01  0.23137954359E+01  0.55125999321E+01  0.51100000000E-03 0. -1.
        -11    1    3    3    0    0 -0.23473213238E+01 -0.52138597409E+01 -0.85069224117E+01  0.10249974633E+02  0.51100000000E-03 0.  1.
        -12    1    3    3    0    0 -0.17875067561E+02 -0.23105671770E+02 -0.13122159256E+02  0.32024696280E+02  0.00000000000E+00 0.  1.
</event>
<event>
 7    1  0.2647566E-010  0.4778727E+02  0.7816164E-02  0.1312668E+00
        -11   -1    0    0    0    0  0.00000000000E+00  0.00000000000E+00  0.45593999997E+02  0.45594000000E+02  0.51100000000E-03 0.  1.
         11   -1    0    0    0    0 -0.00000000000E+00 -0.00000000000E+00 -0.45593999997E+02  0.45594000000E+02  0.51100000000E-03 0. -1.
    9900012    2    1    2    0    0  0.13201455190E+00  0.10081886960E+02  0.42213286607E+02  0.47787269146E+02  0.19999991344E+02 0.  0.
         12    1    1    2    0    0 -0.13201455190E+00 -0.10081886960E+02 -0.42213286607E+02  0.43400730854E+02  0.00000000000E+00 0. -1.
         11    1    3    3    0    0  0.55075734544E+01 -0.38518872654E+00  0.14668025961E+02  0.15672674359E+02  0.51100000000E-03 0. -1.
        -11    1    3    3    0    0  0.24922415704E+01  0.70279807261E+01  0.16641535690E+02  0.18235802464E+02  0.51100000000E-03 0.  1.
         12    1    3    3    0    0 -0.78678004729E+01  0.34390949609E+01  0.10903724956E+02  0.13878792323E+02  0.00000000000E+00 0. -1.
</event>
<event>
 7    1  0.2647566E-010  0.4778727E+02  0.7816164E-02  0.1312668E+00
        -11   -1    0    0    0    0  0.00000000000E+00  0.00000000000E+00  0.45593999997E+02  0.45594000000E+02  0.51100000000E-03 0. -1.
         11   -1    0    0    0    0 -0.00000000000E+00 -0.00000000000E+00 -0.45593999997E+02  0.45594000000E+02  0.51100000000E-03 0.  1.
    9900012    2    1    2    0    0  0.39605277732E+02  0.17067240753E+02 -0.48738494497E+01  0.47787272591E+02  0.20000007053E+02 0.  0.
         12    1    1    2    0    0 -0.39605277732E+02 -0.17067240753E+02  0.48738494497E+01  0.43400727409E+02  0.00000000000E+00 0. -1.
         11    1    3    3    0    0  0.23497646781E+01 -0.21018497122E+01  0.61871394923E+00  0.32127828229E+01  0.51100000000E-03 0. -1.
        -11    1    3    3    0    0  0.25362827351E+02  0.12318851254E+02  0.31249035138E+01  0.28368858449E+02  0.51100000000E-03 0.  1.
         12    1    3    3    0    0  0.11892685702E+02  0.68502392115E+01 -0.86174669128E+01  0.16205631320E+02  0.00000000000E+00 0. -1.
</event>
<event>
 7    1  0.2647566E-010  0.4778727E+02  0.7816164E-02  0.1312668E+00
        -11   -1    0    0    0    0  0.00000000000E+00  0.00000000000E+00  0.45593999997E+02  0.45594000000E+02  0.51100000000E-03 0.  1.
         11   -1    0    0    0    0 -0.00000000000E+00 -0.00000000000E+00 -0.45593999997E+02  0.45594000000E+02  0.51100000000E-03 0. -1.
    9900012    2    1    2    0    0  0.18488678981E+02 -0.16150105489E+02  0.35790582255E+02  0.47787274937E+02  0.20000017750E+02 0.  0.
         12    1    1    2    0    0 -0.18488678981E+02  0.16150105489E+02 -0.35790582255E+02  0.43400725063E+02  0.00000000000E+00 0. -1.
         11    1    3    3    0    0 -0.76884588227E-01 -0.68077069207E+01  0.51109211714E+01  0.85130664416E+01  0.51100000000E-03 0. -1.
        -11    1    3    3    0    0  0.14504667469E+02 -0.10984938865E+02  0.16965171733E+02  0.24877124280E+02  0.51100000000E-03 0.  1.
        -12    1    3    3    0    0  0.40608960999E+01  0.16425402958E+01  0.13714489351E+02  0.14397084216E+02  0.00000000000E+00 0.  1.
</event>
<event>
 7    1  0.2647566E-010  0.4778725E+02  0.7816164E-02  0.1312668E+00
        -11   -1    0    0    0    0  0.00000000000E+00  0.00000000000E+00  0.45593999997E+02  0.45594000000E+02  0.51100000000E-03 0. -1.
         11   -1    0    0    0    0 -0.00000000000E+00 -0.00000000000E+00 -0.45593999997E+02  0.45594000000E+02  0.51100000000E-03 0.  1.
    9900012    2    1    2    0    0 -0.29300222699E+02  0.20674525123E+02 -0.24447610956E+02  0.47787254376E+02  0.19999924002E+02 0.  0.
         12    1    1    2    0    0  0.29300222699E+02 -0.20674525123E+02  0.24447610956E+02  0.43400745624E+02  0.00000000000E+00 0. -1.
         11    1    3    3    0    0 -0.20905643157E+01  0.31273716451E+01  0.17032101230E+00  0.37656237296E+01  0.51100000000E-03 0.  1.
        -11    1    3    3    0    0 -0.17621674245E+02  0.17034855453E+02 -0.24150395799E+02  0.34408593708E+02  0.51100000000E-03 0. -1.
         12    1    3    3    0    0 -0.95879841383E+01  0.51229802447E+00 -0.46753616981E+00  0.96130369380E+01  0.00000000000E+00 0. -1.
</event>
<event>
 7    1  0.2647566E-010  0.4778727E+02  0.7816164E-02  0.1312668E+00
        -11   -1    0    0    0    0  0.00000000000E+00  0.00000000000E+00  0.45593999997E+02  0.45594000000E+02  0.51100000000E-03 0.  1.
         11   -1    0    0    0    0 -0.00000000000E+00 -0.00000000000E+00 -0.45593999997E+02  0.45594000000E+02  0.51100000000E-03 0. -1.
    9900012    2    1    2    0    0 -0.22114474106E+00  0.41529128741E+02  0.12605783861E+02  0.47787271599E+02  0.20000002528E+02 0.  0.
         12    1    1    2    0    0  0.22114474106E+00 -0.41529128741E+02 -0.12605783861E+02  0.43400728401E+02  0.00000000000E+00 0. -1.
         11    1    3    3    0    0 -0.32365369895E+01  0.85772914729E+01  0.23418734773E+01  0.94620014976E+01  0.51100000000E-03 0. -1.
        -11    1    3    3    0    0 -0.65560592365E+01  0.98211891607E+01  0.45055130854E+01  0.12638722944E+02  0.51100000000E-03 0.  1.
        -12    1    3    3    0    0  0.95714514849E+01  0.23130648108E+02  0.57583972979E+01  0.25686547157E+02  0.00000000000E+00 0.  1.
</event>
<event>
 7    1  0.2647566E-010  0.4778727E+02  0.7816164E-02  0.1312668E+00
        -11   -1    0    0    0    0  0.00000000000E+00  0.00000000000E+00  0.45593999997E+02  0.45594000000E+02  0.51100000000E-03 0.  1.
         11   -1    0    0    0    0 -0.00000000000E+00 -0.00000000000E+00 -0.45593999997E+02  0.45594000000E+02  0.51100000000E-03 0. -1.
    9900012    2    1    2    0    0 -0.12584782225E+02 -0.16646687392E+02  0.38054358890E+02  0.47787272180E+02  0.20000005177E+02 0.  0.
         12    1    1    2    0    0  0.12584782225E+02  0.16646687392E+02 -0.38054358890E+02  0.43400727820E+02  0.00000000000E+00 0. -1.
         11    1    3    3    0    0 -0.87862157977E+01 -0.14651289959E+02  0.26713241542E+02  0.31708912934E+02  0.51100000000E-03 0.  1.
        -11    1    3    3    0    0 -0.29894262568E+00 -0.60342914509E+01  0.63728724936E+01  0.87815456549E+01  0.51100000000E-03 0. -1.
        -12    1    3    3    0    0 -0.34996238018E+01  0.40388940183E+01  0.49682448544E+01  0.72968135908E+01  0.00000000000E+00 0.  1.
</event>
<event>
 7    1  0.2647566E-010  0.4778727E+02  0.7816164E-02  0.1312668E+00
        -11   -1    0    0    0    0  0.00000000000E+00  0.00000000000E+00  0.45593999997E+02  0.45594000000E+02  0.51100000000E-03 0.  1.
         11   -1    0    0    0    0 -0.00000000000E+00 -0.00000000000E+00 -0.45593999997E+02  0.45594000000E+02  0.51100000000E-03 0. -1.
    9900012    2    1    2    0    0 -0.43221108371E+02 -0.13346059671E+01 -0.37118737777E+01  0.47787269720E+02  0.19999993962E+02 0.  0.
         12    1    1    2    0    0  0.43221108371E+02  0.13346059671E+01  0.37118737777E+01  0.43400730280E+02  0.00000000000E+00 0. -1.
         11    1    3    3    0    0 -0.16242814149E+02 -0.58992988444E+01 -0.51525787137E+01  0.18032742609E+02  0.51100000000E-03 0. -1.
        -11    1    3    3    0    0 -0.20213808960E+02 -0.19197667127E+01  0.17404486071E+01  0.20379223207E+02  0.51100000000E-03 0.  1.
         12    1    3    3    0    0 -0.67644852613E+01  0.64844595901E+01 -0.29974367114E+00  0.93753039041E+01  0.00000000000E+00 0. -1.
</event>
<event>
 7    1  0.2647566E-010  0.4778725E+02  0.7816164E-02  0.1312668E+00
        -11   -1    0    0    0    0  0.00000000000E+00  0.00000000000E+00  0.45593999997E+02  0.45594000000E+02  0.51100000000E-03 0.  1.
         11   -1    0    0    0    0 -0.00000000000E+00 -0.00000000000E+00 -0.45593999997E+02  0.45594000000E+02  0.51100000000E-03 0. -1.
    9900012    2    1    2    0    0  0.16974682591E+02 -0.36222730186E+02  0.16834466792E+02  0.47787247664E+02  0.19999893399E+02 0.  0.
         12    1    1    2    0    0 -0.16974682591E+02  0.36222730186E+02 -0.16834466792E+02  0.43400752336E+02  0.00000000000E+00 0. -1.
         11    1    3    3    0    0 -0.34190464436E+01 -0.52270664290E+01 -0.41261825030E+00  0.62595811456E+01  0.51100000000E-03 0. -1.
        -11    1    3    3    0    0  0.48694348234E+01 -0.48017915196E+01  0.59042329108E+01  0.90348527284E+01  0.51100000000E-03 0.  1.
        -12    1    3    3    0    0  0.15524294211E+02 -0.26193872237E+02  0.11342852132E+02  0.32492813790E+02  0.00000000000E+00 0.  1.
</event>
<event>
 7    1  0.2647566E-010  0.4778727E+02  0.7816164E-02  0.1312668E+00
        -11   -1    0    0    0    0  0.00000000000E+00  0.00000000000E+00  0.45593999997E+02  0.45594000000E+02  0.51100000000E-03 0.  1.
         11   -1    0    0    0    0 -0.00000000000E+00 -0.00000000000E+00 -0.45593999997E+02  0.45594000000E+02  0.51100000000E-03 0. -1.
    9900012    2    1    2    0    0 -0.17239965474E+02  0.11874640382E+02  0.38018415681E+02  0.47787269307E+02  0.19999992079E+02 0.  0.
         12    1    1    2    0    0  0.17239965474E+02 -0.11874640382E+02 -0.38018415681E+02  0.43400730693E+02  0.00000000000E+00 0. -1.
         11    1    3    3    0    0 -0.37496402505E+01  0.12934933746E+02  0.17343645920E+02  0.21958469142E+02  0.51100000000E-03 0. -1.
        -11    1    3    3    0    0 -0.62136063175E+01  0.25385487208E+01  0.13129668481E+02  0.14745891895E+02  0.51100000000E-03 0.  1.
         12    1    3    3    0    0 -0.72767189065E+01 -0.35988420848E+01  0.75451012803E+01  0.11082908270E+02  0.00000000000E+00 0. -1.
</event>
<event>
 7    1  0.2647566E-010  0.4778727E+02  0.7816164E-02  0.1312668E+00
        -11   -1    0    0    0    0  0.00000000000E+00  0.00000000000E+00  0.45593999997E+02  0.45594000000E+02  0.51100000000E-03 0. -1.
         11   -1    0    0    0    0 -0.00000000000E+00 -0.00000000000E+00 -0.45593999997E+02  0.45594000000E+02  0.51100000000E-03 0.  1.
    9900012    2    1    2    0    0  0.36377016666E+02  0.16532952420E+02 -0.16940995409E+02  0.47787272095E+02  0.20000004791E+02 0.  0.
         12    1    1    2    0    0 -0.36377016666E+02 -0.16532952420E+02  0.16940995409E+02  0.43400727905E+02  0.00000000000E+00 0. -1.
         11    1    3    3    0    0  0.27550365478E+01 -0.21757034810E+01 -0.33352411893E+01  0.48422872766E+01  0.51100000000E-03 0. -1.
        -11    1    3    3    0    0  0.19643731110E+02  0.11118497299E+02 -0.14804415435E+02  0.26993848757E+02  0.51100000000E-03 0.  1.
         12    1    3    3    0    0  0.13978249008E+02  0.75901586019E+01  0.11986612150E+01  0.15951136061E+02  0.00000000000E+00 0. -1.
</event>
<event>
 7    1  0.2647566E-010  0.4778727E+02  0.7816164E-02  0.1312668E+00
        -11   -1    0    0    0    0  0.00000000000E+00  0.00000000000E+00  0.45593999997E+02  0.45594000000E+02  0.51100000000E-03 0.  1.
         11   -1    0    0    0    0 -0.00000000000E+00 -0.00000000000E+00 -0.45593999997E+02  0.45594000000E+02  0.51100000000E-03 0. -1.
    9900012    2    1    2    0    0  0.34757858459E+02  0.15592264984E+02  0.20794130597E+02  0.47787270522E+02  0.19999997616E+02 0.  0.
         12    1    1    2    0    0 -0.34757858459E+02 -0.15592264984E+02 -0.20794130597E+02  0.43400729478E+02  0.00000000000E+00 0. -1.
         11    1    3    3    0    0  0.15270839788E+02  0.71967050918E+01  0.33916280921E+01  0.17219008490E+02  0.51100000000E-03 0. -1.
        -11    1    3    3    0    0  0.96610622999E+01 -0.13253782769E+01  0.21520887020E+01  0.99862024005E+01  0.51100000000E-03 0.  1.
         12    1    3    3    0    0  0.98259563706E+01  0.97209381692E+01  0.15250413803E+02  0.20582059631E+02  0.00000000000E+00 0. -1.
</event>
<event>
 7    1  0.2647566E-010  0.4778727E+02  0.7816164E-02  0.1312668E+00
        -11   -1    0    0    0    0  0.00000000000E+00  0.00000000000E+00  0.45593999997E+02  0.45594000000E+02  0.51100000000E-03 0.  1.
         11   -1    0    0    0    0 -0.00000000000E+00 -0.00000000000E+00 -0.45593999997E+02  0.45594000000E+02  0.51100000000E-03 0. -1.
    9900012    2    1    2    0    0  0.23759736509E+02 -0.31992991210E+02  0.17191473298E+02  0.47787270517E+02  0.19999997594E+02 0.  0.
         12    1    1    2    0    0 -0.23759736509E+02  0.31992991210E+02 -0.17191473298E+02  0.43400729483E+02  0.00000000000E+00 0. -1.
         11    1    3    3    0    0  0.15669160961E+01 -0.10945654336E+00  0.61641892379E+01  0.63611662460E+01  0.51100000000E-03 0.  1.
        -11    1    3    3    0    0  0.22881209597E+01 -0.47202860941E+00  0.21924730434E+01  0.32039423905E+01  0.51100000000E-03 0. -1.
        -12    1    3    3    0    0  0.19904699453E+02 -0.31411506057E+02  0.88348110166E+01  0.38222161880E+02  0.00000000000E+00 0.  1.
</event>
<event>
 7    1  0.2647566E-010  0.4778728E+02  0.7816164E-02  0.1312668E+00
        -11   -1    0    0    0    0  0.00000000000E+00  0.00000000000E+00  0.45593999997E+02  0.45594000000E+02  0.51100000000E-03 0. -1.
         11   -1    0    0    0    0 -0.00000000000E+00 -0.00000000000E+00 -0.45593999997E+02  0.45594000000E+02  0.51100000000E-03 0.  1.
    9900012    2    1    2    0    0  0.12228922551E+02 -0.18245627914E+02 -0.37432242998E+02  0.47787282257E+02  0.20000051122E+02 0.  0.
         12    1    1    2    0    0 -0.12228922551E+02  0.18245627914E+02  0.37432242998E+02  0.43400717743E+02  0.00000000000E+00 0. -1.
         11    1    3    3    0    0  0.45769054154E+01 -0.63180764835E+01 -0.66007347601E+01  0.10219386149E+02  0.51100000000E-03 0. -1.
        -11    1    3    3    0    0  0.10182450706E+02 -0.80433329749E+01 -0.30224943618E+02  0.32892624169E+02  0.51100000000E-03 0.  1.
         12    1    3    3    0    0 -0.25304335702E+01 -0.38842184552E+01 -0.60656461996E+00  0.46752719386E+01  0.00000000000E+00 0. -1.
</event>
<event>
 7    1  0.2647566E-010  0.4778728E+02  0.7816164E-02  0.1312668E+00
        -11   -1    0    0    0    0  0.00000000000E+00  0.00000000000E+00  0.45593999997E+02  0.45594000000E+02  0.51100000000E-03 0. -1.
         11   -1    0    0    0    0 -0.00000000000E+00 -0.00000000000E+00 -0.45593999997E+02  0.45594000000E+02  0.51100000000E-03 0.  1.
    9900012    2    1    2    0    0 -0.32413392949E+02  0.28656000966E+02 -0.34392425825E+01  0.47787276235E+02  0.20000023664E+02 0.  0.
         12    1    1    2    0    0  0.32413392949E+02 -0.28656000966E+02  0.34392425825E+01  0.43400723765E+02  0.00000000000E+00 0. -1.
         11    1    3    3    0    0 -0.45716148248E+01  0.12679144820E+02 -0.25505454252E+01  0.13717348785E+02  0.51100000000E-03 0.  1.
        -11    1    3    3    0    0 -0.97794032663E+01  0.11908236895E+02  0.11005421956E+01  0.15448431234E+02  0.51100000000E-03 0. -1.
        -12    1    3    3    0    0 -0.18062374858E+02  0.40686192509E+01 -0.19892393529E+01  0.18621496216E+02  0.00000000000E+00 0.  1.
</event>
<event>
 7    1  0.2647566E-010  0.4778727E+02  0.7816164E-02  0.1312668E+00
        -11   -1    0    0    0    0  0.00000000000E+00  0.00000000000E+00  0.45593999997E+02  0.45594000000E+02  0.51100000000E-03 0.  1.
         11   -1    0    0    0    0 -0.00000000000E+00 -0.00000000000E+00 -0.45593999997E+02  0.45594000000E+02  0.51100000000E-03 0. -1.
    9900012    2    1    2    0    0 -0.35311230359E+02  0.79135363300E+01  0.23960719167E+02  0.47787272935E+02  0.20000008621E+02 0.  0.
         12    1    1    2    0    0  0.35311230359E+02 -0.79135363300E+01 -0.23960719167E+02  0.43400727065E+02  0.00000000000E+00 0. -1.
         11    1    3    3    0    0 -0.23176975737E+02  0.35934701826E+01  0.20168498457E+02  0.30933049681E+02  0.51100000000E-03 0. -1.
        -11    1    3    3    0    0 -0.38822140763E+01  0.32929540911E+01  0.63643020470E+01  0.81498143284E+01  0.51100000000E-03 0.  1.
         12    1    3    3    0    0 -0.82520405460E+01  0.10271120563E+01 -0.25720813371E+01  0.87044089262E+01  0.00000000000E+00 0. -1.
</event>
<event>
 7    1  0.2647566E-010  0.4778727E+02  0.7816164E-02  0.1312668E+00
        -11   -1    0    0    0    0  0.00000000000E+00  0.00000000000E+00  0.45593999997E+02  0.45594000000E+02  0.51100000000E-03 0.  1.
         11   -1    0    0    0    0 -0.00000000000E+00 -0.00000000000E+00 -0.45593999997E+02  0.45594000000E+02  0.51100000000E-03 0. -1.
    9900012    2    1    2    0    0 -0.41985990178E+01  0.11308389460E+02  0.41690712819E+02  0.47787269117E+02  0.19999991210E+02 0.  0.
         12    1    1    2    0    0  0.41985990178E+01 -0.11308389460E+02 -0.41690712819E+02  0.43400730883E+02  0.00000000000E+00 0. -1.
         11    1    3    3    0    0 -0.83835436550E+00 -0.26580706014E+01  0.11170454326E+02  0.11512915681E+02  0.51100000000E-03 0.  1.
        -11    1    3    3    0    0 -0.42972832243E+01 -0.83197123566E+00  0.10373020682E+02  0.11258702304E+02  0.51100000000E-03 0. -1.
        -12    1    3    3    0    0  0.93703857197E+00  0.14798431297E+02  0.20147237810E+02  0.25015651131E+02  0.00000000000E+00 0.  1.
</event>
<event>
 7    1  0.2647566E-010  0.4778727E+02  0.7816164E-02  0.1312668E+00
        -11   -1    0    0    0    0  0.00000000000E+00  0.00000000000E+00  0.45593999997E+02  0.45594000000E+02  0.51100000000E-03 0.  1.
         11   -1    0    0    0    0 -0.00000000000E+00 -0.00000000000E+00 -0.45593999997E+02  0.45594000000E+02  0.51100000000E-03 0. -1.
    9900012    2    1    2    0    0 -0.21585067373E+00  0.28394210205E+02  0.32822940771E+02  0.47787271832E+02  0.20000003589E+02 0.  0.
         12    1    1    2    0    0  0.21585067373E+00 -0.28394210205E+02 -0.32822940771E+02  0.43400728168E+02  0.00000000000E+00 0. -1.
         11    1    3    3    0    0 -0.99179024477E-01 -0.36761138233E+00  0.23238057182E+01  0.23547925353E+01  0.51100000000E-03 0. -1.
        -11    1    3    3    0    0 -0.71530117270E+01  0.21571555230E+02  0.25633004097E+02  0.34257093734E+02  0.51100000000E-03 0.  1.
        -12    1    3    3    0    0  0.70363400778E+01  0.71902663577E+01  0.48661309558E+01  0.11175385562E+02  0.00000000000E+00 0.  1.
</event>
<event>
 7    1  0.2647566E-010  0.4778727E+02  0.7816164E-02  0.1312668E+00
        -11   -1    0    0    0    0  0.00000000000E+00  0.00000000000E+00  0.45593999997E+02  0.45594000000E+02  0.51100000000E-03 0. -1.
         11   -1    0    0    0    0 -0.00000000000E+00 -0.00000000000E+00 -0.45593999997E+02  0.45594000000E+02  0.51100000000E-03 0.  1.
    9900012    2    1    2    0    0 -0.13524620546E+02 -0.36869531538E+02 -0.18475547499E+02  0.47787267608E+02  0.19999984334E+02 0.  0.
         12    1    1    2    0    0  0.13524620546E+02  0.36869531538E+02  0.18475547499E+02  0.43400732392E+02  0.00000000000E+00 0. -1.
         11    1    3    3    0    0 -0.93794683026E+01 -0.18495358854E+02 -0.24514036130E+01  0.20882100103E+02  0.51100000000E-03 0. -1.
        -11    1    3    3    0    0 -0.26242997194E+01  0.49948558632E+00 -0.17660657382E+01  0.32024089872E+01  0.51100000000E-03 0.  1.
        -12    1    3    3    0    0 -0.15208525236E+01 -0.18873658271E+02 -0.14258078147E+02  0.23702758519E+02  0.00000000000E+00 0.  1.
</event>
<event>
 7    1  0.2647566E-010  0.4778727E+02  0.7816164E-02  0.1312668E+00
        -11   -1    0    0    0    0  0.00000000000E+00  0.00000000000E+00  0.45593999997E+02  0.45594000000E+02  0.51100000000E-03 0.  1.
         11   -1    0    0    0    0 -0.00000000000E+00 -0.00000000000E+00 -0.45593999997E+02  0.45594000000E+02  0.51100000000E-03 0. -1.
    9900012    2    1    2    0    0 -0.44894048018E+01 -0.16626384058E+02  0.39837567593E+02  0.47787271964E+02  0.20000004192E+02 0.  0.
         12    1    1    2    0    0  0.44894048018E+01  0.16626384058E+02 -0.39837567593E+02  0.43400728036E+02  0.00000000000E+00 0. -1.
         11    1    3    3    0    0  0.78562333643E+00 -0.17242873156E+02  0.25502690585E+02  0.30794822715E+02  0.51100000000E-03 0. -1.
        -11    1    3    3    0    0  0.60720609691E+00 -0.13521547244E+01  0.79635401958E+01  0.81003082876E+01  0.51100000000E-03 0.  1.
        -12    1    3    3    0    0 -0.58822342352E+01  0.19686438227E+01  0.63713368121E+01  0.88921409610E+01  0.00000000000E+00 0.  1.
</event>
<event>
 7    1  0.2647566E-010  0.4778728E+02  0.7816164E-02  0.1312668E+00
        -11   -1    0    0    0    0  0.00000000000E+00  0.00000000000E+00  0.45593999997E+02  0.45594000000E+02  0.51100000000E-03 0.  1.
         11   -1    0    0    0    0 -0.00000000000E+00 -0.00000000000E+00 -0.45593999997E+02  0.45594000000E+02  0.51100000000E-03 0. -1.
    9900012    2    1    2    0    0  0.27620036152E+02  0.68740383988E+01 -0.32764362240E+02  0.47787283025E+02  0.20000054624E+02 0.  0.
         12    1    1    2    0    0 -0.27620036152E+02 -0.68740383988E+01  0.32764362240E+02  0.43400716975E+02  0.00000000000E+00 0. -1.
         11    1    3    3    0    0  0.70953299274E+01 -0.10618733216E+01 -0.68187820726E-01  0.71746729242E+01  0.51100000000E-03 0. -1.
        -11    1    3    3    0    0 -0.61840210028E+00  0.18807435637E+01 -0.39476951430E+01  0.44163236649E+01  0.51100000000E-03 0.  1.
        -12    1    3    3    0    0  0.21143108325E+02  0.60551681567E+01 -0.28748479276E+02  0.36196286436E+02  0.00000000000E+00 0.  1.
</event>
<event>
 7    1  0.2647566E-010  0.4778727E+02  0.7816164E-02  0.1312668E+00
        -11   -1    0    0    0    0  0.00000000000E+00  0.00000000000E+00  0.45593999997E+02  0.45594000000E+02  0.51100000000E-03 0. -1.
         11   -1    0    0    0    0 -0.00000000000E+00 -0.00000000000E+00 -0.45593999997E+02  0.45594000000E+02  0.51100000000E-03 0.  1.
    9900012    2    1    2    0    0  0.91539361445E+01 -0.19631130130E+02 -0.37609137026E+02  0.47787274142E+02  0.20000014123E+02 0.  0.
         12    1    1    2    0    0 -0.91539361445E+01  0.19631130130E+02  0.37609137026E+02  0.43400725858E+02  0.00000000000E+00 0. -1.
         11    1    3    3    0    0  0.33260810579E+01 -0.11674815928E+02 -0.16412294163E+02  0.20413905607E+02  0.51100000000E-03 0. -1.
        -11    1    3    3    0    0 -0.91492612287E+00 -0.95097371717E+01 -0.16310707011E+02  0.18902681142E+02  0.51100000000E-03 0.  1.
        -12    1    3    3    0    0  0.67427812094E+01  0.15534229691E+01 -0.48861358519E+01  0.84706873937E+01  0.00000000000E+00 0.  1.
</event>
<event>
 7    1  0.2647566E-010  0.4778727E+02  0.7816164E-02  0.1312668E+00
        -11   -1    0    0    0    0  0.00000000000E+00  0.00000000000E+00  0.45593999997E+02  0.45594000000E+02  0.51100000000E-03 0. -1.
         11   -1    0    0    0    0 -0.00000000000E+00 -0.00000000000E+00 -0.45593999997E+02  0.45594000000E+02  0.51100000000E-03 0.  1.
    9900012    2    1    2    0    0  0.73700965969E+01  0.42768713188E+02  0.37686446362E+00  0.47787272144E+02  0.20000005015E+02 0.  0.
         12    1    1    2    0    0 -0.73700965969E+01 -0.42768713188E+02 -0.37686446362E+00  0.43400727856E+02  0.00000000000E+00 0. -1.
         11    1    3    3    0    0 -0.51450660761E+01  0.13488533164E+02  0.11093372600E+01  0.14479049046E+02  0.51100000000E-03 0. -1.
        -11    1    3    3    0    0 -0.90210396529E+00  0.77217692924E+01 -0.14360225391E+01  0.79057999951E+01  0.51100000000E-03 0.  1.
        -12    1    3    3    0    0  0.13417266638E+02  0.21558410731E+02  0.70354974273E+00  0.25402423103E+02  0.00000000000E+00 0.  1.
</event>
<event>
 7    1  0.2647566E-010  0.4778727E+02  0.7816164E-02  0.1312668E+00
        -11   -1    0    0    0    0  0.00000000000E+00  0.00000000000E+00  0.45593999997E+02  0.45594000000E+02  0.51100000000E-03 0.  1.
         11   -1    0    0    0    0 -0.00000000000E+00 -0.00000000000E+00 -0.45593999997E+02  0.45594000000E+02  0.51100000000E-03 0. -1.
    9900012    2    1    2    0    0 -0.32894363207E+02 -0.20111506581E+02  0.19927651281E+02  0.47787272894E+02  0.20000008432E+02 0.  0.
         12    1    1    2    0    0  0.32894363207E+02  0.20111506581E+02 -0.19927651281E+02  0.43400727106E+02  0.00000000000E+00 0. -1.
         11    1    3    3    0    0  0.13323904853E+01 -0.72819931407E+00  0.33566157067E+01  0.36840749056E+01  0.51100000000E-03 0. -1.
        -11    1    3    3    0    0 -0.90846977707E+01 -0.32907183850E+01 -0.57279811742E+00  0.96792902126E+01  0.51100000000E-03 0.  1.
         12    1    3    3    0    0 -0.25142055922E+02 -0.16092588882E+02  0.17143833692E+02  0.34423907776E+02  0.00000000000E+00 0. -1.
</event>
<event>
 7    1  0.2647566E-010  0.4778728E+02  0.7816164E-02  0.1312668E+00
        -11   -1    0    0    0    0  0.00000000000E+00  0.00000000000E+00  0.45593999997E+02  0.45594000000E+02  0.51100000000E-03 0. -1.
         11   -1    0    0    0    0 -0.00000000000E+00 -0.00000000000E+00 -0.45593999997E+02  0.45594000000E+02  0.51100000000E-03 0.  1.
    9900012    2    1    2    0    0 -0.38531087702E+02 -0.24115890401E+01 -0.19828313388E+02  0.47787280041E+02  0.20000041017E+02 0.  0.
         12    1    1    2    0    0  0.38531087702E+02  0.24115890401E+01  0.19828313388E+02  0.43400719959E+02  0.00000000000E+00 0. -1.
         11    1    3    3    0    0 -0.29186312446E+01 -0.56698248770E+01 -0.13447177153E+01  0.65171764188E+01  0.51100000000E-03 0. -1.
        -11    1    3    3    0    0 -0.60788326762E+01  0.23427056031E+01 -0.18938538970E+00  0.65173877692E+01  0.51100000000E-03 0.  1.
        -12    1    3    3    0    0 -0.29533623781E+02  0.91553023391E+00 -0.18294210283E+02  0.34752715853E+02  0.00000000000E+00 0.  1.
</event>
<event>
 7    1  0.2647566E-010  0.4778727E+02  0.7816164E-02  0.1312668E+00
        -11   -1    0    0    0    0  0.00000000000E+00  0.00000000000E+00  0.45593999997E+02  0.45594000000E+02  0.51100000000E-03 0.  1.
         11   -1    0    0    0    0 -0.00000000000E+00 -0.00000000000E+00 -0.45593999997E+02  0.45594000000E+02  0.51100000000E-03 0. -1.
    9900012    2    1    2    0    0 -0.41244356493E+02  0.27001761012E+01  0.13237666724E+02  0.47787265976E+02  0.19999976890E+02 0.  0.
         12    1    1    2    0    0  0.41244356493E+02 -0.27001761012E+01 -0.13237666724E+02  0.43400734024E+02  0.00000000000E+00 0. -1.
         11    1    3    3    0    0 -0.12055594160E+02 -0.21761347353E+01  0.11042863812E+02  0.16492960752E+02  0.51100000000E-03 0. -1.
        -11    1    3    3    0    0 -0.12497193526E+02  0.51335693486E+01  0.49226338257E+01  0.14379349927E+02  0.51100000000E-03 0.  1.
         12    1    3    3    0    0 -0.16691568807E+02 -0.25725851208E+00 -0.27278309137E+01  0.16914955296E+02  0.00000000000E+00 0. -1.
</event>
<event>
 7    1  0.2647566E-010  0.4778727E+02  0.7816164E-02  0.1312668E+00
        -11   -1    0    0    0    0  0.00000000000E+00  0.00000000000E+00  0.45593999997E+02  0.45594000000E+02  0.51100000000E-03 0.  1.
         11   -1    0    0    0    0 -0.00000000000E+00 -0.00000000000E+00 -0.45593999997E+02  0.45594000000E+02  0.51100000000E-03 0. -1.
    9900012    2    1    2    0    0  0.34619825073E+02  0.24916792299E+02  0.80152727242E+01  0.47787269322E+02  0.19999992148E+02 0.  0.
         12    1    1    2    0    0 -0.34619825073E+02 -0.24916792299E+02 -0.80152727242E+01  0.43400730678E+02  0.00000000000E+00 0. -1.
         11    1    3    3    0    0  0.18261608900E+02  0.11703671346E+02  0.96099837681E+01  0.23723702722E+02  0.51100000000E-03 0.  1.
        -11    1    3    3    0    0  0.14738463058E+02  0.48899016420E+01 -0.85472592546E+00  0.15551976982E+02  0.51100000000E-03 0. -1.
         12    1    3    3    0    0  0.16197531152E+01  0.83232193108E+01 -0.73998511843E+00  0.85115896180E+01  0.00000000000E+00 0. -1.
</event>
<event>
 7    1  0.2647566E-010  0.4778727E+02  0.7816164E-02  0.1312668E+00
        -11   -1    0    0    0    0  0.00000000000E+00  0.00000000000E+00  0.45593999997E+02  0.45594000000E+02  0.51100000000E-03 0.  1.
         11   -1    0    0    0    0 -0.00000000000E+00 -0.00000000000E+00 -0.45593999997E+02  0.45594000000E+02  0.51100000000E-03 0. -1.
    9900012    2    1    2    0    0 -0.39857168422E+02 -0.69677031531E+01  0.15699696194E+02  0.47787271637E+02  0.20000002704E+02 0.  0.
         12    1    1    2    0    0  0.39857168422E+02  0.69677031531E+01 -0.15699696194E+02  0.43400728363E+02  0.00000000000E+00 0. -1.
         11    1    3    3    0    0 -0.93247116530E+01  0.19203835570E+01  0.51657543162E+01  0.10831580602E+02  0.51100000000E-03 0. -1.
        -11    1    3    3    0    0 -0.27968957673E+02 -0.88879996031E+01  0.14104130656E+02  0.32560491890E+02  0.51100000000E-03 0.  1.
         12    1    3    3    0    0 -0.25634990952E+01 -0.87106962966E-04 -0.35701887782E+01  0.43951991458E+01  0.00000000000E+00 0. -1.
</event>
<event>
 7    1  0.2647566E-010  0.4778727E+02  0.7816164E-02  0.1312668E+00
        -11   -1    0    0    0    0  0.00000000000E+00  0.00000000000E+00  0.45593999997E+02  0.45594000000E+02  0.51100000000E-03 0.  1.
         11   -1    0    0    0    0 -0.00000000000E+00 -0.00000000000E+00 -0.45593999997E+02  0.45594000000E+02  0.51100000000E-03 0. -1.
    9900012    2    1    2    0    0  0.75015504684E+01  0.22571292554E+02  0.36302709779E+02  0.47787271385E+02  0.20000001553E+02 0.  0.
         12    1    1    2    0    0 -0.75015504684E+01 -0.22571292554E+02 -0.36302709779E+02  0.43400728615E+02  0.00000000000E+00 0. -1.
         11    1    3    3    0    0 -0.39817845441E+01  0.27404297469E+01  0.71661210252E+01  0.86439489912E+01  0.51100000000E-03 0. -1.
        -11    1    3    3    0    0  0.10518343773E+01 -0.16756962121E+01  0.39628114498E+01  0.44292423957E+01  0.51100000000E-03 0.  1.
        -12    1    3    3    0    0  0.10431500635E+02  0.21506559019E+02  0.25173777304E+02  0.34714079998E+02  0.00000000000E+00 0.  1.
</event>
<event>
 7    1  0.2647566E-010  0.4778727E+02  0.7816164E-02  0.1312668E+00
        -11   -1    0    0    0    0  0.00000000000E+00  0.00000000000E+00  0.45593999997E+02  0.45594000000E+02  0.51100000000E-03 0.  1.
         11   -1    0    0    0    0 -0.00000000000E+00 -0.00000000000E+00 -0.45593999997E+02  0.45594000000E+02  0.51100000000E-03 0. -1.
    9900012    2    1    2    0    0 -0.22737318589E+02  0.20161609993E+02  0.30986247659E+02  0.47787265927E+02  0.19999976667E+02 0.  0.
         12    1    1    2    0    0  0.22737318589E+02 -0.20161609993E+02 -0.30986247659E+02  0.43400734073E+02  0.00000000000E+00 0. -1.
         11    1    3    3    0    0 -0.34453481777E+00  0.10566201690E+02  0.10815328461E+02  0.15123976077E+02  0.51100000000E-03 0. -1.
        -11    1    3    3    0    0 -0.30095046967E+01  0.48817239498E+01  0.48451384156E+01  0.75075770904E+01  0.51100000000E-03 0.  1.
        -12    1    3    3    0    0 -0.19383279075E+02  0.47136843527E+01  0.15325780782E+02  0.25155712759E+02  0.00000000000E+00 0.  1.
</event>
<event>
 7    1  0.2647566E-010  0.4778727E+02  0.7816164E-02  0.1312668E+00
        -11   -1    0    0    0    0  0.00000000000E+00  0.00000000000E+00  0.45593999997E+02  0.45594000000E+02  0.51100000000E-03 0.  1.
         11   -1    0    0    0    0 -0.00000000000E+00 -0.00000000000E+00 -0.45593999997E+02  0.45594000000E+02  0.51100000000E-03 0. -1.
    9900012    2    1    2    0    0  0.33723475576E+00  0.19525496251E+02  0.38759060796E+02  0.47787268152E+02  0.19999986813E+02 0.  0.
         12    1    1    2    0    0 -0.33723475576E+00 -0.19525496251E+02 -0.38759060796E+02  0.43400731848E+02  0.00000000000E+00 0. -1.
         11    1    3    3    0    0  0.17637611800E+00  0.24198109783E+01  0.67261227895E-01  0.24271625490E+01  0.51100000000E-03 0. -1.
        -11    1    3    3    0    0  0.61929897001E+01  0.19439278287E+01  0.17139340796E+02  0.18327274211E+02  0.51100000000E-03 0.  1.
        -12    1    3    3    0    0 -0.60321310624E+01  0.15161757444E+02  0.21552458772E+02  0.27032831392E+02  0.00000000000E+00 0.  1.
</event>
<event>
 7    1  0.2647566E-010  0.4778727E+02  0.7816164E-02  0.1312668E+00
        -11   -1    0    0    0    0  0.00000000000E+00  0.00000000000E+00  0.45593999997E+02  0.45594000000E+02  0.51100000000E-03 0. -1.
         11   -1    0    0    0    0 -0.00000000000E+00 -0.00000000000E+00 -0.45593999997E+02  0.45594000000E+02  0.51100000000E-03 0.  1.
    9900012    2    1    2    0    0 -0.19689693701E+01 -0.22781551286E+02 -0.36888306669E+02  0.47787273183E+02  0.20000009749E+02 0.  0.
         12    1    1    2    0    0  0.19689693701E+01  0.22781551286E+02  0.36888306669E+02  0.43400726817E+02  0.00000000000E+00 0. -1.
         11    1    3    3    0    0  0.59363853815E+01 -0.49188345357E+01 -0.33370576315E+01  0.84006879769E+01  0.51100000000E-03 0. -1.
        -11    1    3    3    0    0 -0.78495711488E+01 -0.17980013785E+02 -0.30077087896E+02  0.35909996930E+02  0.51100000000E-03 0.  1.
        -12    1    3    3    0    0 -0.55783602825E-01  0.11729703448E+00 -0.34741611412E+01  0.34765882758E+01  0.00000000000E+00 0.  1.
</event>
<event>
 7    1  0.2647566E-010  0.4778727E+02  0.7816164E-02  0.1312668E+00
        -11   -1    0    0    0    0  0.00000000000E+00  0.00000000000E+00  0.45593999997E+02  0.45594000000E+02  0.51100000000E-03 0.  1.
         11   -1    0    0    0    0 -0.00000000000E+00 -0.00000000000E+00 -0.45593999997E+02  0.45594000000E+02  0.51100000000E-03 0. -1.
    9900012    2    1    2    0    0  0.15200191344E+01 -0.17592860442E+02  0.39645982582E+02  0.47787272683E+02  0.20000007473E+02 0.  0.
         12    1    1    2    0    0 -0.15200191344E+01  0.17592860442E+02 -0.39645982582E+02  0.43400727317E+02  0.00000000000E+00 0. -1.
         11    1    3    3    0    0 -0.48714791895E+01 -0.42841190156E+01  0.12293205552E+02  0.13899924037E+02  0.51100000000E-03 0. -1.
        -11    1    3    3    0    0 -0.21370680784E+01 -0.70141649796E+01  0.19082584784E+02  0.20442862144E+02  0.51100000000E-03 0.  1.
         12    1    3    3    0    0  0.85285664023E+01 -0.62945764470E+01  0.82701922461E+01  0.13444486502E+02  0.00000000000E+00 0. -1.
</event>
<event>
 7    1  0.2647566E-010  0.4778727E+02  0.7816164E-02  0.1312668E+00
        -11   -1    0    0    0    0  0.00000000000E+00  0.00000000000E+00  0.45593999997E+02  0.45594000000E+02  0.51100000000E-03 0.  1.
         11   -1    0    0    0    0 -0.00000000000E+00 -0.00000000000E+00 -0.45593999997E+02  0.45594000000E+02  0.51100000000E-03 0. -1.
    9900012    2    1    2    0    0  0.58683877277E+01  0.86776928058E+01  0.42117490190E+02  0.47787270664E+02  0.19999998268E+02 0.  0.
         12    1    1    2    0    0 -0.58683877277E+01 -0.86776928058E+01 -0.42117490190E+02  0.43400729336E+02  0.00000000000E+00 0. -1.
         11    1    3    3    0    0  0.17306279590E+01 -0.26100034487E+01  0.18812553220E+02  0.19071427583E+02  0.51100000000E-03 0.  1.
        -11    1    3    3    0    0  0.71925478016E+01  0.64982917806E+01  0.19787892499E+02  0.22034546280E+02  0.51100000000E-03 0. -1.
         12    1    3    3    0    0 -0.30547880329E+01  0.47894044739E+01  0.35170444708E+01  0.66812968015E+01  0.00000000000E+00 0. -1.
</event>
<event>
 7    1  0.2647566E-010  0.4778727E+02  0.7816164E-02  0.1312668E+00
        -11   -1    0    0    0    0  0.00000000000E+00  0.00000000000E+00  0.45593999997E+02  0.45594000000E+02  0.51100000000E-03 0.  1.
         11   -1    0    0    0    0 -0.00000000000E+00 -0.00000000000E+00 -0.45593999997E+02  0.45594000000E+02  0.51100000000E-03 0. -1.
    9900012    2    1    2    0    0  0.25246487302E+01 -0.89824275793E+01  0.42385912924E+02  0.47787268775E+02  0.19999989654E+02 0.  0.
         12    1    1    2    0    0 -0.25246487302E+01  0.89824275793E+01 -0.42385912924E+02  0.43400731225E+02  0.00000000000E+00 0. -1.
         11    1    3    3    0    0 -0.38040271319E+01 -0.30060998618E+01  0.13549790361E+01  0.50342057217E+01  0.51100000000E-03 0. -1.
        -11    1    3    3    0    0  0.78529804893E+00 -0.61371451051E+01  0.17011228954E+02  0.18101468279E+02  0.51100000000E-03 0.  1.
         12    1    3    3    0    0  0.55433778132E+01  0.16081738752E+00  0.24019704934E+02  0.24651594775E+02  0.00000000000E+00 0. -1.
</event>
<event>
 7    1  0.2647566E-010  0.4778727E+02  0.7816164E-02  0.1312668E+00
        -11   -1    0    0    0    0  0.00000000000E+00  0.00000000000E+00  0.45593999997E+02  0.45594000000E+02  0.51100000000E-03 0.  1.
         11   -1    0    0    0    0 -0.00000000000E+00 -0.00000000000E+00 -0.45593999997E+02  0.45594000000E+02  0.51100000000E-03 0. -1.
    9900012    2    1    2    0    0  0.42291591276E+02 -0.32564289300E+01  0.91891420071E+01  0.47787270134E+02  0.19999995851E+02 0.  0.
         12    1    1    2    0    0 -0.42291591276E+02  0.32564289300E+01 -0.91891420071E+01  0.43400729866E+02  0.00000000000E+00 0. -1.
         11    1    3    3    0    0  0.51594367552E+01  0.37504624096E+01  0.13475723721E+01  0.65193333614E+01  0.51100000000E-03 0. -1.
        -11    1    3    3    0    0  0.13403763754E+01  0.19066200624E+01 -0.20235278216E+01  0.30864986629E+01  0.51100000000E-03 0.  1.
        -12    1    3    3    0    0  0.35791778146E+02 -0.89135114021E+01  0.98650974566E+01  0.38181438110E+02  0.00000000000E+00 0.  1.
</event>
<event>
 7    1  0.2647566E-010  0.4778731E+02  0.7816164E-02  0.1312668E+00
        -11   -1    0    0    0    0  0.00000000000E+00  0.00000000000E+00  0.45593999997E+02  0.45594000000E+02  0.51100000000E-03 0. -1.
         11   -1    0    0    0    0 -0.00000000000E+00 -0.00000000000E+00 -0.45593999997E+02  0.45594000000E+02  0.51100000000E-03 0.  1.
    9900012    2    1    2    0    0  0.40973544449E+02  0.19446020166E+01  0.14177703527E+02  0.47787307620E+02  0.20000166762E+02 0.  0.
         12    1    1    2    0    0 -0.40973544449E+02 -0.19446020166E+01 -0.14177703527E+02  0.43400692380E+02  0.00000000000E+00 0. -1.
         11    1    3    3    0    0  0.21126468984E+02  0.22713556246E+01  0.44248745365E+01  0.21704060980E+02  0.51100000000E-03 0. -1.
        -11    1    3    3    0    0  0.16974026386E+02  0.17159211849E+01  0.15208093863E+01  0.17128187841E+02  0.51100000000E-03 0.  1.
         12    1    3    3    0    0  0.28730490795E+01 -0.20426747929E+01  0.82320196045E+01  0.89550587989E+01  0.00000000000E+00 0. -1.
</event>
<event>
 7    1  0.2647566E-010  0.4778726E+02  0.7816164E-02  0.1312668E+00
        -11   -1    0    0    0    0  0.00000000000E+00  0.00000000000E+00  0.45593999997E+02  0.45594000000E+02  0.51100000000E-03 0. -1.
         11   -1    0    0    0    0 -0.00000000000E+00 -0.00000000000E+00 -0.45593999997E+02  0.45594000000E+02  0.51100000000E-03 0.  1.
    9900012    2    1    2    0    0  0.22545821302E+02 -0.56921232892E+01 -0.36645735820E+02  0.47787259459E+02  0.19999947176E+02 0.  0.
         12    1    1    2    0    0 -0.22545821302E+02  0.56921232892E+01  0.36645735820E+02  0.43400740541E+02  0.00000000000E+00 0. -1.
         11    1    3    3    0    0  0.97046985165E+01  0.41273720387E+01 -0.67818739339E+01  0.12538348678E+02  0.51100000000E-03 0. -1.
        -11    1    3    3    0    0 -0.10336075107E+01  0.74832587012E+00 -0.23112924441E+01  0.26401532374E+01  0.51100000000E-03 0.  1.
        -12    1    3    3    0    0  0.13874730296E+02 -0.10567821198E+02 -0.27552569442E+02  0.32608757544E+02  0.00000000000E+00 0.  1.
</event>
<event>
 7    1  0.2647566E-010  0.4778727E+02  0.7816164E-02  0.1312668E+00
        -11   -1    0    0    0    0  0.00000000000E+00  0.00000000000E+00  0.45593999997E+02  0.45594000000E+02  0.51100000000E-03 0. -1.
         11   -1    0    0    0    0 -0.00000000000E+00 -0.00000000000E+00 -0.45593999997E+02  0.45594000000E+02  0.51100000000E-03 0.  1.
    9900012    2    1    2    0    0  0.31613230281E+02 -0.29670357184E+02  0.19739668667E+01  0.47787274552E+02  0.20000015994E+02 0.  0.
         12    1    1    2    0    0 -0.31613230281E+02  0.29670357184E+02 -0.19739668667E+01  0.43400725448E+02  0.00000000000E+00 0. -1.
         11    1    3    3    0    0  0.11768639740E+02 -0.82146648162E+01  0.66888842146E+01  0.15834227852E+02  0.51100000000E-03 0. -1.
        -11    1    3    3    0    0  0.17210076718E+02 -0.13886495295E+02  0.95693852636E+00  0.22134525607E+02  0.51100000000E-03 0.  1.
         12    1    3    3    0    0  0.26345138222E+01 -0.75691970724E+01 -0.56718558742E+01  0.98185210933E+01  0.00000000000E+00 0. -1.
</event>
<event>
 7    1  0.2647566E-010  0.4778727E+02  0.7816164E-02  0.1312668E+00
        -11   -1    0    0    0    0  0.00000000000E+00  0.00000000000E+00  0.45593999997E+02  0.45594000000E+02  0.51100000000E-03 0.  1.
         11   -1    0    0    0    0 -0.00000000000E+00 -0.00000000000E+00 -0.45593999997E+02  0.45594000000E+02  0.51100000000E-03 0. -1.
    9900012    2    1    2    0    0 -0.11673692031E+02 -0.34162805647E+02  0.24088397030E+02  0.47787271356E+02  0.20000001421E+02 0.  0.
         12    1    1    2    0    0  0.11673692031E+02  0.34162805647E+02 -0.24088397030E+02  0.43400728644E+02  0.00000000000E+00 0. -1.
         11    1    3    3    0    0 -0.33919797531E+01 -0.47200205272E+01  0.44766751566E+01  0.73365346821E+01  0.51100000000E-03 0. -1.
        -11    1    3    3    0    0 -0.51850154937E+01 -0.24054484343E+02  0.57649672078E+01  0.25273255624E+02  0.51100000000E-03 0.  1.
        -12    1    3    3    0    0 -0.30966967846E+01 -0.53883007769E+01  0.13846754666E+02  0.15177481050E+02  0.00000000000E+00 0.  1.
</event>
<event>
 7    1  0.2647566E-010  0.4778727E+02  0.7816164E-02  0.1312668E+00
        -11   -1    0    0    0    0  0.00000000000E+00  0.00000000000E+00  0.45593999997E+02  0.45594000000E+02  0.51100000000E-03 0.  1.
         11   -1    0    0    0    0 -0.00000000000E+00 -0.00000000000E+00 -0.45593999997E+02  0.45594000000E+02  0.51100000000E-03 0. -1.
    9900012    2    1    2    0    0 -0.19472110674E+02  0.22261819239E+02  0.31762737051E+02  0.47787272415E+02  0.20000006249E+02 0.  0.
         12    1    1    2    0    0  0.19472110674E+02 -0.22261819239E+02 -0.31762737051E+02  0.43400727585E+02  0.00000000000E+00 0. -1.
         11    1    3    3    0    0 -0.22801631688E+01  0.46589024335E+01 -0.39058562146E+00  0.52016414092E+01  0.51100000000E-03 0. -1.
        -11    1    3    3    0    0 -0.93940228260E+01  0.12851915940E+02  0.10458040211E+02  0.19047047370E+02  0.51100000000E-03 0.  1.
        -12    1    3    3    0    0 -0.77979246787E+01  0.47510008657E+01  0.21695282461E+02  0.23538583636E+02  0.00000000000E+00 0.  1.
</event>
<event>
 7    1  0.2647566E-010  0.4778727E+02  0.7816164E-02  0.1312668E+00
        -11   -1    0    0    0    0  0.00000000000E+00  0.00000000000E+00  0.45593999997E+02  0.45594000000E+02  0.51100000000E-03 0.  1.
         11   -1    0    0    0    0 -0.00000000000E+00 -0.00000000000E+00 -0.45593999997E+02  0.45594000000E+02  0.51100000000E-03 0. -1.
    9900012    2    1    2    0    0 -0.40476633256E+02  0.12771420368E+02 -0.90640026968E+01  0.47787272323E+02  0.20000005832E+02 0.  0.
         12    1    1    2    0    0  0.40476633256E+02 -0.12771420368E+02  0.90640026968E+01  0.43400727677E+02  0.00000000000E+00 0. -1.
         11    1    3    3    0    0 -0.84438271287E+01  0.44862748569E+01 -0.80092619730E+01  0.12472896868E+02  0.51100000000E-03 0. -1.
        -11    1    3    3    0    0 -0.24344236991E+02  0.76287684108E+01 -0.59235285695E+01  0.26190230490E+02  0.51100000000E-03 0.  1.
         12    1    3    3    0    0 -0.76885691362E+01  0.65637710027E+00  0.48687878457E+01  0.91241449652E+01  0.00000000000E+00 0. -1.
</event>
<event>
 7    1  0.2647566E-010  0.4778726E+02  0.7816164E-02  0.1312668E+00
        -11   -1    0    0    0    0  0.00000000000E+00  0.00000000000E+00  0.45593999997E+02  0.45594000000E+02  0.51100000000E-03 0. -1.
         11   -1    0    0    0    0 -0.00000000000E+00 -0.00000000000E+00 -0.45593999997E+02  0.45594000000E+02  0.51100000000E-03 0.  1.
    9900012    2    1    2    0    0  0.29022289598E+02 -0.30083298122E+02  0.11675894077E+02  0.47787255514E+02  0.19999929189E+02 0.  0.
         12    1    1    2    0    0 -0.29022289598E+02  0.30083298122E+02 -0.11675894077E+02  0.43400744486E+02  0.00000000000E+00 0. -1.
         11    1    3    3    0    0  0.23175176447E+01 -0.64571935195E+01  0.40390993929E+01  0.79611908876E+01  0.51100000000E-03 0. -1.
        -11    1    3    3    0    0  0.22160026167E+02 -0.22212869763E+02  0.66353013475E+00  0.31383413060E+02  0.51100000000E-03 0.  1.
        -12    1    3    3    0    0  0.45447457865E+01 -0.14132348404E+01  0.69732645498E+01  0.84426515657E+01  0.00000000000E+00 0.  1.
</event>
<event>
 7    1  0.2647566E-010  0.4778725E+02  0.7816164E-02  0.1312668E+00
        -11   -1    0    0    0    0  0.00000000000E+00  0.00000000000E+00  0.45593999997E+02  0.45594000000E+02  0.51100000000E-03 0.  1.
         11   -1    0    0    0    0 -0.00000000000E+00 -0.00000000000E+00 -0.45593999997E+02  0.45594000000E+02  0.51100000000E-03 0. -1.
    9900012    2    1    2    0    0  0.60208532198E+01 -0.42858734925E+01  0.42766873754E+02  0.47787252590E+02  0.19999915858E+02 0.  0.
         12    1    1    2    0    0 -0.60208532198E+01  0.42858734925E+01 -0.42766873754E+02  0.43400747410E+02  0.00000000000E+00 0. -1.
         11    1    3    3    0    0 -0.49835960475E+01 -0.16201821539E+01  0.22234315545E+02  0.22843511284E+02  0.51100000000E-03 0. -1.
        -11    1    3    3    0    0  0.33703366129E+01 -0.39838596728E+00  0.14663211898E+02  0.15050835980E+02  0.51100000000E-03 0.  1.
        -12    1    3    3    0    0  0.76341126545E+01 -0.22673053713E+01  0.58693463107E+01  0.98929053257E+01  0.00000000000E+00 0.  1.
</event>
<event>
 7    1  0.2647566E-010  0.4778727E+02  0.7816164E-02  0.1312668E+00
        -11   -1    0    0    0    0  0.00000000000E+00  0.00000000000E+00  0.45593999997E+02  0.45594000000E+02  0.51100000000E-03 0.  1.
         11   -1    0    0    0    0 -0.00000000000E+00 -0.00000000000E+00 -0.45593999997E+02  0.45594000000E+02  0.51100000000E-03 0. -1.
    9900012    2    1    2    0    0  0.21096061187E+01  0.13601286063E+02  0.41160394442E+02  0.47787268541E+02  0.19999988587E+02 0.  0.
         12    1    1    2    0    0 -0.21096061187E+01 -0.13601286063E+02 -0.41160394442E+02  0.43400731459E+02  0.00000000000E+00 0. -1.
         11    1    3    3    0    0  0.65846463415E+01  0.12666646530E+01  0.15994318673E+02  0.17343016948E+02  0.51100000000E-03 0. -1.
        -11    1    3    3    0    0  0.20748461025E+00  0.13498836468E+01  0.14093507692E+02  0.14159526653E+02  0.51100000000E-03 0.  1.
        -12    1    3    3    0    0 -0.46825248331E+01  0.10984737764E+02  0.11072568077E+02  0.16284724940E+02  0.00000000000E+00 0.  1.
</event>
<event>
 7    1  0.2647566E-010  0.4778726E+02  0.7816164E-02  0.1312668E+00
        -11   -1    0    0    0    0  0.00000000000E+00  0.00000000000E+00  0.45593999997E+02  0.45594000000E+02  0.51100000000E-03 0.  1.
         11   -1    0    0    0    0 -0.00000000000E+00 -0.00000000000E+00 -0.45593999997E+02  0.45594000000E+02  0.51100000000E-03 0. -1.
    9900012    2    1    2    0    0  0.24144473482E+02  0.34841797905E+02  0.93122163723E+01  0.47787264352E+02  0.19999969488E+02 0.  0.
         12    1    1    2    0    0 -0.24144473482E+02 -0.34841797905E+02 -0.93122163723E+01  0.43400735648E+02  0.00000000000E+00 0. -1.
         11    1    3    3    0    0  0.31711542698E+01  0.25962566050E+01  0.33386390443E+01  0.52861402451E+01  0.51100000000E-03 0. -1.
        -11    1    3    3    0    0  0.11440130843E+02  0.56881372193E+01  0.63821008731E+01  0.14281551405E+02  0.51100000000E-03 0.  1.
         12    1    3    3    0    0  0.95331883696E+01  0.26557404081E+02 -0.40852354504E+00  0.28219572702E+02  0.00000000000E+00 0. -1.
</event>
<event>
 7    1  0.2647566E-010  0.4778728E+02  0.7816164E-02  0.1312668E+00
        -11   -1    0    0    0    0  0.00000000000E+00  0.00000000000E+00  0.45593999997E+02  0.45594000000E+02  0.51100000000E-03 0.  1.
         11   -1    0    0    0    0 -0.00000000000E+00 -0.00000000000E+00 -0.45593999997E+02  0.45594000000E+02  0.51100000000E-03 0. -1.
    9900012    2    1    2    0    0  0.27183699644E+02 -0.30420970188E+02 -0.14806549159E+02  0.47787275911E+02  0.20000022188E+02 0.  0.
         12    1    1    2    0    0 -0.27183699644E+02  0.30420970188E+02  0.14806549159E+02  0.43400724089E+02  0.00000000000E+00 0. -1.
         11    1    3    3    0    0  0.97431671812E+01 -0.84895235450E+01 -0.23770298771E+01  0.13139695127E+02  0.51100000000E-03 0. -1.
        -11    1    3    3    0    0  0.11220830597E+02 -0.40319648481E+01  0.11222217422E+00  0.11923773476E+02  0.51100000000E-03 0.  1.
         12    1    3    3    0    0  0.62197018651E+01 -0.17899481794E+02 -0.12541741456E+02  0.22723807307E+02  0.00000000000E+00 0. -1.
</event>
<event>
 7    1  0.2647566E-010  0.4778730E+02  0.7816164E-02  0.1312668E+00
        -11   -1    0    0    0    0  0.00000000000E+00  0.00000000000E+00  0.45593999997E+02  0.45594000000E+02  0.51100000000E-03 0. -1.
         11   -1    0    0    0    0 -0.00000000000E+00 -0.00000000000E+00 -0.45593999997E+02  0.45594000000E+02  0.51100000000E-03 0.  1.
    9900012    2    1    2    0    0  0.39422751190E+02 -0.13471200926E+02 -0.12165288765E+02  0.47787299355E+02  0.20000129077E+02 0.  0.
         12    1    1    2    0    0 -0.39422751190E+02  0.13471200926E+02  0.12165288765E+02  0.43400700645E+02  0.00000000000E+00 0. -1.
         11    1    3    3    0    0  0.11821540349E+02 -0.34856407708E+01 -0.72416065793E+01  0.14294732383E+02  0.51100000000E-03 0. -1.
        -11    1    3    3    0    0  0.13364034606E+02 -0.55064341801E-01 -0.84064970448E+01  0.15788275582E+02  0.51100000000E-03 0.  1.
         12    1    3    3    0    0  0.14237176236E+02 -0.99304958130E+01  0.34828148589E+01  0.17704291390E+02  0.00000000000E+00 0. -1.
</event>
<event>
 7    1  0.2647566E-010  0.4778727E+02  0.7816164E-02  0.1312668E+00
        -11   -1    0    0    0    0  0.00000000000E+00  0.00000000000E+00  0.45593999997E+02  0.45594000000E+02  0.51100000000E-03 0. -1.
         11   -1    0    0    0    0 -0.00000000000E+00 -0.00000000000E+00 -0.45593999997E+02  0.45594000000E+02  0.51100000000E-03 0.  1.
    9900012    2    1    2    0    0  0.12767032609E+02  0.13060868050E+02 -0.39370542333E+02  0.47787274206E+02  0.20000014415E+02 0.  0.
         12    1    1    2    0    0 -0.12767032609E+02 -0.13060868050E+02  0.39370542333E+02  0.43400725794E+02  0.00000000000E+00 0. -1.
         11    1    3    3    0    0 -0.62053776024E+00 -0.21586177524E+01 -0.96756166413E+01  0.99328875642E+01  0.51100000000E-03 0. -1.
        -11    1    3    3    0    0  0.84870522372E+01  0.82871160718E+01 -0.26034185976E+02  0.28609180138E+02  0.51100000000E-03 0.  1.
         12    1    3    3    0    0  0.49005181317E+01  0.69323697303E+01 -0.36607397159E+01  0.92452065042E+01  0.00000000000E+00 0. -1.
</event>
<event>
 7    1  0.2647566E-010  0.4778726E+02  0.7816164E-02  0.1312668E+00
        -11   -1    0    0    0    0  0.00000000000E+00  0.00000000000E+00  0.45593999997E+02  0.45594000000E+02  0.51100000000E-03 0.  1.
         11   -1    0    0    0    0 -0.00000000000E+00 -0.00000000000E+00 -0.45593999997E+02  0.45594000000E+02  0.51100000000E-03 0. -1.
    9900012    2    1    2    0    0 -0.29476877151E+02 -0.28759937290E+02  0.13696859984E+02  0.47787259765E+02  0.19999948572E+02 0.  0.
         12    1    1    2    0    0  0.29476877151E+02  0.28759937290E+02 -0.13696859984E+02  0.43400740235E+02  0.00000000000E+00 0. -1.
         11    1    3    3    0    0 -0.62575787194E+01 -0.93426375366E+01  0.22286405308E+01  0.11463376747E+02  0.51100000000E-03 0. -1.
        -11    1    3    3    0    0 -0.17030295014E+02 -0.16391746618E+02  0.15571646000E+02  0.28305414056E+02  0.51100000000E-03 0.  1.
         12    1    3    3    0    0 -0.61890034174E+01 -0.30255531359E+01 -0.41034265460E+01  0.80184689621E+01  0.00000000000E+00 0. -1.
</event>
<event>
 7    1  0.2647566E-010  0.4778729E+02  0.7816164E-02  0.1312668E+00
        -11   -1    0    0    0    0  0.00000000000E+00  0.00000000000E+00  0.45593999997E+02  0.45594000000E+02  0.51100000000E-03 0. -1.
         11   -1    0    0    0    0 -0.00000000000E+00 -0.00000000000E+00 -0.45593999997E+02  0.45594000000E+02  0.51100000000E-03 0.  1.
    9900012    2    1    2    0    0  0.24955245192E+02 -0.13133688557E+02 -0.32990352659E+02  0.47787292560E+02  0.20000098099E+02 0.  0.
         12    1    1    2    0    0 -0.24955245192E+02  0.13133688557E+02  0.32990352659E+02  0.43400707440E+02  0.00000000000E+00 0. -1.
         11    1    3    3    0    0  0.57797052314E+01  0.41814963099E+01 -0.63950032273E+01  0.95804994906E+01  0.51100000000E-03 0.  1.
        -11    1    3    3    0    0 -0.80407308565E+00 -0.22481022478E+01 -0.27350046427E+01  0.36305299751E+01  0.51100000000E-03 0. -1.
        -12    1    3    3    0    0  0.19979613047E+02 -0.15067082619E+02 -0.23860344789E+02  0.34576263094E+02  0.00000000000E+00 0.  1.
</event>
<event>
 7    1  0.2647566E-010  0.4778727E+02  0.7816164E-02  0.1312668E+00
        -11   -1    0    0    0    0  0.00000000000E+00  0.00000000000E+00  0.45593999997E+02  0.45594000000E+02  0.51100000000E-03 0.  1.
         11   -1    0    0    0    0 -0.00000000000E+00 -0.00000000000E+00 -0.45593999997E+02  0.45594000000E+02  0.51100000000E-03 0. -1.
    9900012    2    1    2    0    0 -0.16143534579E+02 -0.57131843292E+01  0.39879428978E+02  0.47787273744E+02  0.20000012309E+02 0.  0.
         12    1    1    2    0    0  0.16143534579E+02  0.57131843292E+01 -0.39879428978E+02  0.43400726256E+02  0.00000000000E+00 0. -1.
         11    1    3    3    0    0 -0.51776291438E+01 -0.74854446557E+00  0.13511565717E+02  0.14488981012E+02  0.51100000000E-03 0. -1.
        -11    1    3    3    0    0 -0.12780295984E+01  0.56090316757E+01  0.53634582119E+01  0.78651942280E+01  0.51100000000E-03 0.  1.
        -12    1    3    3    0    0 -0.96878758370E+01 -0.10573671539E+02  0.21004405049E+02  0.25433098504E+02  0.00000000000E+00 0.  1.
</event>
<event>
 7    1  0.2647566E-010  0.4778727E+02  0.7816164E-02  0.1312668E+00
        -11   -1    0    0    0    0  0.00000000000E+00  0.00000000000E+00  0.45593999997E+02  0.45594000000E+02  0.51100000000E-03 0. -1.
         11   -1    0    0    0    0 -0.00000000000E+00 -0.00000000000E+00 -0.45593999997E+02  0.45594000000E+02  0.51100000000E-03 0.  1.
    9900012    2    1    2    0    0 -0.41346837900E+02 -0.89404956246E+01 -0.97020461969E+01  0.47787272279E+02  0.20000005627E+02 0.  0.
         12    1    1    2    0    0  0.41346837900E+02  0.89404956246E+01  0.97020461969E+01  0.43400727721E+02  0.00000000000E+00 0. -1.
         11    1    3    3    0    0 -0.25659927507E+01  0.45683689499E+00 -0.43149951629E+01  0.50410517020E+01  0.51100000000E-03 0. -1.
        -11    1    3    3    0    0 -0.14550621819E+02  0.32612985895E+01 -0.15493418688E+00  0.14912433358E+02  0.51100000000E-03 0.  1.
         12    1    3    3    0    0 -0.24230223331E+02 -0.12658631109E+02 -0.52321168471E+01  0.27833787218E+02  0.00000000000E+00 0. -1.
</event>
<event>
 7    1  0.2647566E-010  0.4778728E+02  0.7816164E-02  0.1312668E+00
        -11   -1    0    0    0    0  0.00000000000E+00  0.00000000000E+00  0.45593999997E+02  0.45594000000E+02  0.51100000000E-03 0.  1.
         11   -1    0    0    0    0 -0.00000000000E+00 -0.00000000000E+00 -0.45593999997E+02  0.45594000000E+02  0.51100000000E-03 0. -1.
    9900012    2    1    2    0    0  0.36352119813E+02  0.20963606965E+02 -0.11075785677E+02  0.47787280418E+02  0.20000042738E+02 0.  0.
         12    1    1    2    0    0 -0.36352119813E+02 -0.20963606965E+02  0.11075785677E+02  0.43400719582E+02  0.00000000000E+00 0. -1.
         11    1    3    3    0    0  0.92237113812E+01  0.69753519872E+01 -0.87454486201E+01  0.14498801979E+02  0.51100000000E-03 0. -1.
        -11    1    3    3    0    0  0.18007608509E+02  0.15598248087E+02 -0.39802819849E+00  0.23827247729E+02  0.51100000000E-03 0.  1.
        -12    1    3    3    0    0  0.91207999222E+01 -0.16099931094E+01 -0.19323088587E+01  0.94612307105E+01  0.00000000000E+00 0.  1.
</event>
<event>
 7    1  0.2647566E-010  0.4778725E+02  0.7816164E-02  0.1312668E+00
        -11   -1    0    0    0    0  0.00000000000E+00  0.00000000000E+00  0.45593999997E+02  0.45594000000E+02  0.51100000000E-03 0. -1.
         11   -1    0    0    0    0 -0.00000000000E+00 -0.00000000000E+00 -0.45593999997E+02  0.45594000000E+02  0.51100000000E-03 0.  1.
    9900012    2    1    2    0    0  0.12612787691E+02  0.21492489878E+02 -0.35533299785E+02  0.47787251987E+02  0.19999913110E+02 0.  0.
         12    1    1    2    0    0 -0.12612787691E+02 -0.21492489878E+02  0.35533299785E+02  0.43400748013E+02  0.00000000000E+00 0. -1.
         11    1    3    3    0    0  0.10138660582E+01  0.78090432735E+01 -0.47479961051E+01  0.91952459731E+01  0.51100000000E-03 0.  1.
        -11    1    3    3    0    0  0.22513009283E+01 -0.37141949379E-01  0.12023671435E+01  0.25525325469E+01  0.51100000000E-03 0. -1.
        -12    1    3    3    0    0  0.93476207040E+01  0.13720588554E+02 -0.31987670823E+02  0.36039473467E+02  0.00000000000E+00 0.  1.
</event>
<event>
 7    1  0.2647566E-010  0.4778727E+02  0.7816164E-02  0.1312668E+00
        -11   -1    0    0    0    0  0.00000000000E+00  0.00000000000E+00  0.45593999997E+02  0.45594000000E+02  0.51100000000E-03 0.  1.
         11   -1    0    0    0    0 -0.00000000000E+00 -0.00000000000E+00 -0.45593999997E+02  0.45594000000E+02  0.51100000000E-03 0. -1.
    9900012    2    1    2    0    0 -0.39995145002E+02 -0.16844732428E+02 -0.51645331432E+00  0.47787270072E+02  0.19999995566E+02 0.  0.
         12    1    1    2    0    0  0.39995145002E+02  0.16844732428E+02  0.51645331432E+00  0.43400729928E+02  0.00000000000E+00 0. -1.
         11    1    3    3    0    0 -0.60898014958E+01  0.27600793080E+01 -0.71108371180E+00  0.67237906237E+01  0.51100000000E-03 0.  1.
        -11    1    3    3    0    0 -0.14931936562E+02 -0.19260297565E+01 -0.11181045064E+01  0.15097101644E+02  0.51100000000E-03 0. -1.
         12    1    3    3    0    0 -0.18973406944E+02 -0.17678781979E+02  0.13127349039E+01  0.25966377804E+02  0.00000000000E+00 0. -1.
</event>
<event>
 7    1  0.2647566E-010  0.4778727E+02  0.7816164E-02  0.1312668E+00
        -11   -1    0    0    0    0  0.00000000000E+00  0.00000000000E+00  0.45593999997E+02  0.45594000000E+02  0.51100000000E-03 0.  1.
         11   -1    0    0    0    0 -0.00000000000E+00 -0.00000000000E+00 -0.45593999997E+02  0.45594000000E+02  0.51100000000E-03 0. -1.
    9900012    2    1    2    0    0  0.35251130037E+02 -0.16306700807E+02  0.19366792265E+02  0.47787270712E+02  0.19999998485E+02 0.  0.
         12    1    1    2    0    0 -0.35251130037E+02  0.16306700807E+02 -0.19366792265E+02  0.43400729288E+02  0.00000000000E+00 0. -1.
         11    1    3    3    0    0  0.97257799872E+01 -0.15992449482E+00  0.67756017968E+01  0.11854330524E+02  0.51100000000E-03 0. -1.
        -11    1    3    3    0    0  0.14352093172E+02 -0.58575615385E+01  0.13721235492E+02  0.20701833476E+02  0.51100000000E-03 0.  1.
         12    1    3    3    0    0  0.11173256878E+02 -0.10289214773E+02 -0.11300450241E+01  0.15231106712E+02  0.00000000000E+00 0. -1.
</event>
<event>
 7    1  0.2647566E-010  0.4778727E+02  0.7816164E-02  0.1312668E+00
        -11   -1    0    0    0    0  0.00000000000E+00  0.00000000000E+00  0.45593999997E+02  0.45594000000E+02  0.51100000000E-03 0.  1.
         11   -1    0    0    0    0 -0.00000000000E+00 -0.00000000000E+00 -0.45593999997E+02  0.45594000000E+02  0.51100000000E-03 0. -1.
    9900012    2    1    2    0    0 -0.22362436521E+02  0.55389349592E+01  0.36781310221E+02  0.47787272480E+02  0.20000006547E+02 0.  0.
         12    1    1    2    0    0  0.22362436521E+02 -0.55389349592E+01 -0.36781310221E+02  0.43400727520E+02  0.00000000000E+00 0. -1.
         11    1    3    3    0    0 -0.28375512398E+01  0.85621065266E+00  0.94162766762E+01  0.98717303663E+01  0.51100000000E-03 0.  1.
        -11    1    3    3    0    0 -0.15986096641E+02  0.10677879394E+02  0.21175122846E+02  0.28599968915E+02  0.51100000000E-03 0. -1.
         12    1    3    3    0    0 -0.35387886404E+01 -0.59951550873E+01  0.61899106992E+01  0.93155731990E+01  0.00000000000E+00 0. -1.
</event>
<event>
 7    1  0.2647566E-010  0.4778727E+02  0.7816164E-02  0.1312668E+00
        -11   -1    0    0    0    0  0.00000000000E+00  0.00000000000E+00  0.45593999997E+02  0.45594000000E+02  0.51100000000E-03 0.  1.
         11   -1    0    0    0    0 -0.00000000000E+00 -0.00000000000E+00 -0.45593999997E+02  0.45594000000E+02  0.51100000000E-03 0. -1.
    9900012    2    1    2    0    0  0.24557444874E+01  0.61498323379E+01  0.42892563791E+02  0.47787272502E+02  0.20000006645E+02 0.  0.
         12    1    1    2    0    0 -0.24557444874E+01 -0.61498323379E+01 -0.42892563791E+02  0.43400727498E+02  0.00000000000E+00 0. -1.
         11    1    3    3    0    0 -0.69263558020E+00  0.88892771582E+01  0.14458937204E+02  0.16987049708E+02  0.51100000000E-03 0. -1.
        -11    1    3    3    0    0  0.10571318667E+01  0.36548277504E+01  0.17912235569E+02  0.18311839804E+02  0.51100000000E-03 0.  1.
        -12    1    3    3    0    0  0.20912482009E+01 -0.63942725707E+01  0.10521391019E+02  0.12488382991E+02  0.00000000000E+00 0.  1.
</event>
<event>
 7    1  0.2647566E-010  0.4778727E+02  0.7816164E-02  0.1312668E+00
        -11   -1    0    0    0    0  0.00000000000E+00  0.00000000000E+00  0.45593999997E+02  0.45594000000E+02  0.51100000000E-03 0.  1.
         11   -1    0    0    0    0 -0.00000000000E+00 -0.00000000000E+00 -0.45593999997E+02  0.45594000000E+02  0.51100000000E-03 0. -1.
    9900012    2    1    2    0    0 -0.19679941609E+02  0.13037596614E+02  0.36419011131E+02  0.47787269604E+02  0.19999993430E+02 0.  0.
         12    1    1    2    0    0  0.19679941609E+02 -0.13037596614E+02 -0.36419011131E+02  0.43400730396E+02  0.00000000000E+00 0. -1.
         11    1    3    3    0    0 -0.45082862339E+01  0.40210204305E+00  0.70760727953E+01  0.83998295986E+01  0.51100000000E-03 0.  1.
        -11    1    3    3    0    0  0.26446036522E+01  0.28103731661E+01  0.12156344370E+02  0.12754169299E+02  0.51100000000E-03 0. -1.
         12    1    3    3    0    0 -0.17816259028E+02  0.98251214048E+01  0.17186593965E+02  0.26633270706E+02  0.00000000000E+00 0. -1.
</event>
<event>
 7    1  0.2647566E-010  0.4778727E+02  0.7816164E-02  0.1312668E+00
        -11   -1    0    0    0    0  0.00000000000E+00  0.00000000000E+00  0.45593999997E+02  0.45594000000E+02  0.51100000000E-03 0. -1.
         11   -1    0    0    0    0 -0.00000000000E+00 -0.00000000000E+00 -0.45593999997E+02  0.45594000000E+02  0.51100000000E-03 0.  1.
    9900012    2    1    2    0    0  0.30707640194E+02 -0.21469867675E+02 -0.21902254248E+02  0.47787272755E+02  0.20000007799E+02 0.  0.
         12    1    1    2    0    0 -0.30707640194E+02  0.21469867675E+02  0.21902254248E+02  0.43400727245E+02  0.00000000000E+00 0. -1.
         11    1    3    3    0    0  0.24317270927E+02 -0.54623383559E+01 -0.13022840380E+02  0.28120476124E+02  0.51100000000E-03 0.  1.
        -11    1    3    3    0    0 -0.12832957064E+00 -0.15238222347E+01 -0.15390137585E+01  0.21695774454E+01  0.51100000000E-03 0. -1.
        -12    1    3    3    0    0  0.65186988380E+01 -0.14483707085E+02 -0.73404001091E+01  0.17497219185E+02  0.00000000000E+00 0.  1.
</event>
<event>
 7    1  0.2647566E-010  0.4778727E+02  0.7816164E-02  0.1312668E+00
        -11   -1    0    0    0    0  0.00000000000E+00  0.00000000000E+00  0.45593999997E+02  0.45594000000E+02  0.51100000000E-03 0.  1.
         11   -1    0    0    0    0 -0.00000000000E+00 -0.00000000000E+00 -0.45593999997E+02  0.45594000000E+02  0.51100000000E-03 0. -1.
    9900012    2    1    2    0    0 -0.41993995626E+02 -0.10013312683E+02 -0.44565505010E+01  0.47787274869E+02  0.20000017437E+02 0.  0.
         12    1    1    2    0    0  0.41993995626E+02  0.10013312683E+02  0.44565505010E+01  0.43400725131E+02  0.00000000000E+00 0. -1.
         11    1    3    3    0    0  0.25511007635E+00  0.94370955228E+00  0.24841008787E+01  0.26695367214E+01  0.51100000000E-03 0. -1.
        -11    1    3    3    0    0 -0.55284781977E+01 -0.48419932958E+01 -0.14029839768E+01  0.74818002218E+01  0.51100000000E-03 0.  1.
        -12    1    3    3    0    0 -0.36720627505E+02 -0.61150289396E+01 -0.55376674029E+01  0.37635937926E+02  0.00000000000E+00 0.  1.
</event>
<event>
 7    1  0.2647566E-010  0.4778727E+02  0.7816164E-02  0.1312668E+00
        -11   -1    0    0    0    0  0.00000000000E+00  0.00000000000E+00  0.45593999997E+02  0.45594000000E+02  0.51100000000E-03 0.  1.
         11   -1    0    0    0    0 -0.00000000000E+00 -0.00000000000E+00 -0.45593999997E+02  0.45594000000E+02  0.51100000000E-03 0. -1.
    9900012    2    1    2    0    0  0.12954754025E+02 -0.31338819856E+01  0.41303466011E+02  0.47787272211E+02  0.20000005317E+02 0.  0.
         12    1    1    2    0    0 -0.12954754025E+02  0.31338819856E+01 -0.41303466011E+02  0.43400727789E+02  0.00000000000E+00 0. -1.
         11    1    3    3    0    0 -0.97879279828E+00 -0.28552354770E+01  0.79226310326E+00  0.31205906584E+01  0.51100000000E-03 0. -1.
        -11    1    3    3    0    0  0.55599480336E+01 -0.43686425480E+01  0.72604625947E+01  0.10134711501E+02  0.51100000000E-03 0.  1.
         12    1    3    3    0    0  0.83735987898E+01  0.40899960394E+01  0.33250740313E+02  0.34531970052E+02  0.00000000000E+00 0. -1.
</event>
<event>
 7    1  0.2647566E-010  0.4778731E+02  0.7816164E-02  0.1312668E+00
        -11   -1    0    0    0    0  0.00000000000E+00  0.00000000000E+00  0.45593999997E+02  0.45594000000E+02  0.51100000000E-03 0.  1.
         11   -1    0    0    0    0 -0.00000000000E+00 -0.00000000000E+00 -0.45593999997E+02  0.45594000000E+02  0.51100000000E-03 0. -1.
    9900012    2    1    2    0    0 -0.30567465923E+01  0.34767005518E+02  0.25797901683E+02  0.47787307567E+02  0.20000166520E+02 0.  0.
         12    1    1    2    0    0  0.30567465923E+01 -0.34767005518E+02 -0.25797901683E+02  0.43400692433E+02  0.00000000000E+00 0. -1.
         11    1    3    3    0    0 -0.10037930224E+02  0.18299437788E+02  0.11268509445E+02  0.23719375453E+02  0.51100000000E-03 0. -1.
        -11    1    3    3    0    0  0.38736229425E+01  0.59565298592E+01  0.19191017296E+01  0.73599017911E+01  0.51100000000E-03 0.  1.
        -12    1    3    3    0    0  0.31075606889E+01  0.10511037871E+02  0.12610290508E+02  0.16708030322E+02  0.00000000000E+00 0.  1.
</event>
<event>
 7    1  0.2647566E-010  0.4778728E+02  0.7816164E-02  0.1312668E+00
        -11   -1    0    0    0    0  0.00000000000E+00  0.00000000000E+00  0.45593999997E+02  0.45594000000E+02  0.51100000000E-03 0. -1.
         11   -1    0    0    0    0 -0.00000000000E+00 -0.00000000000E+00 -0.45593999997E+02  0.45594000000E+02  0.51100000000E-03 0.  1.
    9900012    2    1    2    0    0 -0.43152482008E+02 -0.82095344546E+00  0.45620429601E+01  0.47787275305E+02  0.20000019427E+02 0.  0.
         12    1    1    2    0    0  0.43152482008E+02  0.82095344546E+00 -0.45620429601E+01  0.43400724695E+02  0.00000000000E+00 0. -1.
         11    1    3    3    0    0 -0.74608293393E+01  0.32988832903E+01  0.44599509015E+01  0.92971913876E+01  0.51100000000E-03 0. -1.
        -11    1    3    3    0    0  0.17994114326E-01 -0.25949811759E+01 -0.86325774348E+00  0.27348611087E+01  0.51100000000E-03 0.  1.
        -12    1    3    3    0    0 -0.35709646783E+02 -0.15248555598E+01  0.96534980205E+00  0.35755222809E+02  0.00000000000E+00 0.  1.
</event>
<event>
 7    1  0.2647566E-010  0.4778725E+02  0.7816164E-02  0.1312668E+00
        -11   -1    0    0    0    0  0.00000000000E+00  0.00000000000E+00  0.45593999997E+02  0.45594000000E+02  0.51100000000E-03 0.  1.
         11   -1    0    0    0    0 -0.00000000000E+00 -0.00000000000E+00 -0.45593999997E+02  0.45594000000E+02  0.51100000000E-03 0. -1.
    9900012    2    1    2    0    0  0.34124528843E+02  0.19207552625E+02 -0.18713949342E+02  0.47787246014E+02  0.19999885876E+02 0.  0.
         12    1    1    2    0    0 -0.34124528843E+02 -0.19207552625E+02  0.18713949342E+02  0.43400753986E+02  0.00000000000E+00 0. -1.
         11    1    3    3    0    0  0.19484840435E+02  0.63706648604E+01 -0.15649360480E+02  0.25790441277E+02  0.51100000000E-03 0. -1.
        -11    1    3    3    0    0  0.40733255913E+01 -0.90720287403E+00  0.76468731189E+00  0.42426106790E+01  0.51100000000E-03 0.  1.
        -12    1    3    3    0    0  0.10566362817E+02  0.13744090639E+02 -0.38292761735E+01  0.17754194058E+02  0.00000000000E+00 0.  1.
</event>
<event>
 7    1  0.2647566E-010  0.4778727E+02  0.7816164E-02  0.1312668E+00
        -11   -1    0    0    0    0  0.00000000000E+00  0.00000000000E+00  0.45593999997E+02  0.45594000000E+02  0.51100000000E-03 0.  1.
         11   -1    0    0    0    0 -0.00000000000E+00 -0.00000000000E+00 -0.45593999997E+02  0.45594000000E+02  0.51100000000E-03 0. -1.
    9900012    2    1    2    0    0 -0.12235444965E+02 -0.31278961288E+02  0.27487156600E+02  0.47787270620E+02  0.19999998066E+02 0.  0.
         12    1    1    2    0    0  0.12235444965E+02  0.31278961288E+02 -0.27487156600E+02  0.43400729380E+02  0.00000000000E+00 0. -1.
         11    1    3    3    0    0  0.24530626091E+00  0.25903551672E+00 -0.10490943914E+01  0.11080946999E+01  0.51100000000E-03 0. -1.
        -11    1    3    3    0    0  0.12819166008E+01 -0.60132156314E+00 -0.10111400896E+01  0.17399144621E+01  0.51100000000E-03 0.  1.
        -12    1    3    3    0    0 -0.13762667826E+02 -0.30936675241E+02  0.29547391082E+02  0.44939261458E+02  0.00000000000E+00 0.  1.
</event>
<event>
 7    1  0.2647566E-010  0.4778727E+02  0.7816164E-02  0.1312668E+00
        -11   -1    0    0    0    0  0.00000000000E+00  0.00000000000E+00  0.45593999997E+02  0.45594000000E+02  0.51100000000E-03 0.  1.
         11   -1    0    0    0    0 -0.00000000000E+00 -0.00000000000E+00 -0.45593999997E+02  0.45594000000E+02  0.51100000000E-03 0. -1.
    9900012    2    1    2    0    0  0.17537118671E+02  0.86058575735E+01  0.38755801913E+02  0.47787268465E+02  0.19999988238E+02 0.  0.
         12    1    1    2    0    0 -0.17537118671E+02 -0.86058575735E+01 -0.38755801913E+02  0.43400731535E+02  0.00000000000E+00 0. -1.
         11    1    3    3    0    0  0.28139242083E+01  0.60706794332E+01  0.82504293540E+01  0.10622659884E+02  0.51100000000E-03 0. -1.
        -11    1    3    3    0    0  0.12501883079E+02  0.81155849757E+01  0.18647549842E+02  0.23872388138E+02  0.51100000000E-03 0.  1.
         12    1    3    3    0    0  0.22213113834E+01 -0.55804068354E+01  0.11857822717E+02  0.13292220443E+02  0.00000000000E+00 0. -1.
</event>
<event>
 7    1  0.2647566E-010  0.4778728E+02  0.7816164E-02  0.1312668E+00
        -11   -1    0    0    0    0  0.00000000000E+00  0.00000000000E+00  0.45593999997E+02  0.45594000000E+02  0.51100000000E-03 0.  1.
         11   -1    0    0    0    0 -0.00000000000E+00 -0.00000000000E+00 -0.45593999997E+02  0.45594000000E+02  0.51100000000E-03 0. -1.
    9900012    2    1    2    0    0  0.13181295035E+02  0.81999008045E+01  0.40529466996E+02  0.47787278728E+02  0.20000035031E+02 0.  0.
         12    1    1    2    0    0 -0.13181295035E+02 -0.81999008045E+01 -0.40529466996E+02  0.43400721272E+02  0.00000000000E+00 0. -1.
         11    1    3    3    0    0  0.52225293880E+01 -0.36462631068E+01  0.97899569541E+01  0.11679610665E+02  0.51100000000E-03 0. -1.
        -11    1    3    3    0    0  0.10539468597E+02  0.63537634884E+01  0.16135319114E+02  0.20292836962E+02  0.51100000000E-03 0.  1.
         12    1    3    3    0    0 -0.25807029503E+01  0.54924004229E+01  0.14604190927E+02  0.15814831101E+02  0.00000000000E+00 0. -1.
</event>
<event>
 7    1  0.2647566E-010  0.4778727E+02  0.7816164E-02  0.1312668E+00
        -11   -1    0    0    0    0  0.00000000000E+00  0.00000000000E+00  0.45593999997E+02  0.45594000000E+02  0.51100000000E-03 0.  1.
         11   -1    0    0    0    0 -0.00000000000E+00 -0.00000000000E+00 -0.45593999997E+02  0.45594000000E+02  0.51100000000E-03 0. -1.
    9900012    2    1    2    0    0  0.27599576340E+02  0.22670814466E+02  0.24656052056E+02  0.47787270217E+02  0.19999996229E+02 0.  0.
         12    1    1    2    0    0 -0.27599576340E+02 -0.22670814466E+02 -0.24656052056E+02  0.43400729783E+02  0.00000000000E+00 0. -1.
         11    1    3    3    0    0  0.39213256262E+00  0.14213039050E+01  0.42735845690E+01  0.45207740562E+01  0.51100000000E-03 0. -1.
        -11    1    3    3    0    0  0.19359300940E+02  0.21305195718E+02  0.20627206217E+02  0.35414340797E+02  0.51100000000E-03 0.  1.
         12    1    3    3    0    0  0.78481428368E+01 -0.55685157075E-01 -0.24473873011E+00  0.78521553646E+01  0.00000000000E+00 0. -1.
</event>
<event>
 7    1  0.2647566E-010  0.4778727E+02  0.7816164E-02  0.1312668E+00
        -11   -1    0    0    0    0  0.00000000000E+00  0.00000000000E+00  0.45593999997E+02  0.45594000000E+02  0.51100000000E-03 0.  1.
         11   -1    0    0    0    0 -0.00000000000E+00 -0.00000000000E+00 -0.45593999997E+02  0.45594000000E+02  0.51100000000E-03 0. -1.
    9900012    2    1    2    0    0 -0.20399684639E+02  0.96354584451E+01  0.37076059822E+02  0.47787269537E+02  0.19999993128E+02 0.  0.
         12    1    1    2    0    0  0.20399684639E+02 -0.96354584451E+01 -0.37076059822E+02  0.43400730463E+02  0.00000000000E+00 0. -1.
         11    1    3    3    0    0  0.10640130482E+00  0.86045989459E+00  0.29399398383E+01  0.30651197337E+01  0.51100000000E-03 0. -1.
        -11    1    3    3    0    0 -0.20191156984E+01  0.72437286617E+01  0.20098258601E+02  0.21458994203E+02  0.51100000000E-03 0.  1.
         12    1    3    3    0    0 -0.18486970245E+02  0.15312698888E+01  0.14037861382E+02  0.23263155601E+02  0.00000000000E+00 0. -1.
</event>
<event>
 7    1  0.2647566E-010  0.4778728E+02  0.7816164E-02  0.1312668E+00
        -11   -1    0    0    0    0  0.00000000000E+00  0.00000000000E+00  0.45593999997E+02  0.45594000000E+02  0.51100000000E-03 0.  1.
         11   -1    0    0    0    0 -0.00000000000E+00 -0.00000000000E+00 -0.45593999997E+02  0.45594000000E+02  0.51100000000E-03 0. -1.
    9900012    2    1    2    0    0 -0.11162128060E+02 -0.28154341603E+02  0.31086375152E+02  0.47787276803E+02  0.20000026256E+02 0.  0.
         12    1    1    2    0    0  0.11162128060E+02  0.28154341603E+02 -0.31086375152E+02  0.43400723197E+02  0.00000000000E+00 0. -1.
         11    1    3    3    0    0 -0.52868381402E+01 -0.17344033834E+01  0.58430022983E+01  0.80684254186E+01  0.51100000000E-03 0. -1.
        -11    1    3    3    0    0 -0.41686797372E+01 -0.13387404217E+02  0.37317320033E+01  0.14509524679E+02  0.51100000000E-03 0.  1.
        -12    1    3    3    0    0 -0.17066101824E+01 -0.13032534003E+02  0.21511640850E+02  0.25209326705E+02  0.00000000000E+00 0.  1.
</event>
<event>
 7    1  0.2647566E-010  0.4778727E+02  0.7816164E-02  0.1312668E+00
        -11   -1    0    0    0    0  0.00000000000E+00  0.00000000000E+00  0.45593999997E+02  0.45594000000E+02  0.51100000000E-03 0.  1.
         11   -1    0    0    0    0 -0.00000000000E+00 -0.00000000000E+00 -0.45593999997E+02  0.45594000000E+02  0.51100000000E-03 0. -1.
    9900012    2    1    2    0    0  0.15705622583E+02  0.29565900854E+02  0.27619089924E+02  0.47787271870E+02  0.20000003762E+02 0.  0.
         12    1    1    2    0    0 -0.15705622583E+02 -0.29565900854E+02 -0.27619089924E+02  0.43400728130E+02  0.00000000000E+00 0. -1.
         11    1    3    3    0    0  0.10139428608E+01  0.13990389218E+01  0.48696141919E+01  0.51670622861E+01  0.51100000000E-03 0. -1.
        -11    1    3    3    0    0 -0.15040872442E+01  0.73170185024E+01 -0.43714681324E+00  0.74827893061E+01  0.51100000000E-03 0.  1.
        -12    1    3    3    0    0  0.16195766967E+02  0.20849843430E+02  0.23186622545E+02  0.35137420277E+02  0.00000000000E+00 0.  1.
</event>
<event>
 7    1  0.2647566E-010  0.4778727E+02  0.7816164E-02  0.1312668E+00
        -11   -1    0    0    0    0  0.00000000000E+00  0.00000000000E+00  0.45593999997E+02  0.45594000000E+02  0.51100000000E-03 0.  1.
         11   -1    0    0    0    0 -0.00000000000E+00 -0.00000000000E+00 -0.45593999997E+02  0.45594000000E+02  0.51100000000E-03 0. -1.
    9900012    2    1    2    0    0 -0.25656423956E+02 -0.19699713611E+02  0.28936005847E+02  0.47787271424E+02  0.20000001731E+02 0.  0.
         12    1    1    2    0    0  0.25656423956E+02  0.19699713611E+02 -0.28936005847E+02  0.43400728576E+02  0.00000000000E+00 0. -1.
         11    1    3    3    0    0 -0.10743695525E+01 -0.27202516563E+01 -0.96779089797E+00  0.30806912361E+01  0.51100000000E-03 0. -1.
        -11    1    3    3    0    0 -0.13751917824E+02 -0.83012753101E+00  0.11821584316E+02  0.18153628055E+02  0.51100000000E-03 0.  1.
        -12    1    3    3    0    0 -0.10830136579E+02 -0.16149334424E+02  0.18082212429E+02  0.26552952133E+02  0.00000000000E+00 0.  1.
</event>
<event>
 7    1  0.2647566E-010  0.4778727E+02  0.7816164E-02  0.1312668E+00
        -11   -1    0    0    0    0  0.00000000000E+00  0.00000000000E+00  0.45593999997E+02  0.45594000000E+02  0.51100000000E-03 0.  1.
         11   -1    0    0    0    0 -0.00000000000E+00 -0.00000000000E+00 -0.45593999997E+02  0.45594000000E+02  0.51100000000E-03 0. -1.
    9900012    2    1    2    0    0 -0.17965607311E+00 -0.23607956562E+02  0.36417790222E+02  0.47787270352E+02  0.19999996842E+02 0.  0.
         12    1    1    2    0    0  0.17965607311E+00  0.23607956562E+02 -0.36417790222E+02  0.43400729648E+02  0.00000000000E+00 0. -1.
         11    1    3    3    0    0  0.57727669184E+01 -0.43376466631E+01  0.16462663466E+01  0.74060927359E+01  0.51100000000E-03 0. -1.
        -11    1    3    3    0    0  0.52869072853E+00 -0.18272618562E+01  0.37988042002E+01  0.42484483509E+01  0.51100000000E-03 0.  1.
         12    1    3    3    0    0 -0.64811137200E+01 -0.17443048043E+02  0.30972719675E+02  0.36132729265E+02  0.00000000000E+00 0. -1.
</event>
<event>
 7    1  0.2647566E-010  0.4778727E+02  0.7816164E-02  0.1312668E+00
        -11   -1    0    0    0    0  0.00000000000E+00  0.00000000000E+00  0.45593999997E+02  0.45594000000E+02  0.51100000000E-03 0.  1.
         11   -1    0    0    0    0 -0.00000000000E+00 -0.00000000000E+00 -0.45593999997E+02  0.45594000000E+02  0.51100000000E-03 0. -1.
    9900012    2    1    2    0    0  0.19138025099E+02 -0.27454434697E+02  0.27633556147E+02  0.47787269424E+02  0.19999992611E+02 0.  0.
         12    1    1    2    0    0 -0.19138025099E+02  0.27454434697E+02 -0.27633556147E+02  0.43400730576E+02  0.00000000000E+00 0. -1.
         11    1    3    3    0    0  0.37547326141E+01 -0.11687627073E+02  0.90529373031E+01  0.15253010119E+02  0.51100000000E-03 0. -1.
        -11    1    3    3    0    0  0.87902869404E+01 -0.17289071406E+02  0.16473941134E+02  0.25447433492E+02  0.51100000000E-03 0.  1.
        -12    1    3    3    0    0  0.65930055442E+01  0.15222637826E+01  0.21066777107E+01  0.70868258132E+01  0.00000000000E+00 0.  1.
</event>
<event>
 7    1  0.2647566E-010  0.4778727E+02  0.7816164E-02  0.1312668E+00
        -11   -1    0    0    0    0  0.00000000000E+00  0.00000000000E+00  0.45593999997E+02  0.45594000000E+02  0.51100000000E-03 0.  1.
         11   -1    0    0    0    0 -0.00000000000E+00 -0.00000000000E+00 -0.45593999997E+02  0.45594000000E+02  0.51100000000E-03 0. -1.
    9900012    2    1    2    0    0 -0.20461328924E+02 -0.14940171730E+02  0.35238455177E+02  0.47787269178E+02  0.19999991491E+02 0.  0.
         12    1    1    2    0    0  0.20461328924E+02  0.14940171730E+02 -0.35238455177E+02  0.43400730822E+02  0.00000000000E+00 0. -1.
         11    1    3    3    0    0  0.11033901356E+01 -0.38994455652E+01  0.37972353940E+01  0.55535702396E+01  0.51100000000E-03 0.  1.
        -11    1    3    3    0    0  0.17896457286E+01 -0.29610774900E+01  0.32898516596E+01  0.47742995233E+01  0.51100000000E-03 0. -1.
        -12    1    3    3    0    0 -0.23354364788E+02 -0.80796486750E+01  0.28151368123E+02  0.37459399415E+02  0.00000000000E+00 0.  1.
</event>
<event>
 7    1  0.2647566E-010  0.4778727E+02  0.7816164E-02  0.1312668E+00
        -11   -1    0    0    0    0  0.00000000000E+00  0.00000000000E+00  0.45593999997E+02  0.45594000000E+02  0.51100000000E-03 0.  1.
         11   -1    0    0    0    0 -0.00000000000E+00 -0.00000000000E+00 -0.45593999997E+02  0.45594000000E+02  0.51100000000E-03 0. -1.
    9900012    2    1    2    0    0 -0.11797489605E+02 -0.28744967821E+02  0.30301310376E+02  0.47787270207E+02  0.19999996184E+02 0.  0.
         12    1    1    2    0    0  0.11797489605E+02  0.28744967821E+02 -0.30301310376E+02  0.43400729793E+02  0.00000000000E+00 0. -1.
         11    1    3    3    0    0 -0.12951592140E+02 -0.18375629379E+02  0.17080653882E+02  0.28233955290E+02  0.51100000000E-03 0. -1.
        -11    1    3    3    0    0 -0.23898620836E+01 -0.27244235224E+01  0.98185454170E+01  0.10466028792E+02  0.51100000000E-03 0.  1.
         12    1    3    3    0    0  0.35439646180E+01 -0.76449149196E+01  0.34021110767E+01  0.90872861251E+01  0.00000000000E+00 0. -1.
</event>
<event>
 7    1  0.2647566E-010  0.4778726E+02  0.7816164E-02  0.1312668E+00
        -11   -1    0    0    0    0  0.00000000000E+00  0.00000000000E+00  0.45593999997E+02  0.45594000000E+02  0.51100000000E-03 0.  1.
         11   -1    0    0    0    0 -0.00000000000E+00 -0.00000000000E+00 -0.45593999997E+02  0.45594000000E+02  0.51100000000E-03 0. -1.
    9900012    2    1    2    0    0 -0.19663388927E+02  0.33709489477E+02  0.18990672766E+02  0.47787260410E+02  0.19999951512E+02 0.  0.
         12    1    1    2    0    0  0.19663388927E+02 -0.33709489477E+02 -0.18990672766E+02  0.43400739590E+02  0.00000000000E+00 0. -1.
         11    1    3    3    0    0 -0.14260691293E+02  0.32264327074E+02  0.14713984535E+02  0.38221138900E+02  0.51100000000E-03 0. -1.
        -11    1    3    3    0    0 -0.23844782353E+01  0.36676895477E+01  0.37868558765E+01  0.57860142381E+01  0.51100000000E-03 0.  1.
         12    1    3    3    0    0 -0.30182193988E+01 -0.22225271447E+01  0.48983235440E+00  0.37801072715E+01  0.00000000000E+00 0. -1.
</event>
<event>
 7    1  0.2647566E-010  0.4778726E+02  0.7816164E-02  0.1312668E+00
        -11   -1    0    0    0    0  0.00000000000E+00  0.00000000000E+00  0.45593999997E+02  0.45594000000E+02  0.51100000000E-03 0.  1.
         11   -1    0    0    0    0 -0.00000000000E+00 -0.00000000000E+00 -0.45593999997E+02  0.45594000000E+02  0.51100000000E-03 0. -1.
    9900012    2    1    2    0    0 -0.39526444241E+02  0.54844899326E+00 -0.17916011693E+02  0.47787261923E+02  0.19999958413E+02 0.  0.
         12    1    1    2    0    0  0.39526444241E+02 -0.54844899326E+00  0.17916011693E+02  0.43400738077E+02  0.00000000000E+00 0. -1.
         11    1    3    3    0    0  0.47274806786E+00  0.42275888886E+00 -0.10399360077E+01  0.12180652589E+01  0.51100000000E-03 0. -1.
        -11    1    3    3    0    0 -0.37297537995E+02 -0.47560537258E+01 -0.13033068492E+02  0.39794311932E+02  0.51100000000E-03 0.  1.
        -12    1    3    3    0    0 -0.27016543134E+01  0.48817438302E+01 -0.38430071930E+01  0.67748847324E+01  0.00000000000E+00 0.  1.
</event>
<event>
 7    1  0.2647566E-010  0.4778728E+02  0.7816164E-02  0.1312668E+00
        -11   -1    0    0    0    0  0.00000000000E+00  0.00000000000E+00  0.45593999997E+02  0.45594000000E+02  0.51100000000E-03 0.  1.
         11   -1    0    0    0    0 -0.00000000000E+00 -0.00000000000E+00 -0.45593999997E+02  0.45594000000E+02  0.51100000000E-03 0. -1.
    9900012    2    1    2    0    0  0.13190122073E+02  0.15799783358E+02  0.38210082056E+02  0.47787275983E+02  0.20000022516E+02 0.  0.
         12    1    1    2    0    0 -0.13190122073E+02 -0.15799783358E+02 -0.38210082056E+02  0.43400724017E+02  0.00000000000E+00 0. -1.
         11    1    3    3    0    0  0.27816731110E+01  0.10378707260E+02  0.18879029381E+02  0.21722638429E+02  0.51100000000E-03 0. -1.
        -11    1    3    3    0    0  0.46451916585E+01  0.38925422855E+01  0.19164344058E+02  0.20099795382E+02  0.51100000000E-03 0.  1.
         12    1    3    3    0    0  0.57632573037E+01  0.15285338122E+01  0.16670861751E+00  0.59648421711E+01  0.00000000000E+00 0. -1.
</event>
<event>
 7    1  0.2647566E-010  0.4778727E+02  0.7816164E-02  0.1312668E+00
        -11   -1    0    0    0    0  0.00000000000E+00  0.00000000000E+00  0.45593999997E+02  0.45594000000E+02  0.51100000000E-03 0. -1.
         11   -1    0    0    0    0 -0.00000000000E+00 -0.00000000000E+00 -0.45593999997E+02  0.45594000000E+02  0.51100000000E-03 0.  1.
    9900012    2    1    2    0    0 -0.28319101805E+02  0.32030926167E+02 -0.74613346814E+01  0.47787271050E+02  0.20000000027E+02 0.  0.
         12    1    1    2    0    0  0.28319101805E+02 -0.32030926167E+02  0.74613346814E+01  0.43400728950E+02  0.00000000000E+00 0. -1.
         11    1    3    3    0    0 -0.14962671215E+02  0.10140683420E+02  0.30725525810E+01  0.18334545801E+02  0.51100000000E-03 0. -1.
        -11    1    3    3    0    0 -0.67590874582E+01  0.28489398349E+01 -0.32822985596E+01  0.80358699309E+01  0.51100000000E-03 0.  1.
        -12    1    3    3    0    0 -0.65973431309E+01  0.19041302913E+02 -0.72515887028E+01  0.21416855318E+02  0.00000000000E+00 0.  1.
</event>
<event>
 7    1  0.2647566E-010  0.4778727E+02  0.7816164E-02  0.1312668E+00
        -11   -1    0    0    0    0  0.00000000000E+00  0.00000000000E+00  0.45593999997E+02  0.45594000000E+02  0.51100000000E-03 0.  1.
         11   -1    0    0    0    0 -0.00000000000E+00 -0.00000000000E+00 -0.45593999997E+02  0.45594000000E+02  0.51100000000E-03 0. -1.
    9900012    2    1    2    0    0 -0.39101785788E+02  0.23802307774E+01  0.18681761779E+02  0.47787269896E+02  0.19999994765E+02 0.  0.
         12    1    1    2    0    0  0.39101785788E+02 -0.23802307774E+01 -0.18681761779E+02  0.43400730104E+02  0.00000000000E+00 0. -1.
         11    1    3    3    0    0 -0.18882075728E+01 -0.60403815003E+00  0.42840043751E+01  0.47204749414E+01  0.51100000000E-03 0. -1.
        -11    1    3    3    0    0 -0.21490666491E+02  0.74988823386E+01  0.13962682019E+02  0.26702780230E+02  0.51100000000E-03 0.  1.
         12    1    3    3    0    0 -0.15722911724E+02 -0.45146134112E+01  0.43507538472E+00  0.16364014725E+02  0.00000000000E+00 0. -1.
</event>
<event>
 7    1  0.2647566E-010  0.4778727E+02  0.7816164E-02  0.1312668E+00
        -11   -1    0    0    0    0  0.00000000000E+00  0.00000000000E+00  0.45593999997E+02  0.45594000000E+02  0.51100000000E-03 0.  1.
         11   -1    0    0    0    0 -0.00000000000E+00 -0.00000000000E+00 -0.45593999997E+02  0.45594000000E+02  0.51100000000E-03 0. -1.
    9900012    2    1    2    0    0  0.15640504267E+02  0.11464627041E+02  0.38827310476E+02  0.47787273212E+02  0.20000009884E+02 0.  0.
         12    1    1    2    0    0 -0.15640504267E+02 -0.11464627041E+02 -0.38827310476E+02  0.43400726788E+02  0.00000000000E+00 0. -1.
         11    1    3    3    0    0  0.80808459747E+01  0.28518456884E+00  0.17241908572E+02  0.19043760484E+02  0.51100000000E-03 0. -1.
        -11    1    3    3    0    0  0.10722116527E+02  0.56842467419E+01  0.10865762657E+02  0.16289237005E+02  0.51100000000E-03 0.  1.
        -12    1    3    3    0    0 -0.31624582343E+01  0.54951957304E+01  0.10719639247E+02  0.12454275723E+02  0.00000000000E+00 0.  1.
</event>
<event>
 7    1  0.2647566E-010  0.4778727E+02  0.7816164E-02  0.1312668E+00
        -11   -1    0    0    0    0  0.00000000000E+00  0.00000000000E+00  0.45593999997E+02  0.45594000000E+02  0.51100000000E-03 0.  1.
         11   -1    0    0    0    0 -0.00000000000E+00 -0.00000000000E+00 -0.45593999997E+02  0.45594000000E+02  0.51100000000E-03 0. -1.
    9900012    2    1    2    0    0 -0.14555658810E+02 -0.33071683820E+00  0.40885773570E+02  0.47787273538E+02  0.20000011368E+02 0.  0.
         12    1    1    2    0    0  0.14555658810E+02  0.33071683820E+00 -0.40885773570E+02  0.43400726462E+02  0.00000000000E+00 0. -1.
         11    1    3    3    0    0  0.99095112684E+00 -0.18547333895E+00  0.25401647835E+02  0.25421646239E+02  0.51100000000E-03 0. -1.
        -11    1    3    3    0    0 -0.26946158906E+01 -0.52449144180E+00  0.52797823574E+01  0.59508107072E+01  0.51100000000E-03 0.  1.
        -12    1    3    3    0    0 -0.12851994046E+02  0.37924794255E+00  0.10204343377E+02  0.16414816591E+02  0.00000000000E+00 0.  1.
</event>
<event>
 7    1  0.2647566E-010  0.4778727E+02  0.7816164E-02  0.1312668E+00
        -11   -1    0    0    0    0  0.00000000000E+00  0.00000000000E+00  0.45593999997E+02  0.45594000000E+02  0.51100000000E-03 0.  1.
         11   -1    0    0    0    0 -0.00000000000E+00 -0.00000000000E+00 -0.45593999997E+02  0.45594000000E+02  0.51100000000E-03 0. -1.
    9900012    2    1    2    0    0 -0.17627634788E+02 -0.39206410457E+02  0.59789329331E+01  0.47787265350E+02  0.19999974038E+02 0.  0.
         12    1    1    2    0    0  0.17627634788E+02  0.39206410457E+02 -0.59789329331E+01  0.43400734650E+02  0.00000000000E+00 0. -1.
         11    1    3    3    0    0 -0.19102540879E+00 -0.11623476417E+01 -0.14065302742E+01  0.18346308676E+01  0.51100000000E-03 0. -1.
        -11    1    3    3    0    0 -0.11756880135E+02 -0.29786178002E+02 -0.21818585318E+01  0.32096746524E+02  0.51100000000E-03 0.  1.
         12    1    3    3    0    0 -0.56797292445E+01 -0.82578848128E+01  0.95673217391E+01  0.13855887959E+02  0.00000000000E+00 0. -1.
</event>
<event>
 7    1  0.2647566E-010  0.4778727E+02  0.7816164E-02  0.1312668E+00
        -11   -1    0    0    0    0  0.00000000000E+00  0.00000000000E+00  0.45593999997E+02  0.45594000000E+02  0.51100000000E-03 0.  1.
         11   -1    0    0    0    0 -0.00000000000E+00 -0.00000000000E+00 -0.45593999997E+02  0.45594000000E+02  0.51100000000E-03 0. -1.
    9900012    2    1    2    0    0 -0.78805362886E+01  0.11363625260E+02  0.41138647529E+02  0.47787272451E+02  0.20000006415E+02 0.  0.
         12    1    1    2    0    0  0.78805362886E+01 -0.11363625260E+02 -0.41138647529E+02  0.43400727549E+02  0.00000000000E+00 0. -1.
         11    1    3    3    0    0 -0.18058549165E+01  0.58516281559E+01  0.34715823987E+01  0.70394991773E+01  0.51100000000E-03 0. -1.
        -11    1    3    3    0    0  0.32859989708E+01 -0.13835191822E+01  0.56054860372E+01  0.66432965114E+01  0.51100000000E-03 0.  1.
        -12    1    3    3    0    0 -0.93606803429E+01  0.68955162866E+01  0.32061579093E+02  0.34104476763E+02  0.00000000000E+00 0.  1.
</event>
<event>
 7    1  0.2647566E-010  0.4778727E+02  0.7816164E-02  0.1312668E+00
        -11   -1    0    0    0    0  0.00000000000E+00  0.00000000000E+00  0.45593999997E+02  0.45594000000E+02  0.51100000000E-03 0.  1.
         11   -1    0    0    0    0 -0.00000000000E+00 -0.00000000000E+00 -0.45593999997E+02  0.45594000000E+02  0.51100000000E-03 0. -1.
    9900012    2    1    2    0    0  0.14314403971E+02  0.20615714221E+02  0.35407817933E+02  0.47787269538E+02  0.19999993131E+02 0.  0.
         12    1    1    2    0    0 -0.14314403971E+02 -0.20615714221E+02 -0.35407817933E+02  0.43400730462E+02  0.00000000000E+00 0. -1.
         11    1    3    3    0    0  0.45171022783E+01  0.17897049195E+01 -0.12666986224E+01  0.50211335724E+01  0.51100000000E-03 0. -1.
        -11    1    3    3    0    0  0.88129806553E-01 -0.52563042351E-02  0.28669870355E+01  0.28683461114E+01  0.51100000000E-03 0.  1.
         12    1    3    3    0    0  0.97091718859E+01  0.18831265606E+02  0.33807529520E+02  0.39897789854E+02  0.00000000000E+00 0. -1.
</event>
<event>
 7    1  0.2647566E-010  0.4778727E+02  0.7816164E-02  0.1312668E+00
        -11   -1    0    0    0    0  0.00000000000E+00  0.00000000000E+00  0.45593999997E+02  0.45594000000E+02  0.51100000000E-03 0.  1.
         11   -1    0    0    0    0 -0.00000000000E+00 -0.00000000000E+00 -0.45593999997E+02  0.45594000000E+02  0.51100000000E-03 0. -1.
    9900012    2    1    2    0    0 -0.22596739473E+01 -0.37972064427E+02  0.20895920582E+02  0.47787270742E+02  0.19999998620E+02 0.  0.
         12    1    1    2    0    0  0.22596739473E+01  0.37972064427E+02 -0.20895920582E+02  0.43400729258E+02  0.00000000000E+00 0. -1.
         11    1    3    3    0    0  0.29504553832E+01 -0.19184290365E+02  0.44887372812E+01  0.19922122036E+02  0.51100000000E-03 0. -1.
        -11    1    3    3    0    0  0.21883702332E+01 -0.33649321153E+01 -0.20679531842E+00  0.40192657269E+01  0.51100000000E-03 0.  1.
         12    1    3    3    0    0 -0.73984995637E+01 -0.15422841947E+02  0.16613978619E+02  0.23845882979E+02  0.00000000000E+00 0. -1.
</event>
<event>
 7    1  0.2647566E-010  0.4778727E+02  0.7816164E-02  0.1312668E+00
        -11   -1    0    0    0    0  0.00000000000E+00  0.00000000000E+00  0.45593999997E+02  0.45594000000E+02  0.51100000000E-03 0.  1.
         11   -1    0    0    0    0 -0.00000000000E+00 -0.00000000000E+00 -0.45593999997E+02  0.45594000000E+02  0.51100000000E-03 0. -1.
    9900012    2    1    2    0    0  0.28659798834E+02  0.95899222391E+01  0.31149193885E+02  0.47787274690E+02  0.20000016623E+02 0.  0.
         12    1    1    2    0    0 -0.28659798834E+02 -0.95899222391E+01 -0.31149193885E+02  0.43400725310E+02  0.00000000000E+00 0. -1.
         11    1    3    3    0    0  0.10718461846E+02  0.46993326915E+01  0.12675434733E+02  0.17252124450E+02  0.51100000000E-03 0.  1.
        -11    1    3    3    0    0  0.11758408914E+02  0.99409380060E+01  0.15932919971E+02  0.22157174181E+02  0.51100000000E-03 0. -1.
         12    1    3    3    0    0  0.61829280736E+01 -0.50503484585E+01  0.25408391808E+01  0.83779760597E+01  0.00000000000E+00 0. -1.
</event>
<event>
 7    1  0.2647566E-010  0.4778727E+02  0.7816164E-02  0.1312668E+00
        -11   -1    0    0    0    0  0.00000000000E+00  0.00000000000E+00  0.45593999997E+02  0.45594000000E+02  0.51100000000E-03 0.  1.
         11   -1    0    0    0    0 -0.00000000000E+00 -0.00000000000E+00 -0.45593999997E+02  0.45594000000E+02  0.51100000000E-03 0. -1.
    9900012    2    1    2    0    0  0.68582164724E+01  0.22748393499E+02  0.36319403117E+02  0.47787267486E+02  0.19999983775E+02 0.  0.
         12    1    1    2    0    0 -0.68582164724E+01 -0.22748393499E+02 -0.36319403117E+02  0.43400732514E+02  0.00000000000E+00 0. -1.
         11    1    3    3    0    0  0.64521730905E+01  0.67846914330E+01  0.74374704074E+01  0.11957363495E+02  0.51100000000E-03 0. -1.
        -11    1    3    3    0    0  0.67488525502E+01  0.11113670593E+02  0.20308247727E+02  0.24114012748E+02  0.51100000000E-03 0.  1.
         12    1    3    3    0    0 -0.63428091683E+01  0.48500314727E+01  0.85736849831E+01  0.11715891243E+02  0.00000000000E+00 0. -1.
</event>
<event>
 7    1  0.2684397E-010  0.4778727E+02  0.7816164E-02  0.1312668E+00
        -11   -1    0    0    0    0  0.00000000000E+00  0.00000000000E+00  0.45593999997E+02  0.45594000000E+02  0.51100000000E-03 0. -1.
         11   -1    0    0    0    0 -0.00000000000E+00 -0.00000000000E+00 -0.45593999997E+02  0.45594000000E+02  0.51100000000E-03 0.  1.
    9900012    2    1    2    0    0  0.84239116184E+01 -0.41290564413E+02 -0.10380283375E+02  0.47787270980E+02  0.19999999706E+02 0.  0.
         12    1    1    2    0    0 -0.84239116184E+01  0.41290564413E+02  0.10380283375E+02  0.43400729020E+02  0.00000000000E+00 0. -1.
         11    1    3    3    0    0  0.88443708410E+00 -0.47661252942E+01 -0.60542198855E+01  0.77557564402E+01  0.51100000000E-03 0.  1.
        -11    1    3    3    0    0 -0.87138789253E+00 -0.48306236774E+01  0.38481201836E+01  0.62371685226E+01  0.51100000000E-03 0. -1.
        -12    1    3    3    0    0  0.84108624268E+01 -0.31693815442E+02 -0.81741836730E+01  0.33794346017E+02  0.00000000000E+00 0.  1.
</event>
<event>
 7    1  0.2647566E-010  0.4778727E+02  0.7816164E-02  0.1312668E+00
        -11   -1    0    0    0    0  0.00000000000E+00  0.00000000000E+00  0.45593999997E+02  0.45594000000E+02  0.51100000000E-03 0. -1.
         11   -1    0    0    0    0 -0.00000000000E+00 -0.00000000000E+00 -0.45593999997E+02  0.45594000000E+02  0.51100000000E-03 0.  1.
    9900012    2    1    2    0    0  0.11567945692E+02 -0.23997367882E+02 -0.34262693227E+02  0.47787272126E+02  0.20000004933E+02 0.  0.
         12    1    1    2    0    0 -0.11567945692E+02  0.23997367882E+02  0.34262693227E+02  0.43400727874E+02  0.00000000000E+00 0. -1.
         11    1    3    3    0    0  0.64763757911E+00 -0.86449380892E+00  0.53968191082E+00  0.12074936048E+01  0.51100000000E-03 0. -1.
        -11    1    3    3    0    0  0.32977929371E+01 -0.52019637368E+01 -0.22976820077E+02  0.23788024847E+02  0.51100000000E-03 0.  1.
        -12    1    3    3    0    0  0.76225151756E+01 -0.17930910337E+02 -0.11825555060E+02  0.22791753675E+02  0.00000000000E+00 0.  1.
</event>
<event>
 7    1  0.2647566E-010  0.4778727E+02  0.7816164E-02  0.1312668E+00
        -11   -1    0    0    0    0  0.00000000000E+00  0.00000000000E+00  0.45593999997E+02  0.45594000000E+02  0.51100000000E-03 0.  1.
         11   -1    0    0    0    0 -0.00000000000E+00 -0.00000000000E+00 -0.45593999997E+02  0.45594000000E+02  0.51100000000E-03 0. -1.
    9900012    2    1    2    0    0 -0.28704389442E+02  0.25064439348E+02  0.20771502031E+02  0.47787269710E+02  0.19999993916E+02 0.  0.
         12    1    1    2    0    0  0.28704389442E+02 -0.25064439348E+02 -0.20771502031E+02  0.43400730290E+02  0.00000000000E+00 0. -1.
         11    1    3    3    0    0  0.49170674418E+00  0.12426570165E+01  0.21025727291E+01  0.24913418724E+01  0.51100000000E-03 0. -1.
        -11    1    3    3    0    0 -0.15490567829E+02  0.20075843804E+02  0.17953537857E+02  0.31069707401E+02  0.51100000000E-03 0.  1.
         12    1    3    3    0    0 -0.13705528357E+02  0.37459385270E+01  0.71539144559E+00  0.14226220437E+02  0.00000000000E+00 0. -1.
</event>
<event>
 7    1  0.2647566E-010  0.4778728E+02  0.7816164E-02  0.1312668E+00
        -11   -1    0    0    0    0  0.00000000000E+00  0.00000000000E+00  0.45593999997E+02  0.45594000000E+02  0.51100000000E-03 0. -1.
         11   -1    0    0    0    0 -0.00000000000E+00 -0.00000000000E+00 -0.45593999997E+02  0.45594000000E+02  0.51100000000E-03 0.  1.
    9900012    2    1    2    0    0 -0.43279683713E+01  0.35356519121E+02 -0.24795319793E+02  0.47787278368E+02  0.20000033390E+02 0.  0.
         12    1    1    2    0    0  0.43279683713E+01 -0.35356519121E+02  0.24795319793E+02  0.43400721632E+02  0.00000000000E+00 0. -1.
         11    1    3    3    0    0 -0.24299743977E+01  0.24022553802E+01  0.86586460743E+00  0.35249579096E+01  0.51100000000E-03 0.  1.
        -11    1    3    3    0    0  0.86407423849E-01 -0.15237008592E+01 -0.96504253700E+00  0.18056682726E+01  0.51100000000E-03 0. -1.
        -12    1    3    3    0    0 -0.19844013974E+01  0.34477964600E+02 -0.24696141864E+02  0.42456652185E+02  0.00000000000E+00 0.  1.
</event>
<event>
 7    1  0.2647566E-010  0.4778727E+02  0.7816164E-02  0.1312668E+00
        -11   -1    0    0    0    0  0.00000000000E+00  0.00000000000E+00  0.45593999997E+02  0.45594000000E+02  0.51100000000E-03 0.  1.
         11   -1    0    0    0    0 -0.00000000000E+00 -0.00000000000E+00 -0.45593999997E+02  0.45594000000E+02  0.51100000000E-03 0. -1.
    9900012    2    1    2    0    0  0.18626204234E+02  0.23742146679E+02  0.31192919093E+02  0.47787271727E+02  0.20000003112E+02 0.  0.
         12    1    1    2    0    0 -0.18626204234E+02 -0.23742146679E+02 -0.31192919093E+02  0.43400728273E+02  0.00000000000E+00 0. -1.
         11    1    3    3    0    0 -0.16205744003E+01  0.50960790257E+01  0.42482577608E+01  0.68296396015E+01  0.51100000000E-03 0. -1.
        -11    1    3    3    0    0  0.80832720473E+01  0.11606859062E+02  0.21811172994E+02  0.25995879133E+02  0.51100000000E-03 0.  1.
        -12    1    3    3    0    0  0.12163506587E+02  0.70392085912E+01  0.51334883384E+01  0.14961752992E+02  0.00000000000E+00 0.  1.
</event>
<event>
 7    1  0.2647566E-010  0.4778727E+02  0.7816164E-02  0.1312668E+00
        -11   -1    0    0    0    0  0.00000000000E+00  0.00000000000E+00  0.45593999997E+02  0.45594000000E+02  0.51100000000E-03 0.  1.
         11   -1    0    0    0    0 -0.00000000000E+00 -0.00000000000E+00 -0.45593999997E+02  0.45594000000E+02  0.51100000000E-03 0. -1.
    9900012    2    1    2    0    0  0.17234372172E+01 -0.41991458212E+01  0.43162718589E+02  0.47787270312E+02  0.19999996661E+02 0.  0.
         12    1    1    2    0    0 -0.17234372172E+01  0.41991458212E+01 -0.43162718589E+02  0.43400729688E+02  0.00000000000E+00 0. -1.
         11    1    3    3    0    0 -0.34518823622E+01  0.11867546808E+01  0.93756277187E+01  0.10061126870E+02  0.51100000000E-03 0.  1.
        -11    1    3    3    0    0 -0.12572386679E+01 -0.78240653501E+01  0.26692887266E+02  0.27844332970E+02  0.51100000000E-03 0. -1.
        -12    1    3    3    0    0  0.64325582474E+01  0.24381648481E+01  0.70942036042E+01  0.98818104723E+01  0.00000000000E+00 0.  1.
</event>
<event>
 7    1  0.2647566E-010  0.4778727E+02  0.7816164E-02  0.1312668E+00
        -11   -1    0    0    0    0  0.00000000000E+00  0.00000000000E+00  0.45593999997E+02  0.45594000000E+02  0.51100000000E-03 0.  1.
         11   -1    0    0    0    0 -0.00000000000E+00 -0.00000000000E+00 -0.45593999997E+02  0.45594000000E+02  0.51100000000E-03 0. -1.
    9900012    2    1    2    0    0 -0.22517906341E+02  0.21667759821E+02  0.30117691665E+02  0.47787271056E+02  0.20000000055E+02 0.  0.
         12    1    1    2    0    0  0.22517906341E+02 -0.21667759821E+02 -0.30117691665E+02  0.43400728944E+02  0.00000000000E+00 0. -1.
         11    1    3    3    0    0 -0.10677642564E+01 -0.59372261336E+00  0.80354615315E+01  0.81278083968E+01  0.51100000000E-03 0. -1.
        -11    1    3    3    0    0 -0.76704503885E+01  0.14525173380E+01  0.70840938369E+01  0.10541821547E+02  0.51100000000E-03 0.  1.
         12    1    3    3    0    0 -0.13779691696E+02  0.20808965096E+02  0.14998136296E+02  0.29117641113E+02  0.00000000000E+00 0. -1.
</event>
<event>
 7    1  0.2647566E-010  0.4778726E+02  0.7816164E-02  0.1312668E+00
        -11   -1    0    0    0    0  0.00000000000E+00  0.00000000000E+00  0.45593999997E+02  0.45594000000E+02  0.51100000000E-03 0. -1.
         11   -1    0    0    0    0 -0.00000000000E+00 -0.00000000000E+00 -0.45593999997E+02  0.45594000000E+02  0.51100000000E-03 0.  1.
    9900012    2    1    2    0    0 -0.12112230074E+02 -0.26730200920E+02  0.31975215409E+02  0.47787260847E+02  0.19999953507E+02 0.  0.
         12    1    1    2    0    0  0.12112230074E+02  0.26730200920E+02 -0.31975215409E+02  0.43400739153E+02  0.00000000000E+00 0. -1.
         11    1    3    3    0    0 -0.36383233633E+01  0.81649781988E+00  0.16823186656E+01  0.40907532240E+01  0.51100000000E-03 0. -1.
        -11    1    3    3    0    0 -0.31956280687E+01 -0.91471276889E+01  0.26001349169E+01  0.10032082813E+02  0.51100000000E-03 0.  1.
        -12    1    3    3    0    0 -0.52782786421E+01 -0.18399571051E+02  0.27692761826E+02  0.33664424811E+02  0.00000000000E+00 0.  1.
</event>
<event>
 7    1  0.2647566E-010  0.4778727E+02  0.7816164E-02  0.1312668E+00
        -11   -1    0    0    0    0  0.00000000000E+00  0.00000000000E+00  0.45593999997E+02  0.45594000000E+02  0.51100000000E-03 0. -1.
         11   -1    0    0    0    0 -0.00000000000E+00 -0.00000000000E+00 -0.45593999997E+02  0.45594000000E+02  0.51100000000E-03 0.  1.
    9900012    2    1    2    0    0 -0.37855817489E+02 -0.19961195783E+02 -0.72187968036E+01  0.47787270949E+02  0.19999999567E+02 0.  0.
         12    1    1    2    0    0  0.37855817489E+02  0.19961195783E+02  0.72187968036E+01  0.43400729051E+02  0.00000000000E+00 0. -1.
         11    1    3    3    0    0 -0.15484021948E+02 -0.52909804249E+01  0.41578678666E+01  0.16883046970E+02  0.51100000000E-03 0. -1.
        -11    1    3    3    0    0 -0.10340033238E+02 -0.49505599543E+01  0.38892742054E+00  0.11470640611E+02  0.51100000000E-03 0.  1.
         12    1    3    3    0    0 -0.12031762302E+02 -0.97196554038E+01 -0.11765592091E+02  0.19433583368E+02  0.00000000000E+00 0. -1.
</event>
<event>
 7    1  0.2647566E-010  0.4778727E+02  0.7816164E-02  0.1312668E+00
        -11   -1    0    0    0    0  0.00000000000E+00  0.00000000000E+00  0.45593999997E+02  0.45594000000E+02  0.51100000000E-03 0.  1.
         11   -1    0    0    0    0 -0.00000000000E+00 -0.00000000000E+00 -0.45593999997E+02  0.45594000000E+02  0.51100000000E-03 0. -1.
    9900012    2    1    2    0    0 -0.60945673734E+01 -0.31085193216E+02  0.29668002996E+02  0.47787269701E+02  0.19999993873E+02 0.  0.
         12    1    1    2    0    0  0.60945673734E+01  0.31085193216E+02 -0.29668002996E+02  0.43400730299E+02  0.00000000000E+00 0. -1.
         11    1    3    3    0    0  0.11526517916E+01 -0.60546667343E+01  0.73927274957E+00  0.62075856721E+01  0.51100000000E-03 0. -1.
        -11    1    3    3    0    0  0.19637431049E+01  0.61243523594E-01  0.61663670319E+01  0.64717942168E+01  0.51100000000E-03 0.  1.
        -12    1    3    3    0    0 -0.92109622699E+01 -0.25091770005E+02  0.22762363215E+02  0.35107889812E+02  0.00000000000E+00 0.  1.
</event>
<event>
 7    1  0.2647566E-010  0.4778727E+02  0.7816164E-02  0.1312668E+00
        -11   -1    0    0    0    0  0.00000000000E+00  0.00000000000E+00  0.45593999997E+02  0.45594000000E+02  0.51100000000E-03 0.  1.
         11   -1    0    0    0    0 -0.00000000000E+00 -0.00000000000E+00 -0.45593999997E+02  0.45594000000E+02  0.51100000000E-03 0. -1.
    9900012    2    1    2    0    0  0.10830986091E+02  0.26503063517E+02  0.32617484507E+02  0.47787274994E+02  0.20000018006E+02 0.  0.
         12    1    1    2    0    0 -0.10830986091E+02 -0.26503063517E+02 -0.32617484507E+02  0.43400725006E+02  0.00000000000E+00 0. -1.
         11    1    3    3    0    0 -0.66291607564E+00  0.38106167458E+01  0.68493763965E+01  0.78660164626E+01  0.51100000000E-03 0. -1.
        -11    1    3    3    0    0 -0.74019655748E+00  0.10321743184E+02  0.18224999909E+02  0.20957979274E+02  0.51100000000E-03 0.  1.
         12    1    3    3    0    0  0.12234098725E+02  0.12370703588E+02  0.75431082018E+01  0.18963279258E+02  0.00000000000E+00 0. -1.
</event>
<event>
 7    1  0.2647566E-010  0.4778727E+02  0.7816164E-02  0.1312668E+00
        -11   -1    0    0    0    0  0.00000000000E+00  0.00000000000E+00  0.45593999997E+02  0.45594000000E+02  0.51100000000E-03 0.  1.
         11   -1    0    0    0    0 -0.00000000000E+00 -0.00000000000E+00 -0.45593999997E+02  0.45594000000E+02  0.51100000000E-03 0. -1.
    9900012    2    1    2    0    0 -0.11685338894E+02  0.40146096241E+02  0.11634729431E+02  0.47787272847E+02  0.20000008220E+02 0.  0.
         12    1    1    2    0    0  0.11685338894E+02 -0.40146096241E+02 -0.11634729431E+02  0.43400727153E+02  0.00000000000E+00 0. -1.
         11    1    3    3    0    0 -0.39129976214E+01  0.15943442713E+01  0.23306960159E+01  0.48255184405E+01  0.51100000000E-03 0. -1.
        -11    1    3    3    0    0 -0.88670127190E+01  0.24169682713E+02  0.11805878124E+02  0.28322715893E+02  0.51100000000E-03 0.  1.
        -12    1    3    3    0    0  0.10946714462E+01  0.14382069257E+02 -0.25018447086E+01  0.14639038514E+02  0.00000000000E+00 0.  1.
</event>
<event>
 7    1  0.2647566E-010  0.4778727E+02  0.7816164E-02  0.1312668E+00
        -11   -1    0    0    0    0  0.00000000000E+00  0.00000000000E+00  0.45593999997E+02  0.45594000000E+02  0.51100000000E-03 0.  1.
         11   -1    0    0    0    0 -0.00000000000E+00 -0.00000000000E+00 -0.45593999997E+02  0.45594000000E+02  0.51100000000E-03 0. -1.
    9900012    2    1    2    0    0  0.34587132585E+02  0.24627432781E+02  0.89912814381E+01  0.47787270424E+02  0.19999997172E+02 0.  0.
         12    1    1    2    0    0 -0.34587132585E+02 -0.24627432781E+02 -0.89912814381E+01  0.43400729576E+02  0.00000000000E+00 0. -1.
         11    1    3    3    0    0  0.48441312734E+00  0.85544569267E+00 -0.10788447515E+01  0.14595717420E+01  0.51100000000E-03 0. -1.
        -11    1    3    3    0    0  0.32102261620E+02  0.24690172728E+02  0.13115932669E+02  0.42569795871E+02  0.51100000000E-03 0.  1.
        -12    1    3    3    0    0  0.20004578371E+01 -0.91818563892E+00 -0.30458064798E+01  0.37579028111E+01  0.00000000000E+00 0.  1.
</event>
<event>
 7    1  0.2647566E-010  0.4778726E+02  0.7816164E-02  0.1312668E+00
        -11   -1    0    0    0    0  0.00000000000E+00  0.00000000000E+00  0.45593999997E+02  0.45594000000E+02  0.51100000000E-03 0. -1.
         11   -1    0    0    0    0 -0.00000000000E+00 -0.00000000000E+00 -0.45593999997E+02  0.45594000000E+02  0.51100000000E-03 0.  1.
    9900012    2    1    2    0    0  0.15174763966E+02 -0.40180828882E+02 -0.62330879130E+01  0.47787264338E+02  0.19999969422E+02 0.  0.
         12    1    1    2    0    0 -0.15174763966E+02  0.40180828882E+02  0.62330879130E+01  0.43400735662E+02  0.00000000000E+00 0. -1.
         11    1    3    3    0    0  0.36046282065E+01  0.61675623361E+00  0.19816441468E+00  0.36623765720E+01  0.51100000000E-03 0. -1.
        -11    1    3    3    0    0 -0.17646894918E+00 -0.10453512892E+02  0.16840858773E+01  0.10589769525E+02  0.51100000000E-03 0.  1.
         12    1    3    3    0    0  0.11746604708E+02 -0.30344072223E+02 -0.81153382050E+01  0.33535118241E+02  0.00000000000E+00 0. -1.
</event>
<event>
 7    1  0.2647566E-010  0.4778727E+02  0.7816164E-02  0.1312668E+00
        -11   -1    0    0    0    0  0.00000000000E+00  0.00000000000E+00  0.45593999997E+02  0.45594000000E+02  0.51100000000E-03 0.  1.
         11   -1    0    0    0    0 -0.00000000000E+00 -0.00000000000E+00 -0.45593999997E+02  0.45594000000E+02  0.51100000000E-03 0. -1.
    9900012    2    1    2    0    0 -0.10849461862E+02 -0.41405424357E+02 -0.71766149648E+01  0.47787265084E+02  0.19999972823E+02 0.  0.
         12    1    1    2    0    0  0.10849461862E+02  0.41405424357E+02  0.71766149648E+01  0.43400734916E+02  0.00000000000E+00 0. -1.
         11    1    3    3    0    0  0.33765175255E+01 -0.12182875257E+01 -0.52730924959E+00  0.36281056216E+01  0.51100000000E-03 0. -1.
        -11    1    3    3    0    0  0.43699352109E+00 -0.40161517344E+01 -0.28513991439E+01  0.49447866921E+01  0.51100000000E-03 0.  1.
        -12    1    3    3    0    0 -0.14662972909E+02 -0.36170985097E+02 -0.37979065712E+01  0.39214372770E+02  0.00000000000E+00 0.  1.
</event>
<event>
 7    1  0.2647566E-010  0.4778727E+02  0.7816164E-02  0.1312668E+00
        -11   -1    0    0    0    0  0.00000000000E+00  0.00000000000E+00  0.45593999997E+02  0.45594000000E+02  0.51100000000E-03 0.  1.
         11   -1    0    0    0    0 -0.00000000000E+00 -0.00000000000E+00 -0.45593999997E+02  0.45594000000E+02  0.51100000000E-03 0. -1.
    9900012    2    1    2    0    0 -0.15434101252E+02  0.28301170370E+02  0.29059517812E+02  0.47787270729E+02  0.19999998562E+02 0.  0.
         12    1    1    2    0    0  0.15434101252E+02 -0.28301170370E+02 -0.29059517812E+02  0.43400729271E+02  0.00000000000E+00 0. -1.
         11    1    3    3    0    0 -0.44385139334E+01  0.32367371595E+01 -0.15152879707E+01  0.56985060561E+01  0.51100000000E-03 0. -1.
        -11    1    3    3    0    0 -0.14926421472E+01  0.14403171567E+02  0.13162449268E+02  0.19568582032E+02  0.51100000000E-03 0.  1.
        -12    1    3    3    0    0 -0.95029451718E+01  0.10661261644E+02  0.17412356515E+02  0.22520182641E+02  0.00000000000E+00 0.  1.
</event>
<event>
 7    1  0.2647566E-010  0.4778727E+02  0.7816164E-02  0.1312668E+00
        -11   -1    0    0    0    0  0.00000000000E+00  0.00000000000E+00  0.45593999997E+02  0.45594000000E+02  0.51100000000E-03 0.  1.
         11   -1    0    0    0    0 -0.00000000000E+00 -0.00000000000E+00 -0.45593999997E+02  0.45594000000E+02  0.51100000000E-03 0. -1.
    9900012    2    1    2    0    0 -0.20187481729E+02 -0.23164160075E+02  0.30651432668E+02  0.47787273564E+02  0.20000011490E+02 0.  0.
         12    1    1    2    0    0  0.20187481729E+02  0.23164160075E+02 -0.30651432668E+02  0.43400726436E+02  0.00000000000E+00 0. -1.
         11    1    3    3    0    0 -0.44658645783E+01 -0.16679708867E+01  0.60192848281E+01  0.76784023998E+01  0.51100000000E-03 0. -1.
        -11    1    3    3    0    0 -0.10480981854E+02 -0.14459676310E+02  0.49071391121E+01  0.18520616462E+02  0.51100000000E-03 0.  1.
         12    1    3    3    0    0 -0.52406352970E+01 -0.70365128787E+01  0.19725008728E+02  0.21588254703E+02  0.00000000000E+00 0. -1.
</event>
<event>
 7    1  0.2647566E-010  0.4778727E+02  0.7816164E-02  0.1312668E+00
        -11   -1    0    0    0    0  0.00000000000E+00  0.00000000000E+00  0.45593999997E+02  0.45594000000E+02  0.51100000000E-03 0.  1.
         11   -1    0    0    0    0 -0.00000000000E+00 -0.00000000000E+00 -0.45593999997E+02  0.45594000000E+02  0.51100000000E-03 0. -1.
    9900012    2    1    2    0    0 -0.77945173494E+01  0.35592900443E+02  0.23579951071E+02  0.47787272412E+02  0.20000006235E+02 0.  0.
         12    1    1    2    0    0  0.77945173494E+01 -0.35592900443E+02 -0.23579951071E+02  0.43400727588E+02  0.00000000000E+00 0. -1.
         11    1    3    3    0    0 -0.30206863465E+01  0.15516757964E+02  0.12056019080E+02  0.19880692142E+02  0.51100000000E-03 0. -1.
        -11    1    3    3    0    0 -0.92360564126E+01  0.81744509587E+01  0.80542507574E+01  0.14730829646E+02  0.51100000000E-03 0.  1.
         12    1    3    3    0    0  0.44622254096E+01  0.11901691520E+02  0.34696812337E+01  0.13175750624E+02  0.00000000000E+00 0. -1.
</event>
<event>
 7    1  0.2647566E-010  0.4778727E+02  0.7816164E-02  0.1312668E+00
        -11   -1    0    0    0    0  0.00000000000E+00  0.00000000000E+00  0.45593999997E+02  0.45594000000E+02  0.51100000000E-03 0. -1.
         11   -1    0    0    0    0 -0.00000000000E+00 -0.00000000000E+00 -0.45593999997E+02  0.45594000000E+02  0.51100000000E-03 0.  1.
    9900012    2    1    2    0    0  0.10264286223E+02 -0.28332466757E+02  0.31233621076E+02  0.47787270401E+02  0.19999997067E+02 0.  0.
         12    1    1    2    0    0 -0.10264286223E+02  0.28332466757E+02 -0.31233621076E+02  0.43400729599E+02  0.00000000000E+00 0. -1.
         11    1    3    3    0    0 -0.28075475855E+01  0.16075223172E+01  0.19534308099E+01  0.37791988087E+01  0.51100000000E-03 0. -1.
        -11    1    3    3    0    0  0.17306133162E+01 -0.56669106707E+01  0.69295509601E+01  0.91174325207E+01  0.51100000000E-03 0.  1.
         12    1    3    3    0    0  0.11341220492E+02 -0.24273078404E+02  0.22350639306E+02  0.34890639072E+02  0.00000000000E+00 0. -1.
</event>
<event>
 7    1  0.2647566E-010  0.4778727E+02  0.7816164E-02  0.1312668E+00
        -11   -1    0    0    0    0  0.00000000000E+00  0.00000000000E+00  0.45593999997E+02  0.45594000000E+02  0.51100000000E-03 0.  1.
         11   -1    0    0    0    0 -0.00000000000E+00 -0.00000000000E+00 -0.45593999997E+02  0.45594000000E+02  0.51100000000E-03 0. -1.
    9900012    2    1    2    0    0 -0.27316479550E+01 -0.43765840017E+01  0.43093005411E+02  0.47787268400E+02  0.19999987943E+02 0.  0.
         12    1    1    2    0    0  0.27316479550E+01  0.43765840017E+01 -0.43093005411E+02  0.43400731600E+02  0.00000000000E+00 0. -1.
         11    1    3    3    0    0  0.60101515399E+01  0.84442264988E+00  0.20530769471E+02  0.21409051041E+02  0.51100000000E-03 0. -1.
        -11    1    3    3    0    0 -0.27061846985E+01  0.21748477295E+01  0.29096413727E+01  0.45298356976E+01  0.51100000000E-03 0.  1.
        -12    1    3    3    0    0 -0.60356147965E+01 -0.73958543811E+01  0.19652594567E+02  0.21848381661E+02  0.00000000000E+00 0.  1.
</event>
<event>
 7    1  0.2647566E-010  0.4778727E+02  0.7816164E-02  0.1312668E+00
        -11   -1    0    0    0    0  0.00000000000E+00  0.00000000000E+00  0.45593999997E+02  0.45594000000E+02  0.51100000000E-03 0.  1.
         11   -1    0    0    0    0 -0.00000000000E+00 -0.00000000000E+00 -0.45593999997E+02  0.45594000000E+02  0.51100000000E-03 0. -1.
    9900012    2    1    2    0    0  0.33226083276E+02  0.12863454888E+02  0.24782699666E+02  0.47787270925E+02  0.19999999454E+02 0.  0.
         12    1    1    2    0    0 -0.33226083276E+02 -0.12863454888E+02 -0.24782699666E+02  0.43400729075E+02  0.00000000000E+00 0. -1.
         11    1    3    3    0    0  0.13122744950E+01 -0.32606947537E-01  0.18947339396E+01  0.23050259275E+01  0.51100000000E-03 0. -1.
        -11    1    3    3    0    0  0.58414325601E+01  0.10145577214E+02  0.12917689689E+02  0.17433352475E+02  0.51100000000E-03 0.  1.
        -12    1    3    3    0    0  0.26072376221E+02  0.27504846213E+01  0.99702760379E+01  0.28048892522E+02  0.00000000000E+00 0.  1.
</event>
<event>
 7    1  0.2647566E-010  0.4778727E+02  0.7816164E-02  0.1312668E+00
        -11   -1    0    0    0    0  0.00000000000E+00  0.00000000000E+00  0.45593999997E+02  0.45594000000E+02  0.51100000000E-03 0.  1.
         11   -1    0    0    0    0 -0.00000000000E+00 -0.00000000000E+00 -0.45593999997E+02  0.45594000000E+02  0.51100000000E-03 0. -1.
    9900012    2    1    2    0    0  0.98337927617E+01 -0.15288323648E+02  0.39410493215E+02  0.47787270795E+02  0.19999998862E+02 0.  0.
         12    1    1    2    0    0 -0.98337927617E+01  0.15288323648E+02 -0.39410493215E+02  0.43400729205E+02  0.00000000000E+00 0. -1.
         11    1    3    3    0    0 -0.23596325183E+00 -0.50603322430E+01  0.38084047111E+01  0.63377115563E+01  0.51100000000E-03 0. -1.
        -11    1    3    3    0    0  0.93196658060E+00 -0.11381963186E+02  0.14752339193E+02  0.18656075675E+02  0.51100000000E-03 0.  1.
        -12    1    3    3    0    0  0.91377894329E+01  0.11539717809E+01  0.20849749311E+02  0.22793483563E+02  0.00000000000E+00 0.  1.
</event>
<event>
 7    1  0.2647566E-010  0.4778727E+02  0.7816164E-02  0.1312668E+00
        -11   -1    0    0    0    0  0.00000000000E+00  0.00000000000E+00  0.45593999997E+02  0.45594000000E+02  0.51100000000E-03 0.  1.
         11   -1    0    0    0    0 -0.00000000000E+00 -0.00000000000E+00 -0.45593999997E+02  0.45594000000E+02  0.51100000000E-03 0. -1.
    9900012    2    1    2    0    0 -0.81173707547E+01  0.41723960667E+02  0.87659871347E+01  0.47787272677E+02  0.20000007444E+02 0.  0.
         12    1    1    2    0    0  0.81173707547E+01 -0.41723960667E+02 -0.87659871347E+01  0.43400727323E+02  0.00000000000E+00 0. -1.
         11    1    3    3    0    0 -0.25869456834E+01  0.23575026630E+01  0.15436292604E+01  0.38252971557E+01  0.51100000000E-03 0. -1.
        -11    1    3    3    0    0 -0.94074318009E+01  0.37700698110E+02  0.49540157681E+01  0.39171222646E+02  0.51100000000E-03 0.  1.
         12    1    3    3    0    0  0.38770067296E+01  0.16657598938E+01  0.22683421062E+01  0.47907528757E+01  0.00000000000E+00 0. -1.
</event>
<event>
 7    1  0.2647566E-010  0.4778733E+02  0.7816164E-02  0.1312668E+00
        -11   -1    0    0    0    0  0.00000000000E+00  0.00000000000E+00  0.45593999997E+02  0.45594000000E+02  0.51100000000E-03 0.  1.
         11   -1    0    0    0    0 -0.00000000000E+00 -0.00000000000E+00 -0.45593999997E+02  0.45594000000E+02  0.51100000000E-03 0. -1.
    9900012    2    1    2    0    0 -0.15017811616E+02  0.40718950131E+02 -0.22572029922E+00  0.47787325867E+02  0.20000249958E+02 0.  0.
         12    1    1    2    0    0  0.15017811616E+02 -0.40718950131E+02  0.22572029922E+00  0.43400674133E+02  0.00000000000E+00 0. -1.
         11    1    3    3    0    0 -0.97584323756E+00  0.10765349375E+02  0.47689347819E+00  0.10820002072E+02  0.51100000000E-03 0. -1.
        -11    1    3    3    0    0 -0.15868031125E+02  0.30976744462E+02 -0.11638257535E+01  0.34823951526E+02  0.51100000000E-03 0.  1.
         12    1    3    3    0    0  0.18260627467E+01 -0.10231437056E+01  0.46121197604E+00  0.21433722692E+01  0.00000000000E+00 0. -1.
</event>
<event>
 7    1  0.2647566E-010  0.4778727E+02  0.7816164E-02  0.1312668E+00
        -11   -1    0    0    0    0  0.00000000000E+00  0.00000000000E+00  0.45593999997E+02  0.45594000000E+02  0.51100000000E-03 0.  1.
         11   -1    0    0    0    0 -0.00000000000E+00 -0.00000000000E+00 -0.45593999997E+02  0.45594000000E+02  0.51100000000E-03 0. -1.
    9900012    2    1    2    0    0  0.34169582284E+02  0.24696878134E+01  0.26645140297E+02  0.47787271748E+02  0.20000003207E+02 0.  0.
         12    1    1    2    0    0 -0.34169582284E+02 -0.24696878134E+01 -0.26645140297E+02  0.43400728252E+02  0.00000000000E+00 0. -1.
         11    1    3    3    0    0  0.73826470205E+01  0.53609803148E+01  0.23202438274E+01  0.94141977165E+01  0.51100000000E-03 0.  1.
        -11    1    3    3    0    0  0.17520378576E+02  0.12499868208E+01  0.83551901921E+01  0.19450844093E+02  0.51100000000E-03 0. -1.
        -12    1    3    3    0    0  0.92665566872E+01 -0.41412793223E+01  0.15969706278E+02  0.18922229939E+02  0.00000000000E+00 0.  1.
</event>
<event>
 7    1  0.2647566E-010  0.4778727E+02  0.7816164E-02  0.1312668E+00
        -11   -1    0    0    0    0  0.00000000000E+00  0.00000000000E+00  0.45593999997E+02  0.45594000000E+02  0.51100000000E-03 0.  1.
         11   -1    0    0    0    0 -0.00000000000E+00 -0.00000000000E+00 -0.45593999997E+02  0.45594000000E+02  0.51100000000E-03 0. -1.
    9900012    2    1    2    0    0  0.40435663658E+02  0.12563671173E+02  0.95254707390E+01  0.47787270494E+02  0.19999997491E+02 0.  0.
         12    1    1    2    0    0 -0.40435663658E+02 -0.12563671173E+02 -0.95254707390E+01  0.43400729506E+02  0.00000000000E+00 0. -1.
         11    1    3    3    0    0  0.64998692242E+01 -0.14423124320E+01  0.68187984700E+01  0.95301929634E+01  0.51100000000E-03 0. -1.
        -11    1    3    3    0    0  0.44829894740E+01 -0.19318120698E+00  0.32751620600E+01  0.55552858057E+01  0.51100000000E-03 0.  1.
        -12    1    3    3    0    0  0.29452804960E+02  0.14199164812E+02 -0.56848979109E+00  0.32701791725E+02  0.00000000000E+00 0.  1.
</event>
<event>
 7    1  0.2647566E-010  0.4778731E+02  0.7816164E-02  0.1312668E+00
        -11   -1    0    0    0    0  0.00000000000E+00  0.00000000000E+00  0.45593999997E+02  0.45594000000E+02  0.51100000000E-03 0. -1.
         11   -1    0    0    0    0 -0.00000000000E+00 -0.00000000000E+00 -0.45593999997E+02  0.45594000000E+02  0.51100000000E-03 0.  1.
    9900012    2    1    2    0    0 -0.37715983584E+01  0.28896515563E+02 -0.32161878253E+02  0.47787309008E+02  0.20000173091E+02 0.  0.
         12    1    1    2    0    0  0.37715983584E+01 -0.28896515563E+02  0.32161878253E+02  0.43400690992E+02  0.00000000000E+00 0. -1.
         11    1    3    3    0    0 -0.52004664667E+01  0.61002185434E+01 -0.11752424182E+02  0.14225926759E+02  0.51100000000E-03 0. -1.
        -11    1    3    3    0    0 -0.54437050788E+01  0.79624158868E+01 -0.11261126784E+02  0.14827237384E+02  0.51100000000E-03 0.  1.
         12    1    3    3    0    0  0.68725731871E+01  0.14833881132E+02 -0.91483272866E+01  0.18734144864E+02  0.00000000000E+00 0. -1.
</event>
<event>
 7    1  0.2647566E-010  0.4778727E+02  0.7816164E-02  0.1312668E+00
        -11   -1    0    0    0    0  0.00000000000E+00  0.00000000000E+00  0.45593999997E+02  0.45594000000E+02  0.51100000000E-03 0.  1.
         11   -1    0    0    0    0 -0.00000000000E+00 -0.00000000000E+00 -0.45593999997E+02  0.45594000000E+02  0.51100000000E-03 0. -1.
    9900012    2    1    2    0    0 -0.32642803290E+02 -0.25606154624E+00  0.28600787462E+02  0.47787271693E+02  0.20000002956E+02 0.  0.
         12    1    1    2    0    0  0.32642803290E+02  0.25606154624E+00 -0.28600787462E+02  0.43400728307E+02  0.00000000000E+00 0. -1.
         11    1    3    3    0    0 -0.15463242709E+02 -0.47499212981E+01  0.22586144846E+02  0.27781424850E+02  0.51100000000E-03 0. -1.
        -11    1    3    3    0    0 -0.26583503443E+01  0.34377369126E+00  0.39342832553E+01  0.47606293594E+01  0.51100000000E-03 0.  1.
        -12    1    3    3    0    0 -0.14521210236E+02  0.41500860606E+01  0.20803593604E+01  0.15245217483E+02  0.00000000000E+00 0.  1.
</event>
<event>
 7    1  0.2647566E-010  0.4778728E+02  0.7816164E-02  0.1312668E+00
        -11   -1    0    0    0    0  0.00000000000E+00  0.00000000000E+00  0.45593999997E+02  0.45594000000E+02  0.51100000000E-03 0.  1.
         11   -1    0    0    0    0 -0.00000000000E+00 -0.00000000000E+00 -0.45593999997E+02  0.45594000000E+02  0.51100000000E-03 0. -1.
    9900012    2    1    2    0    0 -0.22016410528E+02  0.20071815924E+02  0.31559823354E+02  0.47787279071E+02  0.20000036598E+02 0.  0.
         12    1    1    2    0    0  0.22016410528E+02 -0.20071815924E+02 -0.31559823354E+02  0.43400720929E+02  0.00000000000E+00 0. -1.
         11    1    3    3    0    0  0.95039349445E+00  0.62189450782E+01  0.56339669529E+01  0.84451234193E+01  0.51100000000E-03 0. -1.
        -11    1    3    3    0    0 -0.25076375665E+01 -0.15125235506E+01  0.67798300349E+01  0.73852602675E+01  0.51100000000E-03 0.  1.
        -12    1    3    3    0    0 -0.20459166456E+02  0.15365394396E+02  0.19146026366E+02  0.31956895385E+02  0.00000000000E+00 0.  1.
</event>
<event>
 7    1  0.2647566E-010  0.4778727E+02  0.7816164E-02  0.1312668E+00
        -11   -1    0    0    0    0  0.00000000000E+00  0.00000000000E+00  0.45593999997E+02  0.45594000000E+02  0.51100000000E-03 0.  1.
         11   -1    0    0    0    0 -0.00000000000E+00 -0.00000000000E+00 -0.45593999997E+02  0.45594000000E+02  0.51100000000E-03 0. -1.
    9900012    2    1    2    0    0 -0.21694593905E+02 -0.97104787543E+01  0.36313553337E+02  0.47787274680E+02  0.20000016576E+02 0.  0.
         12    1    1    2    0    0  0.21694593905E+02  0.97104787543E+01 -0.36313553337E+02  0.43400725320E+02  0.00000000000E+00 0. -1.
         11    1    3    3    0    0 -0.77532236079E+00 -0.58140956117E+01  0.12388118673E+02  0.13706579335E+02  0.51100000000E-03 0. -1.
        -11    1    3    3    0    0 -0.86925387268E+01  0.16537247680E+01  0.16535128303E+02  0.18753813036E+02  0.51100000000E-03 0.  1.
         12    1    3    3    0    0 -0.12226732817E+02 -0.55501079106E+01  0.73903063610E+01  0.15326882309E+02  0.00000000000E+00 0. -1.
</event>
<event>
 7    1  0.2647566E-010  0.4778727E+02  0.7816164E-02  0.1312668E+00
        -11   -1    0    0    0    0  0.00000000000E+00  0.00000000000E+00  0.45593999997E+02  0.45594000000E+02  0.51100000000E-03 0. -1.
         11   -1    0    0    0    0 -0.00000000000E+00 -0.00000000000E+00 -0.45593999997E+02  0.45594000000E+02  0.51100000000E-03 0.  1.
    9900012    2    1    2    0    0  0.19876400098E+02  0.33649513594E+02  0.18874910528E+02  0.47787270819E+02  0.19999998971E+02 0.  0.
         12    1    1    2    0    0 -0.19876400098E+02 -0.33649513594E+02 -0.18874910528E+02  0.43400729181E+02  0.00000000000E+00 0. -1.
         11    1    3    3    0    0  0.21159535880E+01  0.11815766973E+02  0.10604104831E+02  0.16016761479E+02  0.51100000000E-03 0. -1.
        -11    1    3    3    0    0  0.12463806403E+02  0.12737381092E+02  0.10940332282E+02  0.20911198384E+02  0.51100000000E-03 0.  1.
         12    1    3    3    0    0  0.52966401067E+01  0.90963655294E+01 -0.26695265840E+01  0.10859310956E+02  0.00000000000E+00 0. -1.
</event>
<event>
 7    1  0.2647566E-010  0.4778727E+02  0.7816164E-02  0.1312668E+00
        -11   -1    0    0    0    0  0.00000000000E+00  0.00000000000E+00  0.45593999997E+02  0.45594000000E+02  0.51100000000E-03 0.  1.
         11   -1    0    0    0    0 -0.00000000000E+00 -0.00000000000E+00 -0.45593999997E+02  0.45594000000E+02  0.51100000000E-03 0. -1.
    9900012    2    1    2    0    0  0.16052889359E+02  0.40282321603E+02 -0.18062404301E+01  0.47787271954E+02  0.20000004145E+02 0.  0.
         12    1    1    2    0    0 -0.16052889359E+02 -0.40282321603E+02  0.18062404301E+01  0.43400728046E+02  0.00000000000E+00 0. -1.
         11    1    3    3    0    0  0.50029645125E+01  0.56001524040E+01 -0.40858747534E+01  0.85490194539E+01  0.51100000000E-03 0. -1.
        -11    1    3    3    0    0  0.69579178377E+01  0.29546883173E+02 -0.34150555211E+01  0.30546579683E+02  0.51100000000E-03 0.  1.
         12    1    3    3    0    0  0.40920070085E+01  0.51352860258E+01  0.56946898444E+01  0.86916728165E+01  0.00000000000E+00 0. -1.
</event>
<event>
 7    1  0.2647566E-010  0.4778727E+02  0.7816164E-02  0.1312668E+00
        -11   -1    0    0    0    0  0.00000000000E+00  0.00000000000E+00  0.45593999997E+02  0.45594000000E+02  0.51100000000E-03 0.  1.
         11   -1    0    0    0    0 -0.00000000000E+00 -0.00000000000E+00 -0.45593999997E+02  0.45594000000E+02  0.51100000000E-03 0. -1.
    9900012    2    1    2    0    0  0.30783938696E+02 -0.17352637403E+02  0.25196395732E+02  0.47787271154E+02  0.20000000500E+02 0.  0.
         12    1    1    2    0    0 -0.30783938696E+02  0.17352637403E+02 -0.25196395732E+02  0.43400728846E+02  0.00000000000E+00 0. -1.
         11    1    3    3    0    0  0.27032202450E+00 -0.28575848273E+01  0.15690094713E+01  0.32711857214E+01  0.51100000000E-03 0. -1.
        -11    1    3    3    0    0  0.15670674731E+02 -0.73943061684E+01  0.21967099264E+02  0.27978550008E+02  0.51100000000E-03 0.  1.
         12    1    3    3    0    0  0.14842941940E+02 -0.71007464078E+01  0.16602869966E+01  0.16537535424E+02  0.00000000000E+00 0. -1.
</event>
<event>
 7    1  0.2647566E-010  0.4778727E+02  0.7816164E-02  0.1312668E+00
        -11   -1    0    0    0    0  0.00000000000E+00  0.00000000000E+00  0.45593999997E+02  0.45594000000E+02  0.51100000000E-03 0. -1.
         11   -1    0    0    0    0 -0.00000000000E+00 -0.00000000000E+00 -0.45593999997E+02  0.45594000000E+02  0.51100000000E-03 0.  1.
    9900012    2    1    2    0    0 -0.40455668510E+02  0.10433549430E+01 -0.15680352410E+02  0.47787272404E+02  0.20000006198E+02 0.  0.
         12    1    1    2    0    0  0.40455668510E+02 -0.10433549430E+01  0.15680352410E+02  0.43400727596E+02  0.00000000000E+00 0. -1.
         11    1    3    3    0    0 -0.15071346963E+02 -0.84523985724E+01 -0.42190974032E+01  0.17787336059E+02  0.51100000000E-03 0. -1.
        -11    1    3    3    0    0 -0.10673502170E+01  0.11140121783E+01 -0.21482475882E+01  0.26448492548E+01  0.51100000000E-03 0.  1.
         12    1    3    3    0    0 -0.24316971330E+02  0.83817413370E+01 -0.93130074191E+01  0.27355087090E+02  0.00000000000E+00 0. -1.
</event>
<event>
 7    1  0.2647566E-010  0.4778727E+02  0.7816164E-02  0.1312668E+00
        -11   -1    0    0    0    0  0.00000000000E+00  0.00000000000E+00  0.45593999997E+02  0.45594000000E+02  0.51100000000E-03 0.  1.
         11   -1    0    0    0    0 -0.00000000000E+00 -0.00000000000E+00 -0.45593999997E+02  0.45594000000E+02  0.51100000000E-03 0. -1.
    9900012    2    1    2    0    0 -0.46931823878E+01  0.31303465118E+02  0.29693267243E+02  0.47787274097E+02  0.20000013920E+02 0.  0.
         12    1    1    2    0    0  0.46931823878E+01 -0.31303465118E+02 -0.29693267243E+02  0.43400725903E+02  0.00000000000E+00 0. -1.
         11    1    3    3    0    0  0.42695713636E+00  0.14986017735E+02  0.12243723069E+02  0.19356440137E+02  0.51100000000E-03 0.  1.
        -11    1    3    3    0    0  0.12512679663E+01  0.26539370614E+01  0.12073564666E+02  0.12424975552E+02  0.51100000000E-03 0. -1.
         12    1    3    3    0    0 -0.63714074905E+01  0.13663510322E+02  0.53759795079E+01  0.16005858408E+02  0.00000000000E+00 0. -1.
</event>
<event>
 7    1  0.2647566E-010  0.4778728E+02  0.7816164E-02  0.1312668E+00
        -11   -1    0    0    0    0  0.00000000000E+00  0.00000000000E+00  0.45593999997E+02  0.45594000000E+02  0.51100000000E-03 0.  1.
         11   -1    0    0    0    0 -0.00000000000E+00 -0.00000000000E+00 -0.45593999997E+02  0.45594000000E+02  0.51100000000E-03 0. -1.
    9900012    2    1    2    0    0  0.43078031071E+02 -0.48954314043E+01 -0.19850796238E+01  0.47787279376E+02  0.20000037988E+02 0.  0.
         12    1    1    2    0    0 -0.43078031071E+02  0.48954314043E+01  0.19850796238E+01  0.43400720624E+02  0.00000000000E+00 0. -1.
         11    1    3    3    0    0  0.31625491122E+01  0.37298316479E+01  0.25601706224E+01  0.55197676478E+01  0.51100000000E-03 0. -1.
        -11    1    3    3    0    0  0.82122099474E+01 -0.42358016418E+01  0.23348264986E+01  0.95306779827E+01  0.51100000000E-03 0.  1.
         12    1    3    3    0    0  0.31703272011E+02 -0.43894614104E+01 -0.68800767448E+01  0.32736833746E+02  0.00000000000E+00 0. -1.
</event>
<event>
 7    1  0.2647566E-010  0.4778728E+02  0.7816164E-02  0.1312668E+00
        -11   -1    0    0    0    0  0.00000000000E+00  0.00000000000E+00  0.45593999997E+02  0.45594000000E+02  0.51100000000E-03 0.  1.
         11   -1    0    0    0    0 -0.00000000000E+00 -0.00000000000E+00 -0.45593999997E+02  0.45594000000E+02  0.51100000000E-03 0. -1.
    9900012    2    1    2    0    0  0.79552579659E+01  0.74328485423E+01  0.42012963298E+02  0.47787280515E+02  0.20000043178E+02 0.  0.
         12    1    1    2    0    0 -0.79552579659E+01 -0.74328485423E+01 -0.42012963298E+02  0.43400719485E+02  0.00000000000E+00 0. -1.
         11    1    3    3    0    0  0.31835341796E-01  0.24359738403E+01  0.30416249042E+01  0.38969814419E+01  0.51100000000E-03 0. -1.
        -11    1    3    3    0    0 -0.40722313390E+01 -0.31174242445E+01  0.15336878070E+02  0.16171618076E+02  0.51100000000E-03 0.  1.
        -12    1    3    3    0    0  0.11995653963E+02  0.81142989464E+01  0.23634460324E+02  0.27718680997E+02  0.00000000000E+00 0.  1.
</event>
<event>
 7    1  0.2647566E-010  0.4778727E+02  0.7816164E-02  0.1312668E+00
        -11   -1    0    0    0    0  0.00000000000E+00  0.00000000000E+00  0.45593999997E+02  0.45594000000E+02  0.51100000000E-03 0.  1.
         11   -1    0    0    0    0 -0.00000000000E+00 -0.00000000000E+00 -0.45593999997E+02  0.45594000000E+02  0.51100000000E-03 0. -1.
    9900012    2    1    2    0    0 -0.16361330738E+02  0.40074551241E+02 -0.31560055615E+01  0.47787272221E+02  0.20000005364E+02 0.  0.
         12    1    1    2    0    0  0.16361330738E+02 -0.40074551241E+02  0.31560055615E+01  0.43400727779E+02  0.00000000000E+00 0. -1.
         11    1    3    3    0    0  0.38230168655E+01  0.10041092623E+02 -0.18734952752E+01  0.10906373541E+02  0.51100000000E-03 0. -1.
        -11    1    3    3    0    0 -0.80126593248E+01  0.10468349077E+02  0.28074219321E+01  0.13478525885E+02  0.51100000000E-03 0.  1.
        -12    1    3    3    0    0 -0.12171688279E+02  0.19565109541E+02 -0.40899322185E+01  0.23402372795E+02  0.00000000000E+00 0.  1.
</event>
<event>
 7    1  0.2647566E-010  0.4778727E+02  0.7816164E-02  0.1312668E+00
        -11   -1    0    0    0    0  0.00000000000E+00  0.00000000000E+00  0.45593999997E+02  0.45594000000E+02  0.51100000000E-03 0.  1.
         11   -1    0    0    0    0 -0.00000000000E+00 -0.00000000000E+00 -0.45593999997E+02  0.45594000000E+02  0.51100000000E-03 0. -1.
    9900012    2    1    2    0    0  0.32203770231E+02 -0.99656527330E+00  0.29078296111E+02  0.47787271157E+02  0.20000000513E+02 0.  0.
         12    1    1    2    0    0 -0.32203770231E+02  0.99656527330E+00 -0.29078296111E+02  0.43400728843E+02  0.00000000000E+00 0. -1.
         11    1    3    3    0    0  0.20458103390E+00 -0.21440333847E+01  0.43819670086E+01  0.48826598980E+01  0.51100000000E-03 0. -1.
        -11    1    3    3    0    0  0.28761098569E+02  0.36618686562E+00  0.14567279327E+02  0.32241906131E+02  0.51100000000E-03 0.  1.
        -12    1    3    3    0    0  0.32380906280E+01  0.78128124576E+00  0.10129049775E+02  0.10662705128E+02  0.00000000000E+00 0.  1.
</event>
<event>
 7    1  0.2647566E-010  0.4778729E+02  0.7816164E-02  0.1312668E+00
        -11   -1    0    0    0    0  0.00000000000E+00  0.00000000000E+00  0.45593999997E+02  0.45594000000E+02  0.51100000000E-03 0. -1.
         11   -1    0    0    0    0 -0.00000000000E+00 -0.00000000000E+00 -0.45593999997E+02  0.45594000000E+02  0.51100000000E-03 0.  1.
    9900012    2    1    2    0    0  0.36427270817E+02  0.21320940794E+02 -0.10104121896E+02  0.47787287393E+02  0.20000074539E+02 0.  0.
         12    1    1    2    0    0 -0.36427270817E+02 -0.21320940794E+02  0.10104121896E+02  0.43400712607E+02  0.00000000000E+00 0. -1.
         11    1    3    3    0    0  0.18399281206E+02  0.78946539895E+01  0.49462740332E+00  0.20027575166E+02  0.51100000000E-03 0.  1.
        -11    1    3    3    0    0  0.15386969064E+02  0.40986119583E+01 -0.73251687098E+01  0.17527564972E+02  0.51100000000E-03 0. -1.
        -12    1    3    3    0    0  0.26410205475E+01  0.93276748460E+01 -0.32735805896E+01  0.10232147255E+02  0.00000000000E+00 0.  1.
</event>
<event>
 7    1  0.2647566E-010  0.4778727E+02  0.7816164E-02  0.1312668E+00
        -11   -1    0    0    0    0  0.00000000000E+00  0.00000000000E+00  0.45593999997E+02  0.45594000000E+02  0.51100000000E-03 0.  1.
         11   -1    0    0    0    0 -0.00000000000E+00 -0.00000000000E+00 -0.45593999997E+02  0.45594000000E+02  0.51100000000E-03 0. -1.
    9900012    2    1    2    0    0  0.21969413981E+02 -0.33487669000E+02  0.16719575161E+02  0.47787270521E+02  0.19999997615E+02 0.  0.
         12    1    1    2    0    0 -0.21969413981E+02  0.33487669000E+02 -0.16719575161E+02  0.43400729479E+02  0.00000000000E+00 0. -1.
         11    1    3    3    0    0  0.78240706042E+01 -0.75089744276E+01  0.82592135989E+01  0.13631411787E+02  0.51100000000E-03 0. -1.
        -11    1    3    3    0    0  0.11869054011E+02 -0.26620271619E+02  0.10552921867E+02  0.30998023556E+02  0.51100000000E-03 0.  1.
         12    1    3    3    0    0  0.22762893663E+01  0.64157704699E+00 -0.20925603046E+01  0.31578351785E+01  0.00000000000E+00 0. -1.
</event>
<event>
 7    1  0.2647566E-010  0.4778727E+02  0.7816164E-02  0.1312668E+00
        -11   -1    0    0    0    0  0.00000000000E+00  0.00000000000E+00  0.45593999997E+02  0.45594000000E+02  0.51100000000E-03 0.  1.
         11   -1    0    0    0    0 -0.00000000000E+00 -0.00000000000E+00 -0.45593999997E+02  0.45594000000E+02  0.51100000000E-03 0. -1.
    9900012    2    1    2    0    0  0.25725092458E+02 -0.33590353831E+02  0.96711453581E+01  0.47787270686E+02  0.19999998366E+02 0.  0.
         12    1    1    2    0    0 -0.25725092458E+02  0.33590353831E+02 -0.96711453581E+01  0.43400729314E+02  0.00000000000E+00 0. -1.
         11    1    3    3    0    0  0.28079053559E+01  0.12048074043E+00 -0.16306342454E+01  0.32492793662E+01  0.51100000000E-03 0. -1.
        -11    1    3    3    0    0  0.13906431900E+02 -0.95740529412E+01  0.14165678515E+01  0.16942786154E+02  0.51100000000E-03 0.  1.
        -12    1    3    3    0    0  0.90107552018E+01 -0.24136781630E+02  0.98852117520E+01  0.27595205166E+02  0.00000000000E+00 0.  1.
</event>
<event>
 7    1  0.2647566E-010  0.4778727E+02  0.7816164E-02  0.1312668E+00
        -11   -1    0    0    0    0  0.00000000000E+00  0.00000000000E+00  0.45593999997E+02  0.45594000000E+02  0.51100000000E-03 0.  1.
         11   -1    0    0    0    0 -0.00000000000E+00 -0.00000000000E+00 -0.45593999997E+02  0.45594000000E+02  0.51100000000E-03 0. -1.
    9900012    2    1    2    0    0 -0.24295712731E+02 -0.24440328464E+02  0.26382043143E+02  0.47787268290E+02  0.19999987443E+02 0.  0.
         12    1    1    2    0    0  0.24295712731E+02  0.24440328464E+02 -0.26382043143E+02  0.43400731710E+02  0.00000000000E+00 0. -1.
         11    1    3    3    0    0 -0.97087743007E+01 -0.46090592155E+01  0.88947847725E+01  0.13950660260E+02  0.51100000000E-03 0. -1.
        -11    1    3    3    0    0 -0.15273266204E+02 -0.14017210851E+02  0.70991589513E+01  0.21912391897E+02  0.51100000000E-03 0.  1.
        -12    1    3    3    0    0  0.68632777312E+00 -0.58140583972E+01  0.10388099419E+02  0.11924216134E+02  0.00000000000E+00 0.  1.
</event>
<event>
 7    1  0.2647566E-010  0.4778727E+02  0.7816164E-02  0.1312668E+00
        -11   -1    0    0    0    0  0.00000000000E+00  0.00000000000E+00  0.45593999997E+02  0.45594000000E+02  0.51100000000E-03 0.  1.
         11   -1    0    0    0    0 -0.00000000000E+00 -0.00000000000E+00 -0.45593999997E+02  0.45594000000E+02  0.51100000000E-03 0. -1.
    9900012    2    1    2    0    0  0.29415873571E+02  0.45147916455E+01  0.31590291471E+02  0.47787268707E+02  0.19999989343E+02 0.  0.
         12    1    1    2    0    0 -0.29415873571E+02 -0.45147916455E+01 -0.31590291471E+02  0.43400731293E+02  0.00000000000E+00 0. -1.
         11    1    3    3    0    0  0.11152294580E+02  0.16093853748E+01  0.18797142024E+02  0.21915664357E+02  0.51100000000E-03 0. -1.
        -11    1    3    3    0    0  0.25953768629E+01 -0.32734933314E+01  0.68267138520E+01  0.80034843618E+01  0.51100000000E-03 0.  1.
         12    1    3    3    0    0  0.15668202127E+02  0.61788996021E+01  0.59664355957E+01  0.17868119988E+02  0.00000000000E+00 0. -1.
</event>
<event>
 7    1  0.2647566E-010  0.4778725E+02  0.7816164E-02  0.1312668E+00
        -11   -1    0    0    0    0  0.00000000000E+00  0.00000000000E+00  0.45593999997E+02  0.45594000000E+02  0.51100000000E-03 0.  1.
         11   -1    0    0    0    0 -0.00000000000E+00 -0.00000000000E+00 -0.45593999997E+02  0.45594000000E+02  0.51100000000E-03 0. -1.
    9900012    2    1    2    0    0  0.18181835622E+02  0.35644184751E+02  0.16808856864E+02  0.47787254359E+02  0.19999923923E+02 0.  0.
         12    1    1    2    0    0 -0.18181835622E+02 -0.35644184751E+02 -0.16808856864E+02  0.43400745641E+02  0.00000000000E+00 0. -1.
         11    1    3    3    0    0  0.32467686054E+01  0.22366573443E+01  0.49900281900E+01  0.63596009348E+01  0.51100000000E-03 0.  1.
        -11    1    3    3    0    0  0.68273377126E+01  0.87286874183E+01 -0.30539306159E+01  0.11494738655E+02  0.51100000000E-03 0. -1.
        -12    1    3    3    0    0  0.81077293039E+01  0.24678839988E+02  0.14872759290E+02  0.29932914768E+02  0.00000000000E+00 0.  1.
</event>
<event>
 7    1  0.2647566E-010  0.4778727E+02  0.7816164E-02  0.1312668E+00
        -11   -1    0    0    0    0  0.00000000000E+00  0.00000000000E+00  0.45593999997E+02  0.45594000000E+02  0.51100000000E-03 0.  1.
         11   -1    0    0    0    0 -0.00000000000E+00 -0.00000000000E+00 -0.45593999997E+02  0.45594000000E+02  0.51100000000E-03 0. -1.
    9900012    2    1    2    0    0 -0.13857491328E+02  0.11004133669E+01  0.41114259321E+02  0.47787270801E+02  0.19999998890E+02 0.  0.
         12    1    1    2    0    0  0.13857491328E+02 -0.11004133669E+01 -0.41114259321E+02  0.43400729199E+02  0.00000000000E+00 0. -1.
         11    1    3    3    0    0 -0.95261161693E+01  0.67036923731E+01  0.24973281549E+02  0.27556327264E+02  0.51100000000E-03 0. -1.
        -11    1    3    3    0    0 -0.66534937698E+01 -0.21495773804E+01  0.58022920674E+01  0.90860473120E+01  0.51100000000E-03 0.  1.
        -12    1    3    3    0    0  0.23221186112E+01 -0.34537016258E+01  0.10338685705E+02  0.11144896225E+02  0.00000000000E+00 0.  1.
</event>
<event>
 7    1  0.2647566E-010  0.4778726E+02  0.7816164E-02  0.1312668E+00
        -11   -1    0    0    0    0  0.00000000000E+00  0.00000000000E+00  0.45593999997E+02  0.45594000000E+02  0.51100000000E-03 0. -1.
         11   -1    0    0    0    0 -0.00000000000E+00 -0.00000000000E+00 -0.45593999997E+02  0.45594000000E+02  0.51100000000E-03 0.  1.
    9900012    2    1    2    0    0  0.13571757735E+02  0.10658674282E+02 -0.39822406131E+02  0.47787262961E+02  0.19999963146E+02 0.  0.
         12    1    1    2    0    0 -0.13571757735E+02 -0.10658674282E+02  0.39822406131E+02  0.43400737039E+02  0.00000000000E+00 0. -1.
         11    1    3    3    0    0  0.41095316539E+01 -0.61607695834E+00 -0.77118565467E+01  0.87601674009E+01  0.51100000000E-03 0. -1.
        -11    1    3    3    0    0  0.75993337494E+01  0.97078254219E+01 -0.33856592494E+02  0.36031383591E+02  0.51100000000E-03 0.  1.
         12    1    3    3    0    0  0.18628923321E+01  0.15669258181E+01  0.17460429106E+01  0.29957119698E+01  0.00000000000E+00 0. -1.
</event>
<event>
 7    1  0.2647566E-010  0.4778727E+02  0.7816164E-02  0.1312668E+00
        -11   -1    0    0    0    0  0.00000000000E+00  0.00000000000E+00  0.45593999997E+02  0.45594000000E+02  0.51100000000E-03 0.  1.
         11   -1    0    0    0    0 -0.00000000000E+00 -0.00000000000E+00 -0.45593999997E+02  0.45594000000E+02  0.51100000000E-03 0. -1.
    9900012    2    1    2    0    0  0.28143461457E+02 -0.17066804596E+02  0.28289448182E+02  0.47787272813E+02  0.20000008063E+02 0.  0.
         12    1    1    2    0    0 -0.28143461457E+02  0.17066804596E+02 -0.28289448182E+02  0.43400727187E+02  0.00000000000E+00 0. -1.
         11    1    3    3    0    0  0.25806377534E+01  0.39630591751E+01  0.23856367870E+01  0.52968662792E+01  0.51100000000E-03 0. -1.
        -11    1    3    3    0    0  0.71843489723E+00 -0.17341393653E+01  0.31482501246E+01  0.36653604391E+01  0.51100000000E-03 0.  1.
        -12    1    3    3    0    0  0.24844388806E+02 -0.19295724406E+02  0.22755561271E+02  0.38825046095E+02  0.00000000000E+00 0.  1.
</event>
<event>
 7    1  0.2647566E-010  0.4778727E+02  0.7816164E-02  0.1312668E+00
        -11   -1    0    0    0    0  0.00000000000E+00  0.00000000000E+00  0.45593999997E+02  0.45594000000E+02  0.51100000000E-03 0.  1.
         11   -1    0    0    0    0 -0.00000000000E+00 -0.00000000000E+00 -0.45593999997E+02  0.45594000000E+02  0.51100000000E-03 0. -1.
    9900012    2    1    2    0    0 -0.39985215489E+02  0.14297579776E+02  0.89657659484E+01  0.47787271847E+02  0.20000003659E+02 0.  0.
         12    1    1    2    0    0  0.39985215489E+02 -0.14297579776E+02 -0.89657659484E+01  0.43400728153E+02  0.00000000000E+00 0. -1.
         11    1    3    3    0    0 -0.28917593168E+01 -0.93036457995E-01  0.49720811936E+01  0.57526097891E+01  0.51100000000E-03 0. -1.
        -11    1    3    3    0    0 -0.50765823074E+01  0.52241903845E+01  0.47964188050E+01  0.87217823128E+01  0.51100000000E-03 0.  1.
         12    1    3    3    0    0 -0.32016873865E+02  0.91664258492E+01 -0.80273405017E+00  0.33312879745E+02  0.00000000000E+00 0. -1.
</event>
<event>
 7    1  0.2647566E-010  0.4778727E+02  0.7816164E-02  0.1312668E+00
        -11   -1    0    0    0    0  0.00000000000E+00  0.00000000000E+00  0.45593999997E+02  0.45594000000E+02  0.51100000000E-03 0. -1.
         11   -1    0    0    0    0 -0.00000000000E+00 -0.00000000000E+00 -0.45593999997E+02  0.45594000000E+02  0.51100000000E-03 0.  1.
    9900012    2    1    2    0    0 -0.20543813057E+02 -0.30610130009E+02 -0.22904036492E+02  0.47787271876E+02  0.20000003791E+02 0.  0.
         12    1    1    2    0    0  0.20543813057E+02  0.30610130009E+02  0.22904036492E+02  0.43400728124E+02  0.00000000000E+00 0. -1.
         11    1    3    3    0    0 -0.11619659195E+02 -0.14271640152E+02 -0.64950349188E+01  0.19516189979E+02  0.51100000000E-03 0. -1.
        -11    1    3    3    0    0 -0.11838781367E+02 -0.14381513324E+02 -0.16310258352E+02  0.24759022548E+02  0.51100000000E-03 0.  1.
         12    1    3    3    0    0  0.29146275056E+01 -0.19569765326E+01 -0.98743220923E-01  0.35120593488E+01  0.00000000000E+00 0. -1.
</event>
<event>
 7    1  0.2647566E-010  0.4778727E+02  0.7816164E-02  0.1312668E+00
        -11   -1    0    0    0    0  0.00000000000E+00  0.00000000000E+00  0.45593999997E+02  0.45594000000E+02  0.51100000000E-03 0.  1.
         11   -1    0    0    0    0 -0.00000000000E+00 -0.00000000000E+00 -0.45593999997E+02  0.45594000000E+02  0.51100000000E-03 0. -1.
    9900012    2    1    2    0    0 -0.11161190635E+02  0.19298831171E+02  0.37237158204E+02  0.47787274061E+02  0.20000013752E+02 0.  0.
         12    1    1    2    0    0  0.11161190635E+02 -0.19298831171E+02 -0.37237158204E+02  0.43400725939E+02  0.00000000000E+00 0. -1.
         11    1    3    3    0    0  0.29807163076E+01  0.73161154157E+01  0.65317201111E+01  0.10250540588E+02  0.51100000000E-03 0. -1.
        -11    1    3    3    0    0 -0.37222041904E+01  0.75642589810E+01  0.20994095480E+02  0.22623546655E+02  0.51100000000E-03 0.  1.
        -12    1    3    3    0    0 -0.10419702752E+02  0.44184567744E+01  0.97113426133E+01  0.14913186818E+02  0.00000000000E+00 0.  1.
</event>
<event>
 7    1  0.2647566E-010  0.4778727E+02  0.7816164E-02  0.1312668E+00
        -11   -1    0    0    0    0  0.00000000000E+00  0.00000000000E+00  0.45593999997E+02  0.45594000000E+02  0.51100000000E-03 0.  1.
         11   -1    0    0    0    0 -0.00000000000E+00 -0.00000000000E+00 -0.45593999997E+02  0.45594000000E+02  0.51100000000E-03 0. -1.
    9900012    2    1    2    0    0  0.32679373035E+02  0.46676426316E+01  0.28176143373E+02  0.47787269994E+02  0.19999995213E+02 0.  0.
         12    1    1    2    0    0 -0.32679373035E+02 -0.46676426316E+01 -0.28176143373E+02  0.43400730006E+02  0.00000000000E+00 0. -1.
         11    1    3    3    0    0  0.12549069321E+02 -0.34042446050E+01  0.91461765211E+01  0.15897187405E+02  0.51100000000E-03 0.  1.
        -11    1    3    3    0    0  0.10028802919E+02 -0.25303741521E+01  0.45623055639E+01  0.11304614707E+02  0.51100000000E-03 0. -1.
         12    1    3    3    0    0  0.10101500794E+02  0.10602261389E+02  0.14467661288E+02  0.20585467883E+02  0.00000000000E+00 0. -1.
</event>
<event>
 7    1  0.2647566E-010  0.4778727E+02  0.7816164E-02  0.1312668E+00
        -11   -1    0    0    0    0  0.00000000000E+00  0.00000000000E+00  0.45593999997E+02  0.45594000000E+02  0.51100000000E-03 0. -1.
         11   -1    0    0    0    0 -0.00000000000E+00 -0.00000000000E+00 -0.45593999997E+02  0.45594000000E+02  0.51100000000E-03 0.  1.
    9900012    2    1    2    0    0  0.24525220004E+02  0.26604618058E+02 -0.23965205560E+02  0.47787271944E+02  0.20000004100E+02 0.  0.
         12    1    1    2    0    0 -0.24525220004E+02 -0.26604618058E+02  0.23965205560E+02  0.43400728056E+02  0.00000000000E+00 0. -1.
         11    1    3    3    0    0  0.12517018899E+02  0.90646553452E+01 -0.16273973650E+02  0.22442948943E+02  0.51100000000E-03 0. -1.
        -11    1    3    3    0    0  0.96225160862E+01  0.12582891797E+02 -0.10659730678E+02  0.19093240694E+02  0.51100000000E-03 0.  1.
         12    1    3    3    0    0  0.23856850189E+01  0.49570709166E+01  0.29684987672E+01  0.62510823073E+01  0.00000000000E+00 0. -1.
</event>
<event>
 7    1  0.2647566E-010  0.4778727E+02  0.7816164E-02  0.1312668E+00
        -11   -1    0    0    0    0  0.00000000000E+00  0.00000000000E+00  0.45593999997E+02  0.45594000000E+02  0.51100000000E-03 0.  1.
         11   -1    0    0    0    0 -0.00000000000E+00 -0.00000000000E+00 -0.45593999997E+02  0.45594000000E+02  0.51100000000E-03 0. -1.
    9900012    2    1    2    0    0  0.22251243171E+02 -0.28049939335E+02  0.24529705253E+02  0.47787270062E+02  0.19999995521E+02 0.  0.
         12    1    1    2    0    0 -0.22251243171E+02  0.28049939335E+02 -0.24529705253E+02  0.43400729938E+02  0.00000000000E+00 0. -1.
         11    1    3    3    0    0  0.75924929009E+00 -0.59718457401E+01  0.85417832913E+01  0.10449950387E+02  0.51100000000E-03 0. -1.
        -11    1    3    3    0    0  0.11491377864E+02 -0.20299863121E+02  0.89733416616E+01  0.24993140435E+02  0.51100000000E-03 0.  1.
         12    1    3    3    0    0  0.10000616017E+02 -0.17782304736E+01  0.70145803001E+01  0.12344179240E+02  0.00000000000E+00 0. -1.
</event>
<event>
 7    1  0.2647566E-010  0.4778727E+02  0.7816164E-02  0.1312668E+00
        -11   -1    0    0    0    0  0.00000000000E+00  0.00000000000E+00  0.45593999997E+02  0.45594000000E+02  0.51100000000E-03 0.  1.
         11   -1    0    0    0    0 -0.00000000000E+00 -0.00000000000E+00 -0.45593999997E+02  0.45594000000E+02  0.51100000000E-03 0. -1.
    9900012    2    1    2    0    0 -0.49003853504E+01  0.43087201990E+02  0.17613798530E+01  0.47787271770E+02  0.20000003310E+02 0.  0.
         12    1    1    2    0    0  0.49003853504E+01 -0.43087201990E+02 -0.17613798530E+01  0.43400728230E+02  0.00000000000E+00 0. -1.
         11    1    3    3    0    0  0.13671410213E+01  0.46488735975E+01 -0.12885329703E+01  0.50141218348E+01  0.51100000000E-03 0. -1.
        -11    1    3    3    0    0 -0.35288970414E+00  0.12061279707E+00  0.39731812943E+01  0.39906451169E+01  0.51100000000E-03 0.  1.
         12    1    3    3    0    0 -0.59146366676E+01  0.38317715595E+02 -0.92326847100E+00  0.38782504819E+02  0.00000000000E+00 0. -1.
</event>
<event>
 7    1  0.2647566E-010  0.4778727E+02  0.7816164E-02  0.1312668E+00
        -11   -1    0    0    0    0  0.00000000000E+00  0.00000000000E+00  0.45593999997E+02  0.45594000000E+02  0.51100000000E-03 0.  1.
         11   -1    0    0    0    0 -0.00000000000E+00 -0.00000000000E+00 -0.45593999997E+02  0.45594000000E+02  0.51100000000E-03 0. -1.
    9900012    2    1    2    0    0 -0.38562144940E+02 -0.41655730484E+01  0.19473883676E+02  0.47787272280E+02  0.20000005633E+02 0.  0.
         12    1    1    2    0    0  0.38562144940E+02  0.41655730484E+01 -0.19473883676E+02  0.43400727720E+02  0.00000000000E+00 0. -1.
         11    1    3    3    0    0 -0.56330639540E+01 -0.16873854549E+01  0.34261277750E+01  0.68056616853E+01  0.51100000000E-03 0. -1.
        -11    1    3    3    0    0 -0.22949128236E+02 -0.10051658931E+02  0.12263570445E+02  0.27894327280E+02  0.51100000000E-03 0.  1.
         12    1    3    3    0    0 -0.99799527501E+01  0.75734713378E+01  0.37841854556E+01  0.13087283315E+02  0.00000000000E+00 0. -1.
</event>
<event>
 7    1  0.2647566E-010  0.4778727E+02  0.7816164E-02  0.1312668E+00
        -11   -1    0    0    0    0  0.00000000000E+00  0.00000000000E+00  0.45593999997E+02  0.45594000000E+02  0.51100000000E-03 0. -1.
         11   -1    0    0    0    0 -0.00000000000E+00 -0.00000000000E+00 -0.45593999997E+02  0.45594000000E+02  0.51100000000E-03 0.  1.
    9900012    2    1    2    0    0  0.15366555851E+02  0.74170578034E+01 -0.39905883683E+02  0.47787270309E+02  0.19999996647E+02 0.  0.
         12    1    1    2    0    0 -0.15366555851E+02 -0.74170578034E+01  0.39905883683E+02  0.43400729691E+02  0.00000000000E+00 0. -1.
         11    1    3    3    0    0  0.10802028714E+01  0.83891821454E+00  0.90579273848E+00  0.16404519988E+01  0.51100000000E-03 0. -1.
        -11    1    3    3    0    0  0.10364237103E+02  0.13987161637E+01 -0.93726442220E+01  0.14043513720E+02  0.51100000000E-03 0.  1.
        -12    1    3    3    0    0  0.39221158762E+01  0.51794234252E+01 -0.31439032200E+02  0.32103304590E+02  0.00000000000E+00 0.  1.
</event>
<event>
 7    1  0.2647566E-010  0.4778725E+02  0.7816164E-02  0.1312668E+00
        -11   -1    0    0    0    0  0.00000000000E+00  0.00000000000E+00  0.45593999997E+02  0.45594000000E+02  0.51100000000E-03 0. -1.
         11   -1    0    0    0    0 -0.00000000000E+00 -0.00000000000E+00 -0.45593999997E+02  0.45594000000E+02  0.51100000000E-03 0.  1.
    9900012    2    1    2    0    0 -0.78582604860E+01 -0.35504910003E+02 -0.23691227405E+02  0.47787249452E+02  0.19999901550E+02 0.  0.
         12    1    1    2    0    0  0.78582604860E+01  0.35504910003E+02  0.23691227405E+02  0.43400750548E+02  0.00000000000E+00 0. -1.
         11    1    3    3    0    0 -0.15452418067E+01 -0.13309356324E+02 -0.12678148540E+02  0.18446197132E+02  0.51100000000E-03 0. -1.
        -11    1    3    3    0    0 -0.81260665697E+01 -0.23314498304E+02 -0.86551286652E+01  0.26163142807E+02  0.51100000000E-03 0.  1.
         12    1    3    3    0    0  0.18130478904E+01  0.11189446241E+01 -0.23579501997E+01  0.31779095124E+01  0.00000000000E+00 0. -1.
</event>
<event>
 7    1  0.2647566E-010  0.4778727E+02  0.7816164E-02  0.1312668E+00
        -11   -1    0    0    0    0  0.00000000000E+00  0.00000000000E+00  0.45593999997E+02  0.45594000000E+02  0.51100000000E-03 0.  1.
         11   -1    0    0    0    0 -0.00000000000E+00 -0.00000000000E+00 -0.45593999997E+02  0.45594000000E+02  0.51100000000E-03 0. -1.
    9900012    2    1    2    0    0 -0.20017860116E+02  0.35829231279E+02  0.14112919468E+02  0.47787273812E+02  0.20000012619E+02 0.  0.
         12    1    1    2    0    0  0.20017860116E+02 -0.35829231279E+02 -0.14112919468E+02  0.43400726188E+02  0.00000000000E+00 0. -1.
         11    1    3    3    0    0 -0.79989119745E+01  0.11389238648E+02  0.64355335972E+01  0.15333409363E+02  0.51100000000E-03 0. -1.
        -11    1    3    3    0    0 -0.20484125899E+01  0.83418743623E+01  0.10217647066E+02  0.13348527029E+02  0.51100000000E-03 0.  1.
         12    1    3    3    0    0 -0.99705355520E+01  0.16098118269E+02 -0.25402611946E+01  0.19105337420E+02  0.00000000000E+00 0. -1.
</event>
<event>
 7    1  0.2647566E-010  0.4778728E+02  0.7816164E-02  0.1312668E+00
        -11   -1    0    0    0    0  0.00000000000E+00  0.00000000000E+00  0.45593999997E+02  0.45594000000E+02  0.51100000000E-03 0.  1.
         11   -1    0    0    0    0 -0.00000000000E+00 -0.00000000000E+00 -0.45593999997E+02  0.45594000000E+02  0.51100000000E-03 0. -1.
    9900012    2    1    2    0    0 -0.26674386946E+02  0.12510764093E+02  0.31868176443E+02  0.47787276424E+02  0.20000024529E+02 0.  0.
         12    1    1    2    0    0  0.26674386946E+02 -0.12510764093E+02 -0.31868176443E+02  0.43400723576E+02  0.00000000000E+00 0. -1.
         11    1    3    3    0    0 -0.16865675081E+01  0.45482753490E+01  0.51496954243E+01  0.70746506510E+01  0.51100000000E-03 0. -1.
        -11    1    3    3    0    0 -0.25064949586E+02  0.76697678914E+01  0.28607018606E+02  0.38799981327E+02  0.51100000000E-03 0.  1.
         12    1    3    3    0    0  0.77130147768E-01  0.29272085233E+00 -0.18885375875E+01  0.19126444459E+01  0.00000000000E+00 0. -1.
</event>
<event>
 7    1  0.2647566E-010  0.4778727E+02  0.7816164E-02  0.1312668E+00
        -11   -1    0    0    0    0  0.00000000000E+00  0.00000000000E+00  0.45593999997E+02  0.45594000000E+02  0.51100000000E-03 0. -1.
         11   -1    0    0    0    0 -0.00000000000E+00 -0.00000000000E+00 -0.45593999997E+02  0.45594000000E+02  0.51100000000E-03 0.  1.
    9900012    2    1    2    0    0  0.16993232541E+01  0.68092638701E+01 -0.42829539234E+02  0.47787271838E+02  0.20000003620E+02 0.  0.
         12    1    1    2    0    0 -0.16993232541E+01 -0.68092638701E+01  0.42829539234E+02  0.43400728162E+02  0.00000000000E+00 0. -1.
         11    1    3    3    0    0 -0.45856579088E+01 -0.41612004401E+01 -0.11372533760E+02  0.12949068382E+02  0.51100000000E-03 0. -1.
        -11    1    3    3    0    0  0.28392562857E+01 -0.51450009030E+00 -0.77848812677E+01  0.83024371850E+01  0.51100000000E-03 0.  1.
         12    1    3    3    0    0  0.34457248772E+01  0.11484964401E+02 -0.23672124206E+02  0.26535766272E+02  0.00000000000E+00 0. -1.
</event>
<event>
 7    1  0.2647566E-010  0.4778728E+02  0.7816164E-02  0.1312668E+00
        -11   -1    0    0    0    0  0.00000000000E+00  0.00000000000E+00  0.45593999997E+02  0.45594000000E+02  0.51100000000E-03 0. -1.
         11   -1    0    0    0    0 -0.00000000000E+00 -0.00000000000E+00 -0.45593999997E+02  0.45594000000E+02  0.51100000000E-03 0.  1.
    9900012    2    1    2    0    0 -0.39158645225E+02  0.17290008776E+02  0.71609328032E+01  0.47787275836E+02  0.20000021846E+02 0.  0.
         12    1    1    2    0    0  0.39158645225E+02 -0.17290008776E+02 -0.71609328032E+01  0.43400724164E+02  0.00000000000E+00 0. -1.
         11    1    3    3    0    0 -0.11865743482E+02  0.89627806094E+01 -0.37461441793E+01  0.15334956834E+02  0.51100000000E-03 0. -1.
        -11    1    3    3    0    0 -0.86935927132E+01  0.67371553103E+01  0.34436406095E+00  0.11003926699E+02  0.51100000000E-03 0.  1.
         12    1    3    3    0    0 -0.18599309031E+02  0.15900728564E+01  0.10562712922E+02  0.21448392303E+02  0.00000000000E+00 0. -1.
</event>
<event>
 7    1  0.2647566E-010  0.4778727E+02  0.7816164E-02  0.1312668E+00
        -11   -1    0    0    0    0  0.00000000000E+00  0.00000000000E+00  0.45593999997E+02  0.45594000000E+02  0.51100000000E-03 0.  1.
         11   -1    0    0    0    0 -0.00000000000E+00 -0.00000000000E+00 -0.45593999997E+02  0.45594000000E+02  0.51100000000E-03 0. -1.
    9900012    2    1    2    0    0  0.13628056233E+02 -0.17785457632E+02  0.37169569297E+02  0.47787270725E+02  0.19999998543E+02 0.  0.
         12    1    1    2    0    0 -0.13628056233E+02  0.17785457632E+02 -0.37169569297E+02  0.43400729275E+02  0.00000000000E+00 0. -1.
         11    1    3    3    0    0  0.37254107932E+01  0.28213575711E+00  0.10617158066E+02  0.11255324599E+02  0.51100000000E-03 0. -1.
        -11    1    3    3    0    0 -0.27930111018E-01 -0.23966344176E+00 -0.16794928217E+01  0.16967365900E+01  0.51100000000E-03 0.  1.
        -12    1    3    3    0    0  0.99305755508E+01 -0.17827929947E+02  0.28231904053E+02  0.34835209536E+02  0.00000000000E+00 0.  1.
</event>
<event>
 7    1  0.2647566E-010  0.4778727E+02  0.7816164E-02  0.1312668E+00
        -11   -1    0    0    0    0  0.00000000000E+00  0.00000000000E+00  0.45593999997E+02  0.45594000000E+02  0.51100000000E-03 0. -1.
         11   -1    0    0    0    0 -0.00000000000E+00 -0.00000000000E+00 -0.45593999997E+02  0.45594000000E+02  0.51100000000E-03 0.  1.
    9900012    2    1    2    0    0  0.24753223059E+02  0.19463177419E+02 -0.29867807669E+02  0.47787271181E+02  0.20000000622E+02 0.  0.
         12    1    1    2    0    0 -0.24753223059E+02 -0.19463177419E+02  0.29867807669E+02  0.43400728819E+02  0.00000000000E+00 0. -1.
         11    1    3    3    0    0  0.10501453053E+01  0.84981963440E+01 -0.52856648349E+01  0.10062822629E+02  0.51100000000E-03 0. -1.
        -11    1    3    3    0    0  0.14378332951E+02  0.10762542696E+02 -0.10411385270E+02  0.20759714045E+02  0.51100000000E-03 0.  1.
        -12    1    3    3    0    0  0.93247448023E+01  0.20243837961E+00 -0.14170757564E+02  0.16964734507E+02  0.00000000000E+00 0.  1.
</event>
<event>
 7    1  0.2647566E-010  0.4778727E+02  0.7816164E-02  0.1312668E+00
        -11   -1    0    0    0    0  0.00000000000E+00  0.00000000000E+00  0.45593999997E+02  0.45594000000E+02  0.51100000000E-03 0.  1.
         11   -1    0    0    0    0 -0.00000000000E+00 -0.00000000000E+00 -0.45593999997E+02  0.45594000000E+02  0.51100000000E-03 0. -1.
    9900012    2    1    2    0    0  0.12099342528E+02  0.39006064591E+02  0.14688642011E+02  0.47787269953E+02  0.19999995025E+02 0.  0.
         12    1    1    2    0    0 -0.12099342528E+02 -0.39006064591E+02 -0.14688642011E+02  0.43400730047E+02  0.00000000000E+00 0. -1.
         11    1    3    3    0    0  0.62347494109E+01  0.72327159559E+01  0.33592669964E+01  0.10122695063E+02  0.51100000000E-03 0. -1.
        -11    1    3    3    0    0  0.63152649552E+01  0.91087281230E+01  0.10046179556E+02  0.14959185252E+02  0.51100000000E-03 0.  1.
        -12    1    3    3    0    0 -0.45067183804E+00  0.22664620512E+02  0.12831954585E+01  0.22705389638E+02  0.00000000000E+00 0.  1.
</event>
<event>
 7    1  0.2647566E-010  0.4778727E+02  0.7816164E-02  0.1312668E+00
        -11   -1    0    0    0    0  0.00000000000E+00  0.00000000000E+00  0.45593999997E+02  0.45594000000E+02  0.51100000000E-03 0.  1.
         11   -1    0    0    0    0 -0.00000000000E+00 -0.00000000000E+00 -0.45593999997E+02  0.45594000000E+02  0.51100000000E-03 0. -1.
    9900012    2    1    2    0    0  0.31988658887E+02 -0.29272310385E+02  0.18657112751E+01  0.47787270384E+02  0.19999996988E+02 0.  0.
         12    1    1    2    0    0 -0.31988658887E+02  0.29272310385E+02 -0.18657112751E+01  0.43400729616E+02  0.00000000000E+00 0. -1.
         11    1    3    3    0    0  0.10427927943E+01 -0.69311185374E+01  0.19949757003E+01  0.72875063841E+01  0.51100000000E-03 0. -1.
        -11    1    3    3    0    0  0.19385881687E+02 -0.21179745881E+02 -0.17676671775E+01  0.28766624618E+02  0.51100000000E-03 0.  1.
         12    1    3    3    0    0  0.11559984405E+02 -0.11614459668E+01  0.16384027522E+01  0.11733139382E+02  0.00000000000E+00 0. -1.
</event>
<event>
 7    1  0.2647566E-010  0.4778727E+02  0.7816164E-02  0.1312668E+00
        -11   -1    0    0    0    0  0.00000000000E+00  0.00000000000E+00  0.45593999997E+02  0.45594000000E+02  0.51100000000E-03 0.  1.
         11   -1    0    0    0    0 -0.00000000000E+00 -0.00000000000E+00 -0.45593999997E+02  0.45594000000E+02  0.51100000000E-03 0. -1.
    9900012    2    1    2    0    0 -0.11787140202E+02  0.34311808918E+02  0.23819867167E+02  0.47787274462E+02  0.20000015582E+02 0.  0.
         12    1    1    2    0    0  0.11787140202E+02 -0.34311808918E+02 -0.23819867167E+02  0.43400725538E+02  0.00000000000E+00 0. -1.
         11    1    3    3    0    0 -0.44168015902E+01  0.18452227054E+02  0.11999152447E+02  0.22449331377E+02  0.51100000000E-03 0. -1.
        -11    1    3    3    0    0 -0.25679673552E+01  0.11475069059E+02 -0.99533652823E-01  0.11759318579E+02  0.51100000000E-03 0.  1.
        -12    1    3    3    0    0 -0.48023712563E+01  0.43845128056E+01  0.11920248372E+02  0.13578624506E+02  0.00000000000E+00 0.  1.
</event>
<event>
 7    1  0.2647566E-010  0.4778727E+02  0.7816164E-02  0.1312668E+00
        -11   -1    0    0    0    0  0.00000000000E+00  0.00000000000E+00  0.45593999997E+02  0.45594000000E+02  0.51100000000E-03 0.  1.
         11   -1    0    0    0    0 -0.00000000000E+00 -0.00000000000E+00 -0.45593999997E+02  0.45594000000E+02  0.51100000000E-03 0. -1.
    9900012    2    1    2    0    0 -0.23737827775E+02  0.34095513311E+02  0.12555272571E+02  0.47787269998E+02  0.19999995228E+02 0.  0.
         12    1    1    2    0    0  0.23737827775E+02 -0.34095513311E+02 -0.12555272571E+02  0.43400730002E+02  0.00000000000E+00 0. -1.
         11    1    3    3    0    0 -0.14825886449E+02  0.13579636640E+02  0.10102374689E+02  0.22500475881E+02  0.51100000000E-03 0. -1.
        -11    1    3    3    0    0 -0.26615523944E+00  0.65811831522E+01  0.55317395615E+01  0.86013343809E+01  0.51100000000E-03 0.  1.
         12    1    3    3    0    0 -0.86457860867E+01  0.13934693518E+02 -0.30788416787E+01  0.16685459736E+02  0.00000000000E+00 0. -1.
</event>
<event>
 7    1  0.2647566E-010  0.4778727E+02  0.7816164E-02  0.1312668E+00
        -11   -1    0    0    0    0  0.00000000000E+00  0.00000000000E+00  0.45593999997E+02  0.45594000000E+02  0.51100000000E-03 0. -1.
         11   -1    0    0    0    0 -0.00000000000E+00 -0.00000000000E+00 -0.45593999997E+02  0.45594000000E+02  0.51100000000E-03 0.  1.
    9900012    2    1    2    0    0  0.35641652937E+02  0.24549287498E+02  0.32600893095E+01  0.47787272782E+02  0.20000007924E+02 0.  0.
         12    1    1    2    0    0 -0.35641652937E+02 -0.24549287498E+02 -0.32600893095E+01  0.43400727218E+02  0.00000000000E+00 0. -1.
         11    1    3    3    0    0 -0.93090111776E-01  0.22212881683E+00 -0.25485580870E+01  0.25599131946E+01  0.51100000000E-03 0. -1.
        -11    1    3    3    0    0  0.90036823538E+01  0.70137606811E+01  0.69429617218E+01  0.13359036363E+02  0.51100000000E-03 0.  1.
        -12    1    3    3    0    0  0.26731060695E+02  0.17313398000E+02 -0.11343143252E+01  0.31868323225E+02  0.00000000000E+00 0.  1.
</event>
<event>
 7    1  0.2647566E-010  0.4778727E+02  0.7816164E-02  0.1312668E+00
        -11   -1    0    0    0    0  0.00000000000E+00  0.00000000000E+00  0.45593999997E+02  0.45594000000E+02  0.51100000000E-03 0. -1.
         11   -1    0    0    0    0 -0.00000000000E+00 -0.00000000000E+00 -0.45593999997E+02  0.45594000000E+02  0.51100000000E-03 0.  1.
    9900012    2    1    2    0    0 -0.24552803727E+02  0.34150607006E+02  0.10701364705E+02  0.47787270326E+02  0.19999996723E+02 0.  0.
         12    1    1    2    0    0  0.24552803727E+02 -0.34150607006E+02 -0.10701364705E+02  0.43400729674E+02  0.00000000000E+00 0. -1.
         11    1    3    3    0    0 -0.40927597743E+01  0.67476343670E+01  0.13835614610E+01  0.80122091022E+01  0.51100000000E-03 0. -1.
        -11    1    3    3    0    0 -0.14727264469E+02  0.28555130076E+02  0.10515472267E+02  0.33806255777E+02  0.51100000000E-03 0.  1.
         12    1    3    3    0    0 -0.57327794832E+01 -0.11521574375E+01 -0.11976690230E+01  0.59688054460E+01  0.00000000000E+00 0. -1.
</event>
<event>
 7    1  0.2647566E-010  0.4778727E+02  0.7816164E-02  0.1312668E+00
        -11   -1    0    0    0    0  0.00000000000E+00  0.00000000000E+00  0.45593999997E+02  0.45594000000E+02  0.51100000000E-03 0.  1.
         11   -1    0    0    0    0 -0.00000000000E+00 -0.00000000000E+00 -0.45593999997E+02  0.45594000000E+02  0.51100000000E-03 0. -1.
    9900012    2    1    2    0    0  0.52406373809E+01  0.29844095164E+02  0.31072324681E+02  0.47787266626E+02  0.19999979856E+02 0.  0.
         12    1    1    2    0    0 -0.52406373809E+01 -0.29844095164E+02 -0.31072324681E+02  0.43400733374E+02  0.00000000000E+00 0. -1.
         11    1    3    3    0    0 -0.21243149469E+01  0.12452083072E+02  0.14514250585E+02  0.19241376175E+02  0.51100000000E-03 0. -1.
        -11    1    3    3    0    0  0.66951986486E+01  0.19717307076E+02  0.14571746746E+02  0.25415225491E+02  0.51100000000E-03 0.  1.
         12    1    3    3    0    0  0.66975367915E+00 -0.23252949836E+01  0.19863273495E+01  0.31306649599E+01  0.00000000000E+00 0. -1.
</event>
<event>
 7    1  0.2647566E-010  0.4778726E+02  0.7816164E-02  0.1312668E+00
        -11   -1    0    0    0    0  0.00000000000E+00  0.00000000000E+00  0.45593999997E+02  0.45594000000E+02  0.51100000000E-03 0.  1.
         11   -1    0    0    0    0 -0.00000000000E+00 -0.00000000000E+00 -0.45593999997E+02  0.45594000000E+02  0.51100000000E-03 0. -1.
    9900012    2    1    2    0    0  0.11413057250E+02  0.41583959810E+02  0.49133335333E+01  0.47787257660E+02  0.19999938975E+02 0.  0.
         12    1    1    2    0    0 -0.11413057250E+02 -0.41583959810E+02 -0.49133335333E+01  0.43400742340E+02  0.00000000000E+00 0. -1.
         11    1    3    3    0    0  0.19364604373E+00  0.20438715198E+02  0.16940363258E+01  0.20509713237E+02  0.51100000000E-03 0. -1.
        -11    1    3    3    0    0  0.70257881341E+01  0.21743523068E+02  0.26629382626E+01  0.23005080630E+02  0.51100000000E-03 0.  1.
         12    1    3    3    0    0  0.41936230726E+01 -0.59827845669E+00  0.55635894478E+00  0.42724637930E+01  0.00000000000E+00 0. -1.
</event>
<event>
 7    1  0.2647566E-010  0.4778727E+02  0.7816164E-02  0.1312668E+00
        -11   -1    0    0    0    0  0.00000000000E+00  0.00000000000E+00  0.45593999997E+02  0.45594000000E+02  0.51100000000E-03 0.  1.
         11   -1    0    0    0    0 -0.00000000000E+00 -0.00000000000E+00 -0.45593999997E+02  0.45594000000E+02  0.51100000000E-03 0. -1.
    9900012    2    1    2    0    0  0.15818180775E+02 -0.33602538921E+02  0.22456130782E+02  0.47787271036E+02  0.19999999960E+02 0.  0.
         12    1    1    2    0    0 -0.15818180775E+02  0.33602538921E+02 -0.22456130782E+02  0.43400728964E+02  0.00000000000E+00 0. -1.
         11    1    3    3    0    0  0.27411075487E+01 -0.90921652923E+01  0.48042651178E+01  0.10642467002E+02  0.51100000000E-03 0. -1.
        -11    1    3    3    0    0  0.20496998474E+01  0.70893206764E+00  0.75003527121E+01  0.78076337778E+01  0.51100000000E-03 0.  1.
        -12    1    3    3    0    0  0.11027373379E+02 -0.25219305696E+02  0.10151512952E+02  0.29337170256E+02  0.00000000000E+00 0.  1.
</event>
<event>
 7    1  0.2647566E-010  0.4778727E+02  0.7816164E-02  0.1312668E+00
        -11   -1    0    0    0    0  0.00000000000E+00  0.00000000000E+00  0.45593999997E+02  0.45594000000E+02  0.51100000000E-03 0.  1.
         11   -1    0    0    0    0 -0.00000000000E+00 -0.00000000000E+00 -0.45593999997E+02  0.45594000000E+02  0.51100000000E-03 0. -1.
    9900012    2    1    2    0    0  0.20079159125E+02  0.13125679486E+02  0.36168595960E+02  0.47787269282E+02  0.19999991963E+02 0.  0.
         12    1    1    2    0    0 -0.20079159125E+02 -0.13125679486E+02 -0.36168595960E+02  0.43400730718E+02  0.00000000000E+00 0. -1.
         11    1    3    3    0    0  0.69583149576E+01  0.34213023600E+01  0.12503929711E+02  0.14712977787E+02  0.51100000000E-03 0. -1.
        -11    1    3    3    0    0  0.61248602951E+01 -0.42977643595E+00  0.18896500320E+02  0.19868979492E+02  0.51100000000E-03 0.  1.
         12    1    3    3    0    0  0.69959838727E+01  0.10134153562E+02  0.47681659290E+01  0.13205312003E+02  0.00000000000E+00 0. -1.
</event>
<event>
 7    1  0.2647566E-010  0.4778726E+02  0.7816164E-02  0.1312668E+00
        -11   -1    0    0    0    0  0.00000000000E+00  0.00000000000E+00  0.45593999997E+02  0.45594000000E+02  0.51100000000E-03 0.  1.
         11   -1    0    0    0    0 -0.00000000000E+00 -0.00000000000E+00 -0.45593999997E+02  0.45594000000E+02  0.51100000000E-03 0. -1.
    9900012    2    1    2    0    0  0.39602735620E+02 -0.36811833182E+01  0.17369411147E+02  0.47787260112E+02  0.19999950156E+02 0.  0.
         12    1    1    2    0    0 -0.39602735620E+02  0.36811833182E+01 -0.17369411147E+02  0.43400739888E+02  0.00000000000E+00 0. -1.
         11    1    3    3    0    0  0.16914626373E+02  0.86082816368E+00  0.13161099201E+01  0.16987576520E+02  0.51100000000E-03 0. -1.
        -11    1    3    3    0    0  0.21244859456E+02 -0.11603733793E+01  0.95338191463E+01  0.23314892825E+02  0.51100000000E-03 0.  1.
         12    1    3    3    0    0  0.14432497914E+01 -0.33816381027E+01  0.65194820809E+01  0.74847907667E+01  0.00000000000E+00 0. -1.
</event>
<event>
 7    1  0.2647566E-010  0.4778728E+02  0.7816164E-02  0.1312668E+00
        -11   -1    0    0    0    0  0.00000000000E+00  0.00000000000E+00  0.45593999997E+02  0.45594000000E+02  0.51100000000E-03 0.  1.
         11   -1    0    0    0    0 -0.00000000000E+00 -0.00000000000E+00 -0.45593999997E+02  0.45594000000E+02  0.51100000000E-03 0. -1.
    9900012    2    1    2    0    0  0.22842737515E+01  0.40016005066E+02  0.16647050904E+02  0.47787275676E+02  0.20000021119E+02 0.  0.
         12    1    1    2    0    0 -0.22842737515E+01 -0.40016005066E+02 -0.16647050904E+02  0.43400724324E+02  0.00000000000E+00 0. -1.
         11    1    3    3    0    0 -0.49270510461E+00  0.49069178892E+01  0.73536405313E+01  0.88541871912E+01  0.51100000000E-03 0. -1.
        -11    1    3    3    0    0  0.52141822777E+01  0.25026881630E+02  0.11959352062E+02  0.28223369802E+02  0.51100000000E-03 0.  1.
         12    1    3    3    0    0 -0.24372034216E+01  0.10082205546E+02 -0.26659416887E+01  0.10709718683E+02  0.00000000000E+00 0. -1.
</event>
<event>
 7    1  0.2647566E-010  0.4778727E+02  0.7816164E-02  0.1312668E+00
        -11   -1    0    0    0    0  0.00000000000E+00  0.00000000000E+00  0.45593999997E+02  0.45594000000E+02  0.51100000000E-03 0.  1.
         11   -1    0    0    0    0 -0.00000000000E+00 -0.00000000000E+00 -0.45593999997E+02  0.45594000000E+02  0.51100000000E-03 0. -1.
    9900012    2    1    2    0    0 -0.34210781910E+02  0.96465597809E+01  0.24903607796E+02  0.47787269640E+02  0.19999993598E+02 0.  0.
         12    1    1    2    0    0  0.34210781910E+02 -0.96465597809E+01 -0.24903607796E+02  0.43400730360E+02  0.00000000000E+00 0. -1.
         11    1    3    3    0    0 -0.78585094638E+01  0.16120193999E+01  0.60645928906E+01  0.10056543379E+02  0.51100000000E-03 0.  1.
        -11    1    3    3    0    0 -0.26854913613E+02  0.73783554359E+01  0.21346909357E+02  0.35090127578E+02  0.51100000000E-03 0. -1.
         12    1    3    3    0    0  0.50264116658E+00  0.65618494509E+00 -0.25078944520E+01  0.26405986834E+01  0.00000000000E+00 0. -1.
</event>
<event>
 7    1  0.2647566E-010  0.4778727E+02  0.7816164E-02  0.1312668E+00
        -11   -1    0    0    0    0  0.00000000000E+00  0.00000000000E+00  0.45593999997E+02  0.45594000000E+02  0.51100000000E-03 0.  1.
         11   -1    0    0    0    0 -0.00000000000E+00 -0.00000000000E+00 -0.45593999997E+02  0.45594000000E+02  0.51100000000E-03 0. -1.
    9900012    2    1    2    0    0 -0.68645062247E+01 -0.34137626508E+02  0.25906071499E+02  0.47787268096E+02  0.19999986558E+02 0.  0.
         12    1    1    2    0    0  0.68645062247E+01  0.34137626508E+02 -0.25906071499E+02  0.43400731904E+02  0.00000000000E+00 0. -1.
         11    1    3    3    0    0 -0.85341699357E+01 -0.60770104778E+01  0.10322829593E+02  0.14707920448E+02  0.51100000000E-03 0. -1.
        -11    1    3    3    0    0  0.25945792158E+01 -0.25984990561E+01  0.14937671793E+01  0.39642627686E+01  0.51100000000E-03 0.  1.
        -12    1    3    3    0    0 -0.92491550480E+00 -0.25462116974E+02  0.14089474726E+02  0.29115084880E+02  0.00000000000E+00 0.  1.
</event>
<event>
 7    1  0.2647566E-010  0.4778727E+02  0.7816164E-02  0.1312668E+00
        -11   -1    0    0    0    0  0.00000000000E+00  0.00000000000E+00  0.45593999997E+02  0.45594000000E+02  0.51100000000E-03 0.  1.
         11   -1    0    0    0    0 -0.00000000000E+00 -0.00000000000E+00 -0.45593999997E+02  0.45594000000E+02  0.51100000000E-03 0. -1.
    9900012    2    1    2    0    0  0.32392718937E+02  0.28650679315E+02  0.36706819661E+01  0.47787267617E+02  0.19999984371E+02 0.  0.
         12    1    1    2    0    0 -0.32392718937E+02 -0.28650679315E+02 -0.36706819661E+01  0.43400732383E+02  0.00000000000E+00 0. -1.
         11    1    3    3    0    0  0.24674469842E+02  0.10787425819E+02  0.26297000468E+01  0.27057593026E+02  0.51100000000E-03 0. -1.
        -11    1    3    3    0    0  0.74576838929E+01  0.96234422004E+01  0.22998039523E+01  0.12390189156E+02  0.51100000000E-03 0.  1.
         12    1    3    3    0    0  0.26056520208E+00  0.82398112953E+01 -0.12588220330E+01  0.83394854349E+01  0.00000000000E+00 0. -1.
</event>
<event>
 7    1  0.2647566E-010  0.4778727E+02  0.7816164E-02  0.1312668E+00
        -11   -1    0    0    0    0  0.00000000000E+00  0.00000000000E+00  0.45593999997E+02  0.45594000000E+02  0.51100000000E-03 0. -1.
         11   -1    0    0    0    0 -0.00000000000E+00 -0.00000000000E+00 -0.45593999997E+02  0.45594000000E+02  0.51100000000E-03 0.  1.
    9900012    2    1    2    0    0 -0.16406336563E+02 -0.37811393511E+02  0.13592422101E+02  0.47787270775E+02  0.19999998771E+02 0.  0.
         12    1    1    2    0    0  0.16406336563E+02  0.37811393511E+02 -0.13592422101E+02  0.43400729225E+02  0.00000000000E+00 0. -1.
         11    1    3    3    0    0 -0.92327406506E+00 -0.82169930400E+01  0.37751073345E+01  0.90897109562E+01  0.51100000000E-03 0.  1.
        -11    1    3    3    0    0 -0.72777007527E+01 -0.22741565163E+02 -0.44032362721E+00  0.23881741969E+02  0.51100000000E-03 0. -1.
         12    1    3    3    0    0 -0.82053617455E+01 -0.68528353081E+01  0.10257638394E+02  0.14815817850E+02  0.00000000000E+00 0. -1.
</event>
<event>
 7    1  0.2647566E-010  0.4778727E+02  0.7816164E-02  0.1312668E+00
        -11   -1    0    0    0    0  0.00000000000E+00  0.00000000000E+00  0.45593999997E+02  0.45594000000E+02  0.51100000000E-03 0.  1.
         11   -1    0    0    0    0 -0.00000000000E+00 -0.00000000000E+00 -0.45593999997E+02  0.45594000000E+02  0.51100000000E-03 0. -1.
    9900012    2    1    2    0    0 -0.98881502845E+01 -0.18110703919E+01  0.42220468127E+02  0.47787269351E+02  0.19999992280E+02 0.  0.
         12    1    1    2    0    0  0.98881502845E+01  0.18110703919E+01 -0.42220468127E+02  0.43400730649E+02  0.00000000000E+00 0. -1.
         11    1    3    3    0    0 -0.15490585875E+01  0.84476426561E+00 -0.74620103803E+00  0.19157310412E+01  0.51100000000E-03 0. -1.
        -11    1    3    3    0    0  0.36054226923E+01 -0.19417925232E+01  0.11373462615E+02  0.12088229114E+02  0.51100000000E-03 0.  1.
         12    1    3    3    0    0 -0.11944514389E+02 -0.71404213428E+00  0.31593206550E+02  0.33783309196E+02  0.00000000000E+00 0. -1.
</event>
<event>
 7    1  0.2647566E-010  0.4778727E+02  0.7816164E-02  0.1312668E+00
        -11   -1    0    0    0    0  0.00000000000E+00  0.00000000000E+00  0.45593999997E+02  0.45594000000E+02  0.51100000000E-03 0.  1.
         11   -1    0    0    0    0 -0.00000000000E+00 -0.00000000000E+00 -0.45593999997E+02  0.45594000000E+02  0.51100000000E-03 0. -1.
    9900012    2    1    2    0    0 -0.84445736006E+01 -0.10182224845E+01  0.42559085500E+02  0.47787270064E+02  0.19999995531E+02 0.  0.
         12    1    1    2    0    0  0.84445736006E+01  0.10182224845E+01 -0.42559085500E+02  0.43400729936E+02  0.00000000000E+00 0. -1.
         11    1    3    3    0    0 -0.36553222845E+01 -0.88169782566E+01  0.22523676564E+02  0.24462552868E+02  0.51100000000E-03 0. -1.
        -11    1    3    3    0    0 -0.88376421597E+00 -0.15115849066E+01  0.41250254457E+01  0.44812680469E+01  0.51100000000E-03 0.  1.
        -12    1    3    3    0    0 -0.39054871001E+01  0.93103406786E+01  0.15910383491E+02  0.18843449150E+02  0.00000000000E+00 0.  1.
</event>
<event>
 7    1  0.2647566E-010  0.4778729E+02  0.7816164E-02  0.1312668E+00
        -11   -1    0    0    0    0  0.00000000000E+00  0.00000000000E+00  0.45593999997E+02  0.45594000000E+02  0.51100000000E-03 0. -1.
         11   -1    0    0    0    0 -0.00000000000E+00 -0.00000000000E+00 -0.45593999997E+02  0.45594000000E+02  0.51100000000E-03 0.  1.
    9900012    2    1    2    0    0  0.35264958315E+02 -0.22725117476E+02  0.11116358675E+02  0.47787289413E+02  0.20000083748E+02 0.  0.
         12    1    1    2    0    0 -0.35264958315E+02  0.22725117476E+02 -0.11116358675E+02  0.43400710587E+02  0.00000000000E+00 0. -1.
         11    1    3    3    0    0 -0.11743823520E+00 -0.22893154651E+01  0.31499158546E+00  0.23138662446E+01  0.51100000000E-03 0. -1.
        -11    1    3    3    0    0  0.30181543940E+02 -0.15954168161E+02  0.18452844750E+01  0.34188684551E+02  0.51100000000E-03 0.  1.
        -12    1    3    3    0    0  0.52008526106E+01 -0.44816338505E+01  0.89560826150E+01  0.11284738617E+02  0.00000000000E+00 0.  1.
</event>
<event>
 7    1  0.2647566E-010  0.4778726E+02  0.7816164E-02  0.1312668E+00
        -11   -1    0    0    0    0  0.00000000000E+00  0.00000000000E+00  0.45593999997E+02  0.45594000000E+02  0.51100000000E-03 0. -1.
         11   -1    0    0    0    0 -0.00000000000E+00 -0.00000000000E+00 -0.45593999997E+02  0.45594000000E+02  0.51100000000E-03 0.  1.
    9900012    2    1    2    0    0  0.16105277424E+02 -0.31048845960E+02 -0.25694611162E+02  0.47787264533E+02  0.19999970311E+02 0.  0.
         12    1    1    2    0    0 -0.16105277424E+02  0.31048845960E+02  0.25694611162E+02  0.43400735467E+02  0.00000000000E+00 0. -1.
         11    1    3    3    0    0  0.59252430517E+01 -0.52347877777E+01 -0.10804399158E+02  0.13388298985E+02  0.51100000000E-03 0. -1.
        -11    1    3    3    0    0  0.97062230981E+01 -0.23953109756E+02 -0.17460716430E+02  0.31190364736E+02  0.51100000000E-03 0.  1.
        -12    1    3    3    0    0  0.47381127398E+00 -0.18609484255E+01  0.25705044260E+01  0.32086008118E+01  0.00000000000E+00 0.  1.
</event>
<event>
 7    1  0.2647566E-010  0.4778734E+02  0.7816164E-02  0.1312667E+00
        -11   -1    0    0    0    0  0.00000000000E+00  0.00000000000E+00  0.45593999997E+02  0.45594000000E+02  0.51100000000E-03 0.  1.
         11   -1    0    0    0    0 -0.00000000000E+00 -0.00000000000E+00 -0.45593999997E+02  0.45594000000E+02  0.51100000000E-03 0. -1.
    9900012    2    1    2    0    0  0.45371803972E+01  0.41257387864E+02  0.12683044640E+02  0.47787335481E+02  0.20000293792E+02 0.  0.
         12    1    1    2    0    0 -0.45371803972E+01 -0.41257387864E+02 -0.12683044640E+02  0.43400664519E+02  0.00000000000E+00 0. -1.
         11    1    3    3    0    0  0.46193270096E+01  0.32877791101E+01  0.36715932303E+01  0.67548701400E+01  0.51100000000E-03 0. -1.
        -11    1    3    3    0    0 -0.24471597853E+01  0.62548666730E+00  0.12452079462E+01  0.28160908501E+01  0.51100000000E-03 0.  1.
        -12    1    3    3    0    0  0.23650131729E+01  0.37344122087E+02  0.77662434635E+01  0.38216374491E+02  0.00000000000E+00 0.  1.
</event>
<event>
 7    1  0.2647566E-010  0.4778728E+02  0.7816164E-02  0.1312668E+00
        -11   -1    0    0    0    0  0.00000000000E+00  0.00000000000E+00  0.45593999997E+02  0.45594000000E+02  0.51100000000E-03 0.  1.
         11   -1    0    0    0    0 -0.00000000000E+00 -0.00000000000E+00 -0.45593999997E+02  0.45594000000E+02  0.51100000000E-03 0. -1.
    9900012    2    1    2    0    0  0.25332748710E+02 -0.75048861564E+01  0.34431834421E+02  0.47787277713E+02  0.20000030404E+02 0.  0.
         12    1    1    2    0    0 -0.25332748710E+02  0.75048861564E+01 -0.34431834421E+02  0.43400722287E+02  0.00000000000E+00 0. -1.
         11    1    3    3    0    0  0.23547572547E+02 -0.80267070182E+01  0.32439589482E+02  0.40880841044E+02  0.51100000000E-03 0. -1.
        -11    1    3    3    0    0 -0.59411973399E+00 -0.13326622543E+01  0.33078733958E+01  0.36153829128E+01  0.51100000000E-03 0.  1.
         12    1    3    3    0    0  0.23792958970E+01  0.18544831161E+01 -0.13156284563E+01  0.32910537565E+01  0.00000000000E+00 0. -1.
</event>
<event>
 7    1  0.2647566E-010  0.4778727E+02  0.7816164E-02  0.1312668E+00
        -11   -1    0    0    0    0  0.00000000000E+00  0.00000000000E+00  0.45593999997E+02  0.45594000000E+02  0.51100000000E-03 0.  1.
         11   -1    0    0    0    0 -0.00000000000E+00 -0.00000000000E+00 -0.45593999997E+02  0.45594000000E+02  0.51100000000E-03 0. -1.
    9900012    2    1    2    0    0  0.29957458213E+02  0.22633471179E+02  0.21769243190E+02  0.47787271098E+02  0.20000000243E+02 0.  0.
         12    1    1    2    0    0 -0.29957458213E+02 -0.22633471179E+02 -0.21769243190E+02  0.43400728902E+02  0.00000000000E+00 0. -1.
         11    1    3    3    0    0  0.17477712622E+01  0.75436793721E+01  0.33875973636E+01  0.84520777927E+01  0.51100000000E-03 0. -1.
        -11    1    3    3    0    0  0.52735688959E+01  0.69769686435E+01  0.10706600234E+02  0.13824612443E+02  0.51100000000E-03 0.  1.
        -12    1    3    3    0    0  0.22936118054E+02  0.81128231635E+01  0.76750455926E+01  0.25510580862E+02  0.00000000000E+00 0.  1.
</event>
<event>
 7    1  0.2647566E-010  0.4778727E+02  0.7816164E-02  0.1312668E+00
        -11   -1    0    0    0    0  0.00000000000E+00  0.00000000000E+00  0.45593999997E+02  0.45594000000E+02  0.51100000000E-03 0.  1.
         11   -1    0    0    0    0 -0.00000000000E+00 -0.00000000000E+00 -0.45593999997E+02  0.45594000000E+02  0.51100000000E-03 0. -1.
    9900012    2    1    2    0    0  0.23744545487E+02 -0.25048129020E+01  0.36242868050E+02  0.47787274055E+02  0.20000013726E+02 0.  0.
         12    1    1    2    0    0 -0.23744545487E+02  0.25048129020E+01 -0.36242868050E+02  0.43400725945E+02  0.00000000000E+00 0. -1.
         11    1    3    3    0    0 -0.80708113528E+00 -0.40386605147E+01  0.70492833032E+00  0.41784067447E+01  0.51100000000E-03 0. -1.
        -11    1    3    3    0    0  0.76516089348E+01 -0.24474483184E+00  0.68870645091E+01  0.10297508298E+02  0.51100000000E-03 0.  1.
        -12    1    3    3    0    0  0.16900017688E+02  0.17785924445E+01  0.28650875211E+02  0.33311359013E+02  0.00000000000E+00 0.  1.
</event>
<event>
 7    1  0.2647566E-010  0.4778727E+02  0.7816164E-02  0.1312668E+00
        -11   -1    0    0    0    0  0.00000000000E+00  0.00000000000E+00  0.45593999997E+02  0.45594000000E+02  0.51100000000E-03 0.  1.
         11   -1    0    0    0    0 -0.00000000000E+00 -0.00000000000E+00 -0.45593999997E+02  0.45594000000E+02  0.51100000000E-03 0. -1.
    9900012    2    1    2    0    0  0.26927947681E+02  0.20623458465E+02  0.27077337011E+02  0.47787267461E+02  0.19999983660E+02 0.  0.
         12    1    1    2    0    0 -0.26927947681E+02 -0.20623458465E+02 -0.27077337011E+02  0.43400732539E+02  0.00000000000E+00 0. -1.
         11    1    3    3    0    0  0.92943619716E+01  0.70672746465E+01  0.27790040457E+00  0.11679416265E+02  0.51100000000E-03 0. -1.
        -11    1    3    3    0    0 -0.50996138328E+00  0.31636301397E+01  0.26005115783E+01  0.41268967765E+01  0.51100000000E-03 0.  1.
        -12    1    3    3    0    0  0.18143547093E+02  0.10392553679E+02  0.24198925028E+02  0.31980954419E+02  0.00000000000E+00 0.  1.
</event>
<event>
 7    1  0.2647566E-010  0.4778727E+02  0.7816164E-02  0.1312668E+00
        -11   -1    0    0    0    0  0.00000000000E+00  0.00000000000E+00  0.45593999997E+02  0.45594000000E+02  0.51100000000E-03 0.  1.
         11   -1    0    0    0    0 -0.00000000000E+00 -0.00000000000E+00 -0.45593999997E+02  0.45594000000E+02  0.51100000000E-03 0. -1.
    9900012    2    1    2    0    0 -0.25792708252E+02 -0.57671428731E+01  0.34425276689E+02  0.47787269464E+02  0.19999992796E+02 0.  0.
         12    1    1    2    0    0  0.25792708252E+02  0.57671428731E+01 -0.34425276689E+02  0.43400730536E+02  0.00000000000E+00 0. -1.
         11    1    3    3    0    0 -0.65454936511E+01  0.36504940428E+01  0.37597794727E+01  0.83848396429E+01  0.51100000000E-03 0. -1.
        -11    1    3    3    0    0  0.59402058620E+00 -0.17621838464E+01  0.84351193632E+01  0.86376727941E+01  0.51100000000E-03 0.  1.
         12    1    3    3    0    0 -0.19841235187E+02 -0.76554530694E+01  0.22230377853E+02  0.30764757027E+02  0.00000000000E+00 0. -1.
</event>
<event>
 7    1  0.2647566E-010  0.4778727E+02  0.7816164E-02  0.1312668E+00
        -11   -1    0    0    0    0  0.00000000000E+00  0.00000000000E+00  0.45593999997E+02  0.45594000000E+02  0.51100000000E-03 0.  1.
         11   -1    0    0    0    0 -0.00000000000E+00 -0.00000000000E+00 -0.45593999997E+02  0.45594000000E+02  0.51100000000E-03 0. -1.
    9900012    2    1    2    0    0 -0.19686043910E+02 -0.65724354242E+01  0.38116742862E+02  0.47787270529E+02  0.19999997650E+02 0.  0.
         12    1    1    2    0    0  0.19686043910E+02  0.65724354242E+01 -0.38116742862E+02  0.43400729471E+02  0.00000000000E+00 0. -1.
         11    1    3    3    0    0 -0.13722937441E+02  0.54284541906E+00  0.11627238417E+02  0.17994620491E+02  0.51100000000E-03 0. -1.
        -11    1    3    3    0    0 -0.64189693937E+01  0.43922480931E-01  0.13680426809E+02  0.15111557670E+02  0.51100000000E-03 0.  1.
         12    1    3    3    0    0  0.45586292471E+00 -0.71592033242E+01  0.12809077635E+02  0.14681092368E+02  0.00000000000E+00 0. -1.
</event>
<event>
 7    1  0.2647566E-010  0.4778727E+02  0.7816164E-02  0.1312668E+00
        -11   -1    0    0    0    0  0.00000000000E+00  0.00000000000E+00  0.45593999997E+02  0.45594000000E+02  0.51100000000E-03 0. -1.
         11   -1    0    0    0    0 -0.00000000000E+00 -0.00000000000E+00 -0.45593999997E+02  0.45594000000E+02  0.51100000000E-03 0.  1.
    9900012    2    1    2    0    0  0.41678103810E+02 -0.12056033989E+02 -0.11003878740E+01  0.47787272515E+02  0.20000006707E+02 0.  0.
         12    1    1    2    0    0 -0.41678103810E+02  0.12056033989E+02  0.11003878740E+01  0.43400727485E+02  0.00000000000E+00 0. -1.
         11    1    3    3    0    0  0.10267059900E+02 -0.10340209543E+01  0.19571763299E+01  0.10502964238E+02  0.51100000000E-03 0. -1.
        -11    1    3    3    0    0  0.16376236285E+01  0.22277517764E+01 -0.37854073460E+01  0.46876431351E+01  0.51100000000E-03 0.  1.
        -12    1    3    3    0    0  0.29773420281E+02 -0.13249764811E+02  0.72784314214E+00  0.32596665142E+02  0.00000000000E+00 0.  1.
</event>
<event>
 7    1  0.2647566E-010  0.4778727E+02  0.7816164E-02  0.1312668E+00
        -11   -1    0    0    0    0  0.00000000000E+00  0.00000000000E+00  0.45593999997E+02  0.45594000000E+02  0.51100000000E-03 0.  1.
         11   -1    0    0    0    0 -0.00000000000E+00 -0.00000000000E+00 -0.45593999997E+02  0.45594000000E+02  0.51100000000E-03 0. -1.
    9900012    2    1    2    0    0  0.40182631516E+02 -0.24986999923E+01  0.16209135034E+02  0.47787269180E+02  0.19999991498E+02 0.  0.
         12    1    1    2    0    0 -0.40182631516E+02  0.24986999923E+01 -0.16209135034E+02  0.43400730820E+02  0.00000000000E+00 0. -1.
         11    1    3    3    0    0  0.77094727314E+00  0.26114528736E+01 -0.70225283938E+00  0.28119753059E+01  0.51100000000E-03 0. -1.
        -11    1    3    3    0    0  0.14372561396E+02  0.29487356175E+01  0.10072782949E+02  0.17796812057E+02  0.51100000000E-03 0.  1.
        -12    1    3    3    0    0  0.25039122847E+02 -0.80588884834E+01  0.68386049248E+01  0.27178481816E+02  0.00000000000E+00 0.  1.
</event>
<event>
 7    1  0.2647566E-010  0.4778727E+02  0.7816164E-02  0.1312668E+00
        -11   -1    0    0    0    0  0.00000000000E+00  0.00000000000E+00  0.45593999997E+02  0.45594000000E+02  0.51100000000E-03 0.  1.
         11   -1    0    0    0    0 -0.00000000000E+00 -0.00000000000E+00 -0.45593999997E+02  0.45594000000E+02  0.51100000000E-03 0. -1.
    9900012    2    1    2    0    0  0.11297912845E+02  0.37231717481E+02  0.19229659017E+02  0.47787269509E+02  0.19999992999E+02 0.  0.
         12    1    1    2    0    0 -0.11297912845E+02 -0.37231717481E+02 -0.19229659017E+02  0.43400730491E+02  0.00000000000E+00 0. -1.
         11    1    3    3    0    0  0.31369937236E+01  0.12529028316E+02  0.43831865792E+01  0.13639267026E+02  0.51100000000E-03 0. -1.
        -11    1    3    3    0    0  0.21542305019E+01  0.23212792959E+02  0.15391796410E+02  0.27935315696E+02  0.51100000000E-03 0.  1.
         12    1    3    3    0    0  0.60066886196E+01  0.14898962062E+01 -0.54532397276E+00  0.62126867870E+01  0.00000000000E+00 0. -1.
</event>
<event>
 7    1  0.2647566E-010  0.4778727E+02  0.7816164E-02  0.1312668E+00
        -11   -1    0    0    0    0  0.00000000000E+00  0.00000000000E+00  0.45593999997E+02  0.45594000000E+02  0.51100000000E-03 0. -1.
         11   -1    0    0    0    0 -0.00000000000E+00 -0.00000000000E+00 -0.45593999997E+02  0.45594000000E+02  0.51100000000E-03 0.  1.
    9900012    2    1    2    0    0  0.29608589939E+02  0.27654559656E+02  0.15562125353E+02  0.47787274045E+02  0.20000013680E+02 0.  0.
         12    1    1    2    0    0 -0.29608589939E+02 -0.27654559656E+02 -0.15562125353E+02  0.43400725955E+02  0.00000000000E+00 0. -1.
         11    1    3    3    0    0  0.11837086464E+01  0.46522075669E+01 -0.19080814625E+01  0.51657503360E+01  0.51100000000E-03 0. -1.
        -11    1    3    3    0    0  0.13145524225E+01  0.16315271527E+01 -0.20773806540E+01  0.29504981892E+01  0.51100000000E-03 0.  1.
        -12    1    3    3    0    0  0.27110328870E+02  0.21370824936E+02  0.19547587469E+02  0.39671025520E+02  0.00000000000E+00 0.  1.
</event>
<event>
 7    1  0.2647566E-010  0.4778727E+02  0.7816164E-02  0.1312668E+00
        -11   -1    0    0    0    0  0.00000000000E+00  0.00000000000E+00  0.45593999997E+02  0.45594000000E+02  0.51100000000E-03 0. -1.
         11   -1    0    0    0    0 -0.00000000000E+00 -0.00000000000E+00 -0.45593999997E+02  0.45594000000E+02  0.51100000000E-03 0.  1.
    9900012    2    1    2    0    0 -0.11629920651E+02 -0.37773489874E+02 -0.17931301090E+02  0.47787272467E+02  0.20000006487E+02 0.  0.
         12    1    1    2    0    0  0.11629920651E+02  0.37773489874E+02  0.17931301090E+02  0.43400727533E+02  0.00000000000E+00 0. -1.
         11    1    3    3    0    0  0.13438756221E+01 -0.15131133135E+02 -0.63125807458E+01  0.16450102358E+02  0.51100000000E-03 0.  1.
        -11    1    3    3    0    0 -0.57399017820E+01 -0.17727310132E+02 -0.12663545039E+02  0.22529300259E+02  0.51100000000E-03 0. -1.
         12    1    3    3    0    0 -0.72338944908E+01 -0.49150466072E+01  0.10448246946E+01  0.88078698502E+01  0.00000000000E+00 0. -1.
</event>
<event>
 7    1  0.2647566E-010  0.4778727E+02  0.7816164E-02  0.1312668E+00
        -11   -1    0    0    0    0  0.00000000000E+00  0.00000000000E+00  0.45593999997E+02  0.45594000000E+02  0.51100000000E-03 0.  1.
         11   -1    0    0    0    0 -0.00000000000E+00 -0.00000000000E+00 -0.45593999997E+02  0.45594000000E+02  0.51100000000E-03 0. -1.
    9900012    2    1    2    0    0 -0.42252935721E+01 -0.17840294738E+02  0.39338199324E+02  0.47787272492E+02  0.20000006602E+02 0.  0.
         12    1    1    2    0    0  0.42252935721E+01  0.17840294738E+02 -0.39338199324E+02  0.43400727508E+02  0.00000000000E+00 0. -1.
         11    1    3    3    0    0 -0.18086599869E+01  0.22303880245E+01  0.78328386828E+01  0.83426161232E+01  0.51100000000E-03 0. -1.
        -11    1    3    3    0    0  0.43016364079E+01 -0.59402217811E+01  0.15028345350E+02  0.16722484110E+02  0.51100000000E-03 0.  1.
        -12    1    3    3    0    0 -0.67182699932E+01 -0.14130460981E+02  0.16477015292E+02  0.22722172259E+02  0.00000000000E+00 0.  1.
</event>
<event>
 7    1  0.2647566E-010  0.4778728E+02  0.7816164E-02  0.1312668E+00
        -11   -1    0    0    0    0  0.00000000000E+00  0.00000000000E+00  0.45593999997E+02  0.45594000000E+02  0.51100000000E-03 0.  1.
         11   -1    0    0    0    0 -0.00000000000E+00 -0.00000000000E+00 -0.45593999997E+02  0.45594000000E+02  0.51100000000E-03 0. -1.
    9900012    2    1    2    0    0 -0.40529138109E+02 -0.37984980699E+01  0.15052673205E+02  0.47787278876E+02  0.20000035708E+02 0.  0.
         12    1    1    2    0    0  0.40529138109E+02  0.37984980699E+01 -0.15052673205E+02  0.43400721124E+02  0.00000000000E+00 0. -1.
         11    1    3    3    0    0 -0.17539171107E+02 -0.50531729881E+01  0.52218022975E+01  0.18984843952E+02  0.51100000000E-03 0. -1.
        -11    1    3    3    0    0 -0.18110166269E+02 -0.20459797827E+01  0.12735410877E+02  0.22234091977E+02  0.51100000000E-03 0.  1.
         12    1    3    3    0    0 -0.48798007329E+01  0.33006547009E+01 -0.29045399696E+01  0.65683429480E+01  0.00000000000E+00 0. -1.
</event>
<event>
 7    1  0.2647566E-010  0.4778726E+02  0.7816164E-02  0.1312668E+00
        -11   -1    0    0    0    0  0.00000000000E+00  0.00000000000E+00  0.45593999997E+02  0.45594000000E+02  0.51100000000E-03 0.  1.
         11   -1    0    0    0    0 -0.00000000000E+00 -0.00000000000E+00 -0.45593999997E+02  0.45594000000E+02  0.51100000000E-03 0. -1.
    9900012    2    1    2    0    0  0.49754237605E+01  0.41587728420E+02  0.11372326206E+02  0.47787264983E+02  0.19999972362E+02 0.  0.
         12    1    1    2    0    0 -0.49754237605E+01 -0.41587728420E+02 -0.11372326206E+02  0.43400735017E+02  0.00000000000E+00 0. -1.
         11    1    3    3    0    0  0.75239732595E+01  0.23689767240E+02  0.69756681148E+01  0.25816180806E+02  0.51100000000E-03 0. -1.
        -11    1    3    3    0    0  0.28745446289E+01  0.15196260854E+02  0.32977382574E+01  0.15813425582E+02  0.51100000000E-03 0.  1.
         12    1    3    3    0    0 -0.54230941279E+01  0.27017003261E+01  0.10989198339E+01  0.61576585951E+01  0.00000000000E+00 0. -1.
</event>
<event>
 7    1  0.2647566E-010  0.4778727E+02  0.7816164E-02  0.1312668E+00
        -11   -1    0    0    0    0  0.00000000000E+00  0.00000000000E+00  0.45593999997E+02  0.45594000000E+02  0.51100000000E-03 0.  1.
         11   -1    0    0    0    0 -0.00000000000E+00 -0.00000000000E+00 -0.45593999997E+02  0.45594000000E+02  0.51100000000E-03 0. -1.
    9900012    2    1    2    0    0  0.15764541632E+02  0.73773959234E+01  0.39757722828E+02  0.47787271113E+02  0.20000000312E+02 0.  0.
         12    1    1    2    0    0 -0.15764541632E+02 -0.73773959234E+01 -0.39757722828E+02  0.43400728887E+02  0.00000000000E+00 0. -1.
         11    1    3    3    0    0  0.11955897902E+00 -0.23118020979E+01  0.15901918384E+01  0.28084575186E+01  0.51100000000E-03 0. -1.
        -11    1    3    3    0    0  0.11156138784E+02  0.43651251118E+00  0.29456232782E+02  0.31501105151E+02  0.51100000000E-03 0.  1.
         12    1    3    3    0    0  0.44888438691E+01  0.92526855102E+01  0.87112982072E+01  0.13477708443E+02  0.00000000000E+00 0. -1.
</event>
<event>
 7    1  0.2647566E-010  0.4778727E+02  0.7816164E-02  0.1312668E+00
        -11   -1    0    0    0    0  0.00000000000E+00  0.00000000000E+00  0.45593999997E+02  0.45594000000E+02  0.51100000000E-03 0.  1.
         11   -1    0    0    0    0 -0.00000000000E+00 -0.00000000000E+00 -0.45593999997E+02  0.45594000000E+02  0.51100000000E-03 0. -1.
    9900012    2    1    2    0    0  0.78334385429E+01  0.30157237735E+02  0.30212603350E+02  0.47787272490E+02  0.20000006591E+02 0.  0.
         12    1    1    2    0    0 -0.78334385429E+01 -0.30157237735E+02 -0.30212603350E+02  0.43400727510E+02  0.00000000000E+00 0. -1.
         11    1    3    3    0    0  0.19241576062E+01  0.20441524396E+01  0.73906924340E+01  0.79059013784E+01  0.51100000000E-03 0. -1.
        -11    1    3    3    0    0 -0.32770281991E+01  0.19167580150E+02  0.16876264365E+02  0.25747686144E+02  0.51100000000E-03 0.  1.
         12    1    3    3    0    0  0.91863091359E+01  0.89455051455E+01  0.59456465515E+01  0.14133684968E+02  0.00000000000E+00 0. -1.
</event>
<event>
 7    1  0.2647566E-010  0.4778729E+02  0.7816164E-02  0.1312668E+00
        -11   -1    0    0    0    0  0.00000000000E+00  0.00000000000E+00  0.45593999997E+02  0.45594000000E+02  0.51100000000E-03 0.  1.
         11   -1    0    0    0    0 -0.00000000000E+00 -0.00000000000E+00 -0.45593999997E+02  0.45594000000E+02  0.51100000000E-03 0. -1.
    9900012    2    1    2    0    0  0.21104183372E+02 -0.37844733840E+02 -0.24518094272E+01  0.47787287970E+02  0.20000077170E+02 0.  0.
         12    1    1    2    0    0 -0.21104183372E+02  0.37844733840E+02  0.24518094272E+01  0.43400712030E+02  0.00000000000E+00 0. -1.
         11    1    3    3    0    0  0.32070404903E+01 -0.10038594274E+01  0.17182271993E+01  0.37742744238E+01  0.51100000000E-03 0. -1.
        -11    1    3    3    0    0  0.19978594152E+02 -0.26289061829E+02 -0.23256916570E+01  0.33100873675E+02  0.51100000000E-03 0.  1.
         12    1    3    3    0    0 -0.20814512700E+01 -0.10551812584E+02 -0.18443449695E+01  0.10912139871E+02  0.00000000000E+00 0. -1.
</event>
<event>
 7    1  0.2647566E-010  0.4778727E+02  0.7816164E-02  0.1312668E+00
        -11   -1    0    0    0    0  0.00000000000E+00  0.00000000000E+00  0.45593999997E+02  0.45594000000E+02  0.51100000000E-03 0. -1.
         11   -1    0    0    0    0 -0.00000000000E+00 -0.00000000000E+00 -0.45593999997E+02  0.45594000000E+02  0.51100000000E-03 0.  1.
    9900012    2    1    2    0    0 -0.17362638984E+02  0.52835308787E+01 -0.39423932362E+02  0.47787269892E+02  0.19999994745E+02 0.  0.
         12    1    1    2    0    0  0.17362638984E+02 -0.52835308787E+01  0.39423932362E+02  0.43400730108E+02  0.00000000000E+00 0. -1.
         11    1    3    3    0    0  0.30007925442E+01  0.53780054798E+00 -0.28913749367E+01  0.42016704545E+01  0.51100000000E-03 0. -1.
        -11    1    3    3    0    0 -0.68114601432E+01 -0.35299825949E+00 -0.38333505997E+01  0.78240126620E+01  0.51100000000E-03 0.  1.
        -12    1    3    3    0    0 -0.13551971385E+02  0.50987285902E+01 -0.32699206826E+02  0.35761586775E+02  0.00000000000E+00 0.  1.
</event>
<event>
 7    1  0.2647566E-010  0.4778728E+02  0.7816164E-02  0.1312668E+00
        -11   -1    0    0    0    0  0.00000000000E+00  0.00000000000E+00  0.45593999997E+02  0.45594000000E+02  0.51100000000E-03 0.  1.
         11   -1    0    0    0    0 -0.00000000000E+00 -0.00000000000E+00 -0.45593999997E+02  0.45594000000E+02  0.51100000000E-03 0. -1.
    9900012    2    1    2    0    0  0.31936009312E+02  0.26798109486E+02  0.12065468806E+02  0.47787275348E+02  0.20000019622E+02 0.  0.
         12    1    1    2    0    0 -0.31936009312E+02 -0.26798109486E+02 -0.12065468806E+02  0.43400724652E+02  0.00000000000E+00 0. -1.
         11    1    3    3    0    0  0.68858119104E+01  0.66167067115E+00  0.22962668589E+01  0.72886936752E+01  0.51100000000E-03 0. -1.
        -11    1    3    3    0    0  0.10478240134E+01  0.89652597682E+01 -0.10032798700E+01  0.90818714279E+01  0.51100000000E-03 0.  1.
        -12    1    3    3    0    0  0.24002373389E+02  0.17171179046E+02  0.10772481817E+02  0.31416710245E+02  0.00000000000E+00 0.  1.
</event>
<event>
 7    1  0.2647566E-010  0.4778727E+02  0.7816164E-02  0.1312668E+00
        -11   -1    0    0    0    0  0.00000000000E+00  0.00000000000E+00  0.45593999997E+02  0.45594000000E+02  0.51100000000E-03 0.  1.
         11   -1    0    0    0    0 -0.00000000000E+00 -0.00000000000E+00 -0.45593999997E+02  0.45594000000E+02  0.51100000000E-03 0. -1.
    9900012    2    1    2    0    0  0.28914456515E+02  0.18061897762E+02  0.26857871551E+02  0.47787271773E+02  0.20000003323E+02 0.  0.
         12    1    1    2    0    0 -0.28914456515E+02 -0.18061897762E+02 -0.26857871551E+02  0.43400728227E+02  0.00000000000E+00 0. -1.
         11    1    3    3    0    0  0.14262229833E+02  0.40485794985E+01  0.63399476414E+01  0.16124426567E+02  0.51100000000E-03 0. -1.
        -11    1    3    3    0    0  0.21117472215E+01  0.10132968337E+02  0.55167959327E+01  0.11729090386E+02  0.51100000000E-03 0.  1.
         12    1    3    3    0    0  0.12540479461E+02  0.38803499268E+01  0.15001127977E+02  0.19933754821E+02  0.00000000000E+00 0. -1.
</event>
<event>
 7    1  0.2647566E-010  0.4778727E+02  0.7816164E-02  0.1312668E+00
        -11   -1    0    0    0    0  0.00000000000E+00  0.00000000000E+00  0.45593999997E+02  0.45594000000E+02  0.51100000000E-03 0.  1.
         11   -1    0    0    0    0 -0.00000000000E+00 -0.00000000000E+00 -0.45593999997E+02  0.45594000000E+02  0.51100000000E-03 0. -1.
    9900012    2    1    2    0    0 -0.60008524776E+01 -0.30602235948E+02  0.30184703261E+02  0.47787269748E+02  0.19999994089E+02 0.  0.
         12    1    1    2    0    0  0.60008524776E+01  0.30602235948E+02 -0.30184703261E+02  0.43400730252E+02  0.00000000000E+00 0. -1.
         11    1    3    3    0    0 -0.42329975531E+01 -0.49856203220E+01  0.33454699904E+01  0.73462131740E+01  0.51100000000E-03 0. -1.
        -11    1    3    3    0    0  0.46570217545E+01 -0.17818874671E+02  0.10415964292E+02  0.21158744257E+02  0.51100000000E-03 0.  1.
        -12    1    3    3    0    0 -0.64248766790E+01 -0.77977409553E+01  0.16423268979E+02  0.19282312317E+02  0.00000000000E+00 0.  1.
</event>
<event>
 7    1  0.2647566E-010  0.4778728E+02  0.7816164E-02  0.1312668E+00
        -11   -1    0    0    0    0  0.00000000000E+00  0.00000000000E+00  0.45593999997E+02  0.45594000000E+02  0.51100000000E-03 0.  1.
         11   -1    0    0    0    0 -0.00000000000E+00 -0.00000000000E+00 -0.45593999997E+02  0.45594000000E+02  0.51100000000E-03 0. -1.
    9900012    2    1    2    0    0  0.23509675796E+02  0.13901556244E+02  0.33729283982E+02  0.47787277426E+02  0.20000029094E+02 0.  0.
         12    1    1    2    0    0 -0.23509675796E+02 -0.13901556244E+02 -0.33729283982E+02  0.43400722574E+02  0.00000000000E+00 0. -1.
         11    1    3    3    0    0  0.18458054927E+01 -0.19844006150E+01  0.25470146166E+01  0.37191568179E+01  0.51100000000E-03 0. -1.
        -11    1    3    3    0    0  0.22250320165E+02  0.17065146927E+02  0.31976731292E+02  0.42530075611E+02  0.51100000000E-03 0.  1.
        -12    1    3    3    0    0 -0.58644986185E+00 -0.11791900686E+01 -0.79446192646E+00  0.15380449964E+01  0.00000000000E+00 0.  1.
</event>
<event>
 7    1  0.2647566E-010  0.4778727E+02  0.7816164E-02  0.1312668E+00
        -11   -1    0    0    0    0  0.00000000000E+00  0.00000000000E+00  0.45593999997E+02  0.45594000000E+02  0.51100000000E-03 0.  1.
         11   -1    0    0    0    0 -0.00000000000E+00 -0.00000000000E+00 -0.45593999997E+02  0.45594000000E+02  0.51100000000E-03 0. -1.
    9900012    2    1    2    0    0  0.18836615195E+02  0.10101250892E+02  0.37772608627E+02  0.47787270696E+02  0.19999998413E+02 0.  0.
         12    1    1    2    0    0 -0.18836615195E+02 -0.10101250892E+02 -0.37772608627E+02  0.43400729304E+02  0.00000000000E+00 0. -1.
         11    1    3    3    0    0  0.10640595796E+02  0.50923943235E+01  0.34441464964E+02  0.36405621378E+02  0.51100000000E-03 0. -1.
        -11    1    3    3    0    0  0.29257200028E+00 -0.93416848795E+00  0.47988756679E+00  0.10902116662E+01  0.51100000000E-03 0.  1.
         12    1    3    3    0    0  0.79034473989E+01  0.59430250569E+01  0.28512560966E+01  0.10291437652E+02  0.00000000000E+00 0. -1.
</event>
<event>
 7    1  0.2647566E-010  0.4778727E+02  0.7816164E-02  0.1312668E+00
        -11   -1    0    0    0    0  0.00000000000E+00  0.00000000000E+00  0.45593999997E+02  0.45594000000E+02  0.51100000000E-03 0.  1.
         11   -1    0    0    0    0 -0.00000000000E+00 -0.00000000000E+00 -0.45593999997E+02  0.45594000000E+02  0.51100000000E-03 0. -1.
    9900012    2    1    2    0    0  0.98879843562E+01 -0.39930190391E+02  0.13835848590E+02  0.47787273675E+02  0.20000011995E+02 0.  0.
         12    1    1    2    0    0 -0.98879843562E+01  0.39930190391E+02 -0.13835848590E+02  0.43400726325E+02  0.00000000000E+00 0. -1.
         11    1    3    3    0    0  0.16788632259E+01 -0.78084245366E+01 -0.31873059575E+01  0.85993601508E+01  0.51100000000E-03 0. -1.
        -11    1    3    3    0    0  0.69022896038E+01 -0.66988145884E+01  0.27540963568E+01  0.10005037015E+02  0.51100000000E-03 0.  1.
         12    1    3    3    0    0  0.13068315265E+01 -0.25422951266E+02  0.14269058191E+02  0.29182876510E+02  0.00000000000E+00 0. -1.
</event>
<event>
 7    1  0.2647566E-010  0.4778727E+02  0.7816164E-02  0.1312668E+00
        -11   -1    0    0    0    0  0.00000000000E+00  0.00000000000E+00  0.45593999997E+02  0.45594000000E+02  0.51100000000E-03 0.  1.
         11   -1    0    0    0    0 -0.00000000000E+00 -0.00000000000E+00 -0.45593999997E+02  0.45594000000E+02  0.51100000000E-03 0. -1.
    9900012    2    1    2    0    0  0.30572411765E+02  0.39613367437E+01  0.30549288428E+02  0.47787267594E+02  0.19999984266E+02 0.  0.
         12    1    1    2    0    0 -0.30572411765E+02 -0.39613367437E+01 -0.30549288428E+02  0.43400732406E+02  0.00000000000E+00 0. -1.
         11    1    3    3    0    0  0.72548201602E+01 -0.34927424201E+01  0.48182459252E+01  0.93833447782E+01  0.51100000000E-03 0. -1.
        -11    1    3    3    0    0  0.24586224458E+02  0.47947677645E+01  0.24951695072E+02  0.35356177936E+02  0.51100000000E-03 0.  1.
        -12    1    3    3    0    0 -0.12686328525E+01  0.26593113992E+01  0.77934743043E+00  0.30477448794E+01  0.00000000000E+00 0.  1.
</event>
<event>
 7    1  0.2647566E-010  0.4778727E+02  0.7816164E-02  0.1312668E+00
        -11   -1    0    0    0    0  0.00000000000E+00  0.00000000000E+00  0.45593999997E+02  0.45594000000E+02  0.51100000000E-03 0.  1.
         11   -1    0    0    0    0 -0.00000000000E+00 -0.00000000000E+00 -0.45593999997E+02  0.45594000000E+02  0.51100000000E-03 0. -1.
    9900012    2    1    2    0    0 -0.82246571468E+01 -0.11601453327E+02  0.41004688832E+02  0.47787271773E+02  0.20000003320E+02 0.  0.
         12    1    1    2    0    0  0.82246571468E+01  0.11601453327E+02 -0.41004688832E+02  0.43400728227E+02  0.00000000000E+00 0. -1.
         11    1    3    3    0    0  0.12834491743E+01 -0.21328181393E+01  0.87253122606E+00  0.26377008928E+01  0.51100000000E-03 0. -1.
        -11    1    3    3    0    0 -0.12170184017E+01 -0.70712046938E+01  0.44604066138E+01  0.84485677504E+01  0.51100000000E-03 0.  1.
        -12    1    3    3    0    0 -0.82910879194E+01 -0.23974304936E+01  0.35671750992E+02  0.36701003129E+02  0.00000000000E+00 0.  1.
</event>
<event>
 7    1  0.2647566E-010  0.4778727E+02  0.7816164E-02  0.1312668E+00
        -11   -1    0    0    0    0  0.00000000000E+00  0.00000000000E+00  0.45593999997E+02  0.45594000000E+02  0.51100000000E-03 0.  1.
         11   -1    0    0    0    0 -0.00000000000E+00 -0.00000000000E+00 -0.45593999997E+02  0.45594000000E+02  0.51100000000E-03 0. -1.
    9900012    2    1    2    0    0  0.22339709162E+02  0.25493985276E+02  0.27103822194E+02  0.47787273414E+02  0.20000010803E+02 0.  0.
         12    1    1    2    0    0 -0.22339709162E+02 -0.25493985276E+02 -0.27103822194E+02  0.43400726586E+02  0.00000000000E+00 0. -1.
         11    1    3    3    0    0  0.55903425574E+01  0.20764104695E+01  0.95579071130E+01  0.11265744493E+02  0.51100000000E-03 0. -1.
        -11    1    3    3    0    0  0.84508144757E+01  0.33774585469E+01  0.10084121673E+02  0.13583556299E+02  0.51100000000E-03 0.  1.
         12    1    3    3    0    0  0.82985521285E+01  0.20040116260E+02  0.74617934077E+01  0.22937972622E+02  0.00000000000E+00 0. -1.
</event>
<event>
 7    1  0.2647566E-010  0.4778728E+02  0.7816164E-02  0.1312668E+00
        -11   -1    0    0    0    0  0.00000000000E+00  0.00000000000E+00  0.45593999997E+02  0.45594000000E+02  0.51100000000E-03 0.  1.
         11   -1    0    0    0    0 -0.00000000000E+00 -0.00000000000E+00 -0.45593999997E+02  0.45594000000E+02  0.51100000000E-03 0. -1.
    9900012    2    1    2    0    0  0.24472347291E+02 -0.84529866324E+01  0.34832084433E+02  0.47787275687E+02  0.20000021167E+02 0.  0.
         12    1    1    2    0    0 -0.24472347291E+02  0.84529866324E+01 -0.34832084433E+02  0.43400724313E+02  0.00000000000E+00 0. -1.
         11    1    3    3    0    0  0.34723551040E+01 -0.61301416472E+01  0.78468281194E+01  0.10545548747E+02  0.51100000000E-03 0. -1.
        -11    1    3    3    0    0  0.10131775081E+01 -0.61477217297E-01 -0.18346309393E+01  0.20967067167E+01  0.51100000000E-03 0.  1.
        -12    1    3    3    0    0  0.19986814679E+02 -0.22613677680E+01  0.28819887253E+02  0.35145020223E+02  0.00000000000E+00 0.  1.
</event>
<event>
 7    1  0.2647566E-010  0.4778727E+02  0.7816164E-02  0.1312668E+00
        -11   -1    0    0    0    0  0.00000000000E+00  0.00000000000E+00  0.45593999997E+02  0.45594000000E+02  0.51100000000E-03 0. -1.
         11   -1    0    0    0    0 -0.00000000000E+00 -0.00000000000E+00 -0.45593999997E+02  0.45594000000E+02  0.51100000000E-03 0.  1.
    9900012    2    1    2    0    0  0.20904010349E+02 -0.23392788538E+01 -0.37962787829E+02  0.47787272656E+02  0.20000007348E+02 0.  0.
         12    1    1    2    0    0 -0.20904010349E+02  0.23392788538E+01  0.37962787829E+02  0.43400727344E+02  0.00000000000E+00 0. -1.
         11    1    3    3    0    0  0.11417450737E+02 -0.41753559522E+01 -0.13585445875E+02  0.18230636811E+02  0.51100000000E-03 0. -1.
        -11    1    3    3    0    0  0.13800264289E+01 -0.55468113557E+01 -0.92488900871E+01  0.10872605818E+02  0.51100000000E-03 0.  1.
         12    1    3    3    0    0  0.81065331836E+01  0.73828884541E+01 -0.15128451867E+02  0.18684030027E+02  0.00000000000E+00 0. -1.
</event>
<event>
 7    1  0.2647566E-010  0.4778727E+02  0.7816164E-02  0.1312668E+00
        -11   -1    0    0    0    0  0.00000000000E+00  0.00000000000E+00  0.45593999997E+02  0.45594000000E+02  0.51100000000E-03 0.  1.
         11   -1    0    0    0    0 -0.00000000000E+00 -0.00000000000E+00 -0.45593999997E+02  0.45594000000E+02  0.51100000000E-03 0. -1.
    9900012    2    1    2    0    0 -0.40287168313E+02  0.15798634021E+02  0.33121533542E+01  0.47787272732E+02  0.20000007693E+02 0.  0.
         12    1    1    2    0    0  0.40287168313E+02 -0.15798634021E+02 -0.33121533542E+01  0.43400727268E+02  0.00000000000E+00 0. -1.
         11    1    3    3    0    0 -0.21067928079E+02  0.12962380077E+01  0.41928129629E+00  0.21111930835E+02  0.51100000000E-03 0.  1.
        -11    1    3    3    0    0 -0.34894812257E+01 -0.17468983660E+01  0.39948766200E+00  0.39227189268E+01  0.51100000000E-03 0. -1.
        -12    1    3    3    0    0 -0.15729759008E+02  0.16249294379E+02  0.24933843959E+01  0.22752622970E+02  0.00000000000E+00 0.  1.
</event>
<event>
 7    1  0.2647566E-010  0.4778727E+02  0.7816164E-02  0.1312668E+00
        -11   -1    0    0    0    0  0.00000000000E+00  0.00000000000E+00  0.45593999997E+02  0.45594000000E+02  0.51100000000E-03 0.  1.
         11   -1    0    0    0    0 -0.00000000000E+00 -0.00000000000E+00 -0.45593999997E+02  0.45594000000E+02  0.51100000000E-03 0. -1.
    9900012    2    1    2    0    0  0.38403494544E+02  0.70271077188E+01  0.18958238084E+02  0.47787269277E+02  0.19999991941E+02 0.  0.
         12    1    1    2    0    0 -0.38403494544E+02 -0.70271077188E+01 -0.18958238084E+02  0.43400730723E+02  0.00000000000E+00 0. -1.
         11    1    3    3    0    0 -0.21012384298E+00 -0.12769156750E+01  0.24157409650E+01  0.27405237349E+01  0.51100000000E-03 0. -1.
        -11    1    3    3    0    0  0.38410696068E+02  0.88948720705E+01  0.18089089413E+02  0.43378744537E+02  0.51100000000E-03 0.  1.
         12    1    3    3    0    0  0.20292231913E+00 -0.59084867670E+00 -0.15465922947E+01  0.16680010049E+01  0.00000000000E+00 0. -1.
</event>
<event>
 7    1  0.2647566E-010  0.4778727E+02  0.7816164E-02  0.1312668E+00
        -11   -1    0    0    0    0  0.00000000000E+00  0.00000000000E+00  0.45593999997E+02  0.45594000000E+02  0.51100000000E-03 0.  1.
         11   -1    0    0    0    0 -0.00000000000E+00 -0.00000000000E+00 -0.45593999997E+02  0.45594000000E+02  0.51100000000E-03 0. -1.
    9900012    2    1    2    0    0 -0.32603544571E+02 -0.24171719960E+02  0.15374007543E+02  0.47787271062E+02  0.20000000079E+02 0.  0.
         12    1    1    2    0    0  0.32603544571E+02  0.24171719960E+02 -0.15374007543E+02  0.43400728938E+02  0.00000000000E+00 0. -1.
         11    1    3    3    0    0 -0.41329783707E+01  0.12588464441E+01  0.55868234598E+01  0.70624925638E+01  0.51100000000E-03 0. -1.
        -11    1    3    3    0    0 -0.55152369336E+01 -0.78520610000E+01  0.65795658815E+01  0.11634577252E+02  0.51100000000E-03 0.  1.
        -12    1    3    3    0    0 -0.22955329267E+02 -0.17578505405E+02  0.32076182015E+01  0.29090201246E+02  0.00000000000E+00 0.  1.
</event>
<event>
 7    1  0.2647566E-010  0.4778727E+02  0.7816164E-02  0.1312668E+00
        -11   -1    0    0    0    0  0.00000000000E+00  0.00000000000E+00  0.45593999997E+02  0.45594000000E+02  0.51100000000E-03 0.  1.
         11   -1    0    0    0    0 -0.00000000000E+00 -0.00000000000E+00 -0.45593999997E+02  0.45594000000E+02  0.51100000000E-03 0. -1.
    9900012    2    1    2    0    0 -0.24516813926E+02 -0.18274914538E+02  0.30798970021E+02  0.47787271655E+02  0.20000002786E+02 0.  0.
         12    1    1    2    0    0  0.24516813926E+02  0.18274914538E+02 -0.30798970021E+02  0.43400728345E+02  0.00000000000E+00 0. -1.
         11    1    3    3    0    0 -0.13454911505E+02 -0.11922495902E+02  0.13770324474E+02  0.22645140506E+02  0.51100000000E-03 0. -1.
        -11    1    3    3    0    0 -0.14070737564E+02 -0.53798259621E+01  0.12271046624E+02  0.19429533409E+02  0.51100000000E-03 0.  1.
         12    1    3    3    0    0  0.30088351432E+01 -0.97259267372E+00  0.47575989237E+01  0.57125977407E+01  0.00000000000E+00 0. -1.
</event>
<event>
 7    1  0.2647566E-010  0.4778727E+02  0.7816164E-02  0.1312668E+00
        -11   -1    0    0    0    0  0.00000000000E+00  0.00000000000E+00  0.45593999997E+02  0.45594000000E+02  0.51100000000E-03 0.  1.
         11   -1    0    0    0    0 -0.00000000000E+00 -0.00000000000E+00 -0.45593999997E+02  0.45594000000E+02  0.51100000000E-03 0. -1.
    9900012    2    1    2    0    0 -0.30123735861E+02  0.29521565474E+02  0.10230397176E+02  0.47787270552E+02  0.19999997753E+02 0.  0.
         12    1    1    2    0    0  0.30123735861E+02 -0.29521565474E+02 -0.10230397176E+02  0.43400729448E+02  0.00000000000E+00 0. -1.
         11    1    3    3    0    0 -0.15974886990E+02  0.79700297378E+01  0.75565027103E+01  0.19386054829E+02  0.51100000000E-03 0.  1.
        -11    1    3    3    0    0 -0.47605198077E+01  0.91939944082E+01 -0.45182941168E+01  0.11296329670E+02  0.51100000000E-03 0. -1.
         12    1    3    3    0    0 -0.93883290635E+01  0.12357541328E+02  0.71921885826E+01  0.17104886053E+02  0.00000000000E+00 0. -1.
</event>
<event>
 7    1  0.2647566E-010  0.4778728E+02  0.7816164E-02  0.1312668E+00
        -11   -1    0    0    0    0  0.00000000000E+00  0.00000000000E+00  0.45593999997E+02  0.45594000000E+02  0.51100000000E-03 0. -1.
         11   -1    0    0    0    0 -0.00000000000E+00 -0.00000000000E+00 -0.45593999997E+02  0.45594000000E+02  0.51100000000E-03 0.  1.
    9900012    2    1    2    0    0  0.16938459528E+02  0.29476855219E+02 -0.26978256963E+02  0.47787277039E+02  0.20000027331E+02 0.  0.
         12    1    1    2    0    0 -0.16938459528E+02 -0.29476855219E+02  0.26978256963E+02  0.43400722961E+02  0.00000000000E+00 0. -1.
         11    1    3    3    0    0  0.42292241995E+01  0.11771552217E+01 -0.55748903935E+00  0.44252486976E+01  0.51100000000E-03 0. -1.
        -11    1    3    3    0    0  0.43628849314E+01 -0.30178142252E-01 -0.61521727459E+01  0.75422082576E+01  0.51100000000E-03 0.  1.
         12    1    3    3    0    0  0.83463503966E+01  0.28329878139E+02 -0.20268595178E+02  0.35819820084E+02  0.00000000000E+00 0. -1.
</event>
<event>
 7    1  0.2647566E-010  0.4778727E+02  0.7816164E-02  0.1312668E+00
        -11   -1    0    0    0    0  0.00000000000E+00  0.00000000000E+00  0.45593999997E+02  0.45594000000E+02  0.51100000000E-03 0.  1.
         11   -1    0    0    0    0 -0.00000000000E+00 -0.00000000000E+00 -0.45593999997E+02  0.45594000000E+02  0.51100000000E-03 0. -1.
    9900012    2    1    2    0    0  0.33806432218E+02  0.26185257672E+02  0.74216487128E+01  0.47787269035E+02  0.19999990840E+02 0.  0.
         12    1    1    2    0    0 -0.33806432218E+02 -0.26185257672E+02 -0.74216487128E+01  0.43400730965E+02  0.00000000000E+00 0. -1.
         11    1    3    3    0    0  0.21045117939E+01 -0.19651200023E+01  0.26055786682E+01  0.38832598382E+01  0.51100000000E-03 0. -1.
        -11    1    3    3    0    0  0.14101856743E+02  0.61542943545E+01  0.41744585887E+00  0.15391944774E+02  0.51100000000E-03 0.  1.
        -12    1    3    3    0    0  0.17600063681E+02  0.21996083320E+02  0.43986241858E+01  0.28512064424E+02  0.00000000000E+00 0.  1.
</event>
<event>
 7    1  0.2647566E-010  0.4778729E+02  0.7816164E-02  0.1312668E+00
        -11   -1    0    0    0    0  0.00000000000E+00  0.00000000000E+00  0.45593999997E+02  0.45594000000E+02  0.51100000000E-03 0.  1.
         11   -1    0    0    0    0 -0.00000000000E+00 -0.00000000000E+00 -0.45593999997E+02  0.45594000000E+02  0.51100000000E-03 0. -1.
    9900012    2    1    2    0    0  0.42824032257E+02  0.44029616984E+01 -0.55080135873E+01  0.47787285442E+02  0.20000065643E+02 0.  0.
         12    1    1    2    0    0 -0.42824032257E+02 -0.44029616984E+01  0.55080135873E+01  0.43400714558E+02  0.00000000000E+00 0. -1.
         11    1    3    3    0    0  0.12484776591E+02  0.51005338362E+01  0.24615247954E+01  0.13709274106E+02  0.51100000000E-03 0. -1.
        -11    1    3    3    0    0  0.88210501089E+01  0.30317184930E+01  0.27853027196E+01  0.97344827056E+01  0.51100000000E-03 0.  1.
        -12    1    3    3    0    0  0.21518205557E+02 -0.37292906309E+01 -0.10754841102E+02  0.24343528630E+02  0.00000000000E+00 0.  1.
</event>
<event>
 7    1  0.2647566E-010  0.4778730E+02  0.7816164E-02  0.1312668E+00
        -11   -1    0    0    0    0  0.00000000000E+00  0.00000000000E+00  0.45593999997E+02  0.45594000000E+02  0.51100000000E-03 0.  1.
         11   -1    0    0    0    0 -0.00000000000E+00 -0.00000000000E+00 -0.45593999997E+02  0.45594000000E+02  0.51100000000E-03 0. -1.
    9900012    2    1    2    0    0 -0.28376231952E+02  0.24348804796E+02 -0.22035105795E+02  0.47787300441E+02  0.20000134030E+02 0.  0.
         12    1    1    2    0    0  0.28376231952E+02 -0.24348804796E+02  0.22035105795E+02  0.43400699559E+02  0.00000000000E+00 0. -1.
         11    1    3    3    0    0 -0.95762109708E+00  0.20256003422E+00 -0.44093569268E+01  0.45166909903E+01  0.51100000000E-03 0. -1.
        -11    1    3    3    0    0  0.35769087350E+00  0.66018000043E+01 -0.38095857339E+01  0.76305078325E+01  0.51100000000E-03 0.  1.
        -12    1    3    3    0    0 -0.27776301729E+02  0.17544444758E+02 -0.13816163134E+02  0.35640101618E+02  0.00000000000E+00 0.  1.
</event>
<event>
 7    1  0.2647566E-010  0.4778724E+02  0.7816164E-02  0.1312668E+00
        -11   -1    0    0    0    0  0.00000000000E+00  0.00000000000E+00  0.45593999997E+02  0.45594000000E+02  0.51100000000E-03 0.  1.
         11   -1    0    0    0    0 -0.00000000000E+00 -0.00000000000E+00 -0.45593999997E+02  0.45594000000E+02  0.51100000000E-03 0. -1.
    9900012    2    1    2    0    0  0.16872170072E+02  0.34222365381E+02  0.20682976702E+02  0.47787240324E+02  0.19999859931E+02 0.  0.
         12    1    1    2    0    0 -0.16872170072E+02 -0.34222365381E+02 -0.20682976702E+02  0.43400759676E+02  0.00000000000E+00 0. -1.
         11    1    3    3    0    0  0.34942989220E+00 -0.12446992300E+01  0.51560288724E+01  0.53156383828E+01  0.51100000000E-03 0. -1.
        -11    1    3    3    0    0  0.39090028101E+00  0.21159529834E+01  0.22587736104E+01  0.31196343602E+01  0.51100000000E-03 0.  1.
        -12    1    3    3    0    0  0.16131839899E+02  0.33351111628E+02  0.13268174220E+02  0.39351967580E+02  0.00000000000E+00 0.  1.
</event>
<event>
 7    1  0.2647566E-010  0.4778727E+02  0.7816164E-02  0.1312668E+00
        -11   -1    0    0    0    0  0.00000000000E+00  0.00000000000E+00  0.45593999997E+02  0.45594000000E+02  0.51100000000E-03 0. -1.
         11   -1    0    0    0    0 -0.00000000000E+00 -0.00000000000E+00 -0.45593999997E+02  0.45594000000E+02  0.51100000000E-03 0.  1.
    9900012    2    1    2    0    0  0.19832807913E+02 -0.17151179076E+02 -0.34584968964E+02  0.47787270840E+02  0.19999999066E+02 0.  0.
         12    1    1    2    0    0 -0.19832807913E+02  0.17151179076E+02  0.34584968964E+02  0.43400729160E+02  0.00000000000E+00 0. -1.
         11    1    3    3    0    0  0.18465085441E+00 -0.50763886084E+01 -0.25999310522E+01  0.57064401319E+01  0.51100000000E-03 0.  1.
        -11    1    3    3    0    0  0.15220000520E+02 -0.83995745749E+01 -0.11599337937E+02  0.20898466683E+02  0.51100000000E-03 0. -1.
        -12    1    3    3    0    0  0.44281565385E+01 -0.36752158923E+01 -0.20385699975E+02  0.21182364025E+02  0.00000000000E+00 0.  1.
</event>
<event>
 7    1  0.2647566E-010  0.4778727E+02  0.7816164E-02  0.1312668E+00
        -11   -1    0    0    0    0  0.00000000000E+00  0.00000000000E+00  0.45593999997E+02  0.45594000000E+02  0.51100000000E-03 0.  1.
         11   -1    0    0    0    0 -0.00000000000E+00 -0.00000000000E+00 -0.45593999997E+02  0.45594000000E+02  0.51100000000E-03 0. -1.
    9900012    2    1    2    0    0  0.25715404576E+02  0.34182260484E+02  0.73426531788E+01  0.47787268209E+02  0.19999987071E+02 0.  0.
         12    1    1    2    0    0 -0.25715404576E+02 -0.34182260484E+02 -0.73426531788E+01  0.43400731791E+02  0.00000000000E+00 0. -1.
         11    1    3    3    0    0  0.50334674549E+01  0.82288714297E+01 -0.89550241959E+00  0.96877264862E+01  0.51100000000E-03 0. -1.
        -11    1    3    3    0    0  0.23175198018E+02  0.25816671337E+02  0.78863961148E+01  0.35577880292E+02  0.51100000000E-03 0.  1.
         12    1    3    3    0    0 -0.24932608974E+01  0.13671771755E+00  0.35175948362E+00  0.25216614307E+01  0.00000000000E+00 0. -1.
</event>
<event>
 7    1  0.2647566E-010  0.4778727E+02  0.7816164E-02  0.1312668E+00
        -11   -1    0    0    0    0  0.00000000000E+00  0.00000000000E+00  0.45593999997E+02  0.45594000000E+02  0.51100000000E-03 0.  1.
         11   -1    0    0    0    0 -0.00000000000E+00 -0.00000000000E+00 -0.45593999997E+02  0.45594000000E+02  0.51100000000E-03 0. -1.
    9900012    2    1    2    0    0 -0.68277637229E+01 -0.27074897587E+02  0.33225812256E+02  0.47787273775E+02  0.20000012449E+02 0.  0.
         12    1    1    2    0    0  0.68277637229E+01  0.27074897587E+02 -0.33225812256E+02  0.43400726225E+02  0.00000000000E+00 0. -1.
         11    1    3    3    0    0 -0.52105369969E+01 -0.34406230921E+01  0.39073178336E+01  0.73657800654E+01  0.51100000000E-03 0. -1.
        -11    1    3    3    0    0 -0.74728627657E+01 -0.86138043505E+01  0.92761877408E+01  0.14699964713E+02  0.51100000000E-03 0.  1.
         12    1    3    3    0    0  0.58556360397E+01 -0.15020470145E+02  0.20042306682E+02  0.25721528996E+02  0.00000000000E+00 0. -1.
</event>
<event>
 7    1  0.2647566E-010  0.4778728E+02  0.7816164E-02  0.1312668E+00
        -11   -1    0    0    0    0  0.00000000000E+00  0.00000000000E+00  0.45593999997E+02  0.45594000000E+02  0.51100000000E-03 0.  1.
         11   -1    0    0    0    0 -0.00000000000E+00 -0.00000000000E+00 -0.45593999997E+02  0.45594000000E+02  0.51100000000E-03 0. -1.
    9900012    2    1    2    0    0  0.37503597183E+02  0.20992031327E+02  0.60363161337E+01  0.47787282341E+02  0.20000051505E+02 0.  0.
         12    1    1    2    0    0 -0.37503597183E+02 -0.20992031327E+02 -0.60363161337E+01  0.43400717659E+02  0.00000000000E+00 0. -1.
         11    1    3    3    0    0  0.11250390512E+02  0.37938263704E+01  0.17523021927E+01  0.12001456930E+02  0.51100000000E-03 0. -1.
        -11    1    3    3    0    0  0.12957988301E+02  0.95974309426E+00  0.67713634971E+01  0.14652028238E+02  0.51100000000E-03 0.  1.
         12    1    3    3    0    0  0.13295218369E+02  0.16238461862E+02 -0.24873495562E+01  0.21133797173E+02  0.00000000000E+00 0. -1.
</event>
<event>
 7    1  0.2647566E-010  0.4778728E+02  0.7816164E-02  0.1312668E+00
        -11   -1    0    0    0    0  0.00000000000E+00  0.00000000000E+00  0.45593999997E+02  0.45594000000E+02  0.51100000000E-03 0.  1.
         11   -1    0    0    0    0 -0.00000000000E+00 -0.00000000000E+00 -0.45593999997E+02  0.45594000000E+02  0.51100000000E-03 0. -1.
    9900012    2    1    2    0    0 -0.29467312933E+02 -0.10230547072E+02  0.30176740298E+02  0.47787282496E+02  0.20000052212E+02 0.  0.
         12    1    1    2    0    0  0.29467312933E+02  0.10230547072E+02 -0.30176740298E+02  0.43400717504E+02  0.00000000000E+00 0. -1.
         11    1    3    3    0    0 -0.16579906713E+01 -0.20152684087E+01 -0.14928366919E+01  0.30064599573E+01  0.51100000000E-03 0. -1.
        -11    1    3    3    0    0 -0.11456474775E+01  0.24443045370E+01  0.45083669247E+01  0.52547602610E+01  0.51100000000E-03 0.  1.
        -12    1    3    3    0    0 -0.26663674784E+02 -0.10659583200E+02  0.27161210065E+02  0.39526062278E+02  0.00000000000E+00 0.  1.
</event>
<event>
 7    1  0.2647566E-010  0.4778727E+02  0.7816164E-02  0.1312668E+00
        -11   -1    0    0    0    0  0.00000000000E+00  0.00000000000E+00  0.45593999997E+02  0.45594000000E+02  0.51100000000E-03 0. -1.
         11   -1    0    0    0    0 -0.00000000000E+00 -0.00000000000E+00 -0.45593999997E+02  0.45594000000E+02  0.51100000000E-03 0.  1.
    9900012    2    1    2    0    0 -0.38069451387E+02 -0.14483604641E+02 -0.14985502834E+02  0.47787271579E+02  0.20000002437E+02 0.  0.
         12    1    1    2    0    0  0.38069451387E+02  0.14483604641E+02  0.14985502834E+02  0.43400728421E+02  0.00000000000E+00 0. -1.
         11    1    3    3    0    0 -0.95956223387E+01 -0.90275459204E+01 -0.10221035074E+02  0.16674594798E+02  0.51100000000E-03 0. -1.
        -11    1    3    3    0    0 -0.81060140236E+01  0.95431138907E-01 -0.58137622970E+01  0.99757908338E+01  0.51100000000E-03 0.  1.
        -12    1    3    3    0    0 -0.20367815024E+02 -0.55514898600E+01  0.10492945371E+01  0.21136885948E+02  0.00000000000E+00 0.  1.
</event>
<event>
 7    1  0.2647566E-010  0.4778727E+02  0.7816164E-02  0.1312668E+00
        -11   -1    0    0    0    0  0.00000000000E+00  0.00000000000E+00  0.45593999997E+02  0.45594000000E+02  0.51100000000E-03 0.  1.
         11   -1    0    0    0    0 -0.00000000000E+00 -0.00000000000E+00 -0.45593999997E+02  0.45594000000E+02  0.51100000000E-03 0. -1.
    9900012    2    1    2    0    0 -0.25480063025E+02 -0.11660968931E+02  0.33142292826E+02  0.47787269799E+02  0.19999994323E+02 0.  0.
         12    1    1    2    0    0  0.25480063025E+02  0.11660968931E+02 -0.33142292826E+02  0.43400730201E+02  0.00000000000E+00 0. -1.
         11    1    3    3    0    0 -0.76744615269E+01 -0.80190322835E+00  0.95964211575E+01  0.12313882727E+02  0.51100000000E-03 0. -1.
        -11    1    3    3    0    0 -0.18423887427E+02 -0.79433212846E+01  0.25082850578E+02  0.32119859501E+02  0.51100000000E-03 0.  1.
         12    1    3    3    0    0  0.61828592916E+00 -0.29157444183E+01 -0.15369789098E+01  0.33535275714E+01  0.00000000000E+00 0. -1.
</event>
<event>
 7    1  0.2647566E-010  0.4778728E+02  0.7816164E-02  0.1312668E+00
        -11   -1    0    0    0    0  0.00000000000E+00  0.00000000000E+00  0.45593999997E+02  0.45594000000E+02  0.51100000000E-03 0. -1.
         11   -1    0    0    0    0 -0.00000000000E+00 -0.00000000000E+00 -0.45593999997E+02  0.45594000000E+02  0.51100000000E-03 0.  1.
    9900012    2    1    2    0    0 -0.37963911860E+02 -0.16651226417E+02 -0.12849150414E+02  0.47787278678E+02  0.20000034804E+02 0.  0.
         12    1    1    2    0    0  0.37963911860E+02  0.16651226417E+02  0.12849150414E+02  0.43400721322E+02  0.00000000000E+00 0. -1.
         11    1    3    3    0    0 -0.50770403275E+01 -0.19555692667E+01 -0.31840652835E+01  0.63038767148E+01  0.51100000000E-03 0.  1.
        -11    1    3    3    0    0 -0.19664602537E+02  0.11355049548E+01 -0.41040351185E+01  0.20120364533E+02  0.51100000000E-03 0. -1.
         12    1    3    3    0    0 -0.13222268996E+02 -0.15831162106E+02 -0.55610500117E+01  0.21363037430E+02  0.00000000000E+00 0. -1.
</event>
<event>
 7    1  0.2647566E-010  0.4778728E+02  0.7816164E-02  0.1312668E+00
        -11   -1    0    0    0    0  0.00000000000E+00  0.00000000000E+00  0.45593999997E+02  0.45594000000E+02  0.51100000000E-03 0.  1.
         11   -1    0    0    0    0 -0.00000000000E+00 -0.00000000000E+00 -0.45593999997E+02  0.45594000000E+02  0.51100000000E-03 0. -1.
    9900012    2    1    2    0    0 -0.10435184233E+02 -0.12430095223E+02  0.40251988678E+02  0.47787275009E+02  0.20000018075E+02 0.  0.
         12    1    1    2    0    0  0.10435184233E+02  0.12430095223E+02 -0.40251988678E+02  0.43400724991E+02  0.00000000000E+00 0. -1.
         11    1    3    3    0    0 -0.16471641062E+01  0.36766798479E+01  0.34773385556E+01  0.53219364885E+01  0.51100000000E-03 0. -1.
        -11    1    3    3    0    0 -0.89333071658E+01 -0.55694864300E+01  0.21055742975E+02  0.23540761851E+02  0.51100000000E-03 0.  1.
        -12    1    3    3    0    0  0.14528703937E+00 -0.10537288640E+02  0.15718907147E+02  0.18924576670E+02  0.00000000000E+00 0.  1.
</event>
<event>
 7    1  0.2647566E-010  0.4778727E+02  0.7816164E-02  0.1312668E+00
        -11   -1    0    0    0    0  0.00000000000E+00  0.00000000000E+00  0.45593999997E+02  0.45594000000E+02  0.51100000000E-03 0.  1.
         11   -1    0    0    0    0 -0.00000000000E+00 -0.00000000000E+00 -0.45593999997E+02  0.45594000000E+02  0.51100000000E-03 0. -1.
    9900012    2    1    2    0    0  0.82188266874E+01  0.11999158346E+02  0.40891250928E+02  0.47787270564E+02  0.19999997809E+02 0.  0.
         12    1    1    2    0    0 -0.82188266874E+01 -0.11999158346E+02 -0.40891250928E+02  0.43400729436E+02  0.00000000000E+00 0. -1.
         11    1    3    3    0    0  0.49393668041E+00  0.83326491571E+01  0.75119953237E+01  0.11229741289E+02  0.51100000000E-03 0. -1.
        -11    1    3    3    0    0 -0.28349329627E+01 -0.92533944369E+00  0.10900436047E+02  0.11301000144E+02  0.51100000000E-03 0.  1.
         12    1    3    3    0    0  0.10559822970E+02  0.45918486329E+01  0.22478819558E+02  0.25256529131E+02  0.00000000000E+00 0. -1.
</event>
<event>
 7    1  0.2647566E-010  0.4778727E+02  0.7816164E-02  0.1312668E+00
        -11   -1    0    0    0    0  0.00000000000E+00  0.00000000000E+00  0.45593999997E+02  0.45594000000E+02  0.51100000000E-03 0.  1.
         11   -1    0    0    0    0 -0.00000000000E+00 -0.00000000000E+00 -0.45593999997E+02  0.45594000000E+02  0.51100000000E-03 0. -1.
    9900012    2    1    2    0    0 -0.32072940067E+02  0.48195635432E+01  0.28839582714E+02  0.47787271798E+02  0.20000003437E+02 0.  0.
         12    1    1    2    0    0  0.32072940067E+02 -0.48195635432E+01 -0.28839582714E+02  0.43400728202E+02  0.00000000000E+00 0. -1.
         11    1    3    3    0    0 -0.14485780133E+02  0.44738719411E+01  0.78900331117E+01  0.17091108184E+02  0.51100000000E-03 0. -1.
        -11    1    3    3    0    0 -0.17938119973E+02  0.15359068688E+01  0.22431725557E+02  0.28763126913E+02  0.51100000000E-03 0.  1.
        -12    1    3    3    0    0  0.35096003821E+00 -0.11902152667E+01 -0.14821759543E+01  0.19330367014E+01  0.00000000000E+00 0.  1.
</event>
<event>
 7    1  0.2647566E-010  0.4778727E+02  0.7816164E-02  0.1312668E+00
        -11   -1    0    0    0    0  0.00000000000E+00  0.00000000000E+00  0.45593999997E+02  0.45594000000E+02  0.51100000000E-03 0. -1.
         11   -1    0    0    0    0 -0.00000000000E+00 -0.00000000000E+00 -0.45593999997E+02  0.45594000000E+02  0.51100000000E-03 0.  1.
    9900012    2    1    2    0    0 -0.30749335473E+02  0.30628393211E+02  0.56029689120E-01  0.47787271411E+02  0.20000001674E+02 0.  0.
         12    1    1    2    0    0  0.30749335473E+02 -0.30628393211E+02 -0.56029689120E-01  0.43400728589E+02  0.00000000000E+00 0. -1.
         11    1    3    3    0    0 -0.15777353680E+02  0.14580824105E+02 -0.65608684220E+00  0.21493156374E+02  0.51100000000E-03 0. -1.
        -11    1    3    3    0    0 -0.14874460193E+02  0.17755243149E+02 -0.18250635754E+01  0.23234222230E+02  0.51100000000E-03 0.  1.
         12    1    3    3    0    0 -0.97521600043E-01 -0.17076740432E+01  0.25371801067E+01  0.30598928076E+01  0.00000000000E+00 0. -1.
</event>
<event>
 7    1  0.2647566E-010  0.4778722E+02  0.7816164E-02  0.1312668E+00
        -11   -1    0    0    0    0  0.00000000000E+00  0.00000000000E+00  0.45593999997E+02  0.45594000000E+02  0.51100000000E-03 0. -1.
         11   -1    0    0    0    0 -0.00000000000E+00 -0.00000000000E+00 -0.45593999997E+02  0.45594000000E+02  0.51100000000E-03 0.  1.
    9900012    2    1    2    0    0 -0.54460242953E+00  0.43096585573E+02  0.51005142021E+01  0.47787222069E+02  0.19999776701E+02 0.  0.
         12    1    1    2    0    0  0.54460242953E+00 -0.43096585573E+02 -0.51005142021E+01  0.43400777931E+02  0.00000000000E+00 0. -1.
         11    1    3    3    0    0  0.74028797258E-01  0.21903521436E+02  0.20873603277E+01  0.22002881742E+02  0.51100000000E-03 0. -1.
        -11    1    3    3    0    0  0.17399865797E+01  0.22622836226E+02  0.35749825958E+01  0.22969561882E+02  0.51100000000E-03 0.  1.
        -12    1    3    3    0    0 -0.23586178065E+01 -0.14297720892E+01 -0.56182872139E+00  0.28147784453E+01  0.00000000000E+00 0.  1.
</event>
<event>
 7    1  0.2647566E-010  0.4778726E+02  0.7816164E-02  0.1312668E+00
        -11   -1    0    0    0    0  0.00000000000E+00  0.00000000000E+00  0.45593999997E+02  0.45594000000E+02  0.51100000000E-03 0.  1.
         11   -1    0    0    0    0 -0.00000000000E+00 -0.00000000000E+00 -0.45593999997E+02  0.45594000000E+02  0.51100000000E-03 0. -1.
    9900012    2    1    2    0    0 -0.27043149120E+02 -0.29214155578E+02  0.17286555471E+02  0.47787264977E+02  0.19999972338E+02 0.  0.
         12    1    1    2    0    0  0.27043149120E+02  0.29214155578E+02 -0.17286555471E+02  0.43400735023E+02  0.00000000000E+00 0. -1.
         11    1    3    3    0    0 -0.14406978779E+02 -0.16405649415E+02  0.54941710797E+01  0.22514268507E+02  0.51100000000E-03 0.  1.
        -11    1    3    3    0    0 -0.36492990544E+01 -0.12696694953E+02  0.84605971148E+01  0.15687738847E+02  0.51100000000E-03 0. -1.
         12    1    3    3    0    0 -0.89868712866E+01 -0.11181120979E+00  0.33317872762E+01  0.95852576242E+01  0.00000000000E+00 0. -1.
</event>
<event>
 7    1  0.2647566E-010  0.4778727E+02  0.7816164E-02  0.1312668E+00
        -11   -1    0    0    0    0  0.00000000000E+00  0.00000000000E+00  0.45593999997E+02  0.45594000000E+02  0.51100000000E-03 0.  1.
         11   -1    0    0    0    0 -0.00000000000E+00 -0.00000000000E+00 -0.45593999997E+02  0.45594000000E+02  0.51100000000E-03 0. -1.
    9900012    2    1    2    0    0 -0.34407471051E+02  0.21258131236E+02 -0.15742967723E+02  0.47787271429E+02  0.20000001754E+02 0.  0.
         12    1    1    2    0    0  0.34407471051E+02 -0.21258131236E+02  0.15742967723E+02  0.43400728571E+02  0.00000000000E+00 0. -1.
         11    1    3    3    0    0  0.13728930333E+01  0.18831544633E+01  0.10574359498E-01  0.23304973915E+01  0.51100000000E-03 0. -1.
        -11    1    3    3    0    0 -0.80746020292E+01  0.66918984431E+01  0.12522908445E+01  0.10561672941E+02  0.51100000000E-03 0.  1.
        -12    1    3    3    0    0 -0.27705762055E+02  0.12683078329E+02 -0.17005832927E+02  0.34895101096E+02  0.00000000000E+00 0.  1.
</event>
<event>
 7    1  0.2647566E-010  0.4778727E+02  0.7816164E-02  0.1312668E+00
        -11   -1    0    0    0    0  0.00000000000E+00  0.00000000000E+00  0.45593999997E+02  0.45594000000E+02  0.51100000000E-03 0.  1.
         11   -1    0    0    0    0 -0.00000000000E+00 -0.00000000000E+00 -0.45593999997E+02  0.45594000000E+02  0.51100000000E-03 0. -1.
    9900012    2    1    2    0    0 -0.31523471271E+02  0.26963707270E+02  0.12761380716E+02  0.47787267420E+02  0.19999983474E+02 0.  0.
         12    1    1    2    0    0  0.31523471271E+02 -0.26963707270E+02 -0.12761380716E+02  0.43400732580E+02  0.00000000000E+00 0. -1.
         11    1    3    3    0    0 -0.21247224816E+02  0.27841807257E+02  0.10686314897E+02  0.36617046851E+02  0.51100000000E-03 0.  1.
        -11    1    3    3    0    0 -0.12013422203E+01 -0.11903566941E+01 -0.44108655930E+00  0.17477785338E+01  0.51100000000E-03 0. -1.
        -12    1    3    3    0    0 -0.90749042345E+01  0.31225670715E+00  0.25161523790E+01  0.94224420354E+01  0.00000000000E+00 0.  1.
</event>
<event>
 7    1  0.2647566E-010  0.4778725E+02  0.7816164E-02  0.1312668E+00
        -11   -1    0    0    0    0  0.00000000000E+00  0.00000000000E+00  0.45593999997E+02  0.45594000000E+02  0.51100000000E-03 0.  1.
         11   -1    0    0    0    0 -0.00000000000E+00 -0.00000000000E+00 -0.45593999997E+02  0.45594000000E+02  0.51100000000E-03 0. -1.
    9900012    2    1    2    0    0  0.41147494229E+01  0.42927480652E+02  0.48913120187E+01  0.47787254716E+02  0.19999925550E+02 0.  0.
         12    1    1    2    0    0 -0.41147494229E+01 -0.42927480652E+02 -0.48913120187E+01  0.43400745284E+02  0.00000000000E+00 0. -1.
         11    1    3    3    0    0  0.83530160860E+01  0.28882600512E+02 -0.32954854237E+01  0.30246284309E+02  0.51100000000E-03 0. -1.
        -11    1    3    3    0    0 -0.42404022089E+01  0.54656296821E+01  0.32549832577E+01  0.76451968571E+01  0.51100000000E-03 0.  1.
        -12    1    3    3    0    0  0.21355458214E-02  0.85792504582E+01  0.49318141848E+01  0.98957735493E+01  0.00000000000E+00 0.  1.
</event>
<event>
 7    1  0.2647566E-010  0.4778727E+02  0.7816164E-02  0.1312668E+00
        -11   -1    0    0    0    0  0.00000000000E+00  0.00000000000E+00  0.45593999997E+02  0.45594000000E+02  0.51100000000E-03 0.  1.
         11   -1    0    0    0    0 -0.00000000000E+00 -0.00000000000E+00 -0.45593999997E+02  0.45594000000E+02  0.51100000000E-03 0. -1.
    9900012    2    1    2    0    0 -0.20163061019E+01 -0.27092736993E+02  0.33845847903E+02  0.47787270647E+02  0.19999998190E+02 0.  0.
         12    1    1    2    0    0  0.20163061019E+01  0.27092736993E+02 -0.33845847903E+02  0.43400729353E+02  0.00000000000E+00 0. -1.
         11    1    3    3    0    0  0.13705721842E+00 -0.69597943324E+01  0.18165462066E+02  0.19453573814E+02  0.51100000000E-03 0. -1.
        -11    1    3    3    0    0  0.44599443821E+01 -0.55845645059E+01  0.75764069475E+01  0.10415392797E+02  0.51100000000E-03 0.  1.
        -12    1    3    3    0    0 -0.66133077024E+01 -0.14548378155E+02  0.81039788896E+01  0.17918304036E+02  0.00000000000E+00 0.  1.
</event>
<event>
 7    1  0.2647566E-010  0.4778726E+02  0.7816164E-02  0.1312668E+00
        -11   -1    0    0    0    0  0.00000000000E+00  0.00000000000E+00  0.45593999997E+02  0.45594000000E+02  0.51100000000E-03 0.  1.
         11   -1    0    0    0    0 -0.00000000000E+00 -0.00000000000E+00 -0.45593999997E+02  0.45594000000E+02  0.51100000000E-03 0. -1.
    9900012    2    1    2    0    0 -0.27351213298E+02  0.21665925054E+02  0.25809366634E+02  0.47787255959E+02  0.19999931218E+02 0.  0.
         12    1    1    2    0    0  0.27351213298E+02 -0.21665925054E+02 -0.25809366634E+02  0.43400744041E+02  0.00000000000E+00 0. -1.
         11    1    3    3    0    0 -0.12454882543E+02  0.13901508307E+02  0.23391300816E+01  0.18810836297E+02  0.51100000000E-03 0. -1.
        -11    1    3    3    0    0 -0.47520310649E+01  0.29158892962E+01  0.59072302408E+01  0.81227814822E+01  0.51100000000E-03 0.  1.
        -12    1    3    3    0    0 -0.10144299690E+02  0.48485274503E+01  0.17563006311E+02  0.20853638180E+02  0.00000000000E+00 0.  1.
</event>
<event>
 7    1  0.2647566E-010  0.4778727E+02  0.7816164E-02  0.1312668E+00
        -11   -1    0    0    0    0  0.00000000000E+00  0.00000000000E+00  0.45593999997E+02  0.45594000000E+02  0.51100000000E-03 0.  1.
         11   -1    0    0    0    0 -0.00000000000E+00 -0.00000000000E+00 -0.45593999997E+02  0.45594000000E+02  0.51100000000E-03 0. -1.
    9900012    2    1    2    0    0  0.36766015102E+02  0.11809622984E+02  0.19809492944E+02  0.47787273368E+02  0.20000010596E+02 0.  0.
         12    1    1    2    0    0 -0.36766015102E+02 -0.11809622984E+02 -0.19809492944E+02  0.43400726632E+02  0.00000000000E+00 0. -1.
         11    1    3    3    0    0  0.17020607337E+02  0.24424434361E+01  0.73174284715E+01  0.18687197857E+02  0.51100000000E-03 0. -1.
        -11    1    3    3    0    0  0.32714585650E+01 -0.37606376872E+01  0.39874220837E+01  0.63831318404E+01  0.51100000000E-03 0.  1.
        -12    1    3    3    0    0  0.16473949200E+02  0.13127817235E+02  0.85046423885E+01  0.22716943671E+02  0.00000000000E+00 0.  1.
</event>
<event>
 7    1  0.2647566E-010  0.4778727E+02  0.7816164E-02  0.1312668E+00
        -11   -1    0    0    0    0  0.00000000000E+00  0.00000000000E+00  0.45593999997E+02  0.45594000000E+02  0.51100000000E-03 0.  1.
         11   -1    0    0    0    0 -0.00000000000E+00 -0.00000000000E+00 -0.45593999997E+02  0.45594000000E+02  0.51100000000E-03 0. -1.
    9900012    2    1    2    0    0 -0.42531919164E+02  0.85573661038E+01 -0.11960795229E+01  0.47787271105E+02  0.20000000277E+02 0.  0.
         12    1    1    2    0    0  0.42531919164E+02 -0.85573661038E+01  0.11960795229E+01  0.43400728895E+02  0.00000000000E+00 0. -1.
         11    1    3    3    0    0 -0.28967308885E+02  0.39984710583E+01 -0.75678384925E-01  0.29242066998E+02  0.51100000000E-03 0. -1.
        -11    1    3    3    0    0 -0.13303008027E+02  0.93749381052E+00  0.23281099383E+01  0.13537688626E+02  0.51100000000E-03 0.  1.
         12    1    3    3    0    0 -0.26160225155E+00  0.36214012350E+01 -0.34485110762E+01  0.50075154803E+01  0.00000000000E+00 0. -1.
</event>
<event>
 7    1  0.2647566E-010  0.4778722E+02  0.7816164E-02  0.1312668E+00
        -11   -1    0    0    0    0  0.00000000000E+00  0.00000000000E+00  0.45593999997E+02  0.45594000000E+02  0.51100000000E-03 0.  1.
         11   -1    0    0    0    0 -0.00000000000E+00 -0.00000000000E+00 -0.45593999997E+02  0.45594000000E+02  0.51100000000E-03 0. -1.
    9900012    2    1    2    0    0  0.18110877431E+01 -0.26923635790E+02  0.33992145162E+02  0.47787215034E+02  0.19999744625E+02 0.  0.
         12    1    1    2    0    0 -0.18110877431E+01  0.26923635790E+02 -0.33992145162E+02  0.43400784966E+02  0.00000000000E+00 0. -1.
         11    1    3    3    0    0 -0.20383100685E+01 -0.88524439332E+00  0.51951735566E+01  0.56505038815E+01  0.51100000000E-03 0. -1.
        -11    1    3    3    0    0  0.87392686859E+01 -0.73414323573E+01  0.99365635631E+01  0.15132968708E+02  0.51100000000E-03 0.  1.
        -12    1    3    3    0    0 -0.48898708743E+01 -0.18696959039E+02  0.18860408042E+02  0.27003742444E+02  0.00000000000E+00 0.  1.
</event>
<event>
 7    1  0.2647566E-010  0.4778727E+02  0.7816164E-02  0.1312668E+00
        -11   -1    0    0    0    0  0.00000000000E+00  0.00000000000E+00  0.45593999997E+02  0.45594000000E+02  0.51100000000E-03 0.  1.
         11   -1    0    0    0    0 -0.00000000000E+00 -0.00000000000E+00 -0.45593999997E+02  0.45594000000E+02  0.51100000000E-03 0. -1.
    9900012    2    1    2    0    0 -0.46993196584E+00  0.41104905004E+02 -0.13920811930E+02  0.47787273552E+02  0.20000011432E+02 0.  0.
         12    1    1    2    0    0  0.46993196584E+00 -0.41104905004E+02  0.13920811930E+02  0.43400726448E+02  0.00000000000E+00 0. -1.
         11    1    3    3    0    0 -0.92205998596E+00  0.82610162660E+01  0.30428829793E+01  0.88517637481E+01  0.51100000000E-03 0. -1.
        -11    1    3    3    0    0  0.34788381238E+01  0.21772356372E+02 -0.55231677612E+01  0.22729786604E+02  0.51100000000E-03 0.  1.
         12    1    3    3    0    0 -0.30267101037E+01  0.11071532366E+02 -0.11440527149E+02  0.16205723199E+02  0.00000000000E+00 0. -1.
</event>
<event>
 7    1  0.2647566E-010  0.4778729E+02  0.7816164E-02  0.1312668E+00
        -11   -1    0    0    0    0  0.00000000000E+00  0.00000000000E+00  0.45593999997E+02  0.45594000000E+02  0.51100000000E-03 0.  1.
         11   -1    0    0    0    0 -0.00000000000E+00 -0.00000000000E+00 -0.45593999997E+02  0.45594000000E+02  0.51100000000E-03 0. -1.
    9900012    2    1    2    0    0 -0.48143732298E+01  0.42608007941E+02  0.67083151553E+01  0.47787285460E+02  0.20000065728E+02 0.  0.
         12    1    1    2    0    0  0.48143732298E+01 -0.42608007941E+02 -0.67083151553E+01  0.43400714540E+02  0.00000000000E+00 0. -1.
         11    1    3    3    0    0 -0.63879043682E+01  0.57437684590E+01  0.73941453184E+00  0.86222347705E+01  0.51100000000E-03 0. -1.
        -11    1    3    3    0    0  0.80916790406E+00 -0.38738961474E+00 -0.90781191090E+00  0.12763017422E+01  0.51100000000E-03 0.  1.
        -12    1    3    3    0    0  0.76436323432E+00  0.37251629097E+02  0.68767125343E+01  0.37888748948E+02  0.00000000000E+00 0.  1.
</event>
<event>
 7    1  0.2647566E-010  0.4778727E+02  0.7816164E-02  0.1312668E+00
        -11   -1    0    0    0    0  0.00000000000E+00  0.00000000000E+00  0.45593999997E+02  0.45594000000E+02  0.51100000000E-03 0. -1.
         11   -1    0    0    0    0 -0.00000000000E+00 -0.00000000000E+00 -0.45593999997E+02  0.45594000000E+02  0.51100000000E-03 0.  1.
    9900012    2    1    2    0    0 -0.23434743139E+02 -0.34742482888E+02  0.11286981352E+02  0.47787271305E+02  0.20000001186E+02 0.  0.
         12    1    1    2    0    0  0.23434743139E+02  0.34742482888E+02 -0.11286981352E+02  0.43400728695E+02  0.00000000000E+00 0. -1.
         11    1    3    3    0    0 -0.60748869964E+01 -0.20002170432E+01 -0.93538702055E+00  0.64637504112E+01  0.51100000000E-03 0. -1.
        -11    1    3    3    0    0 -0.14146800801E+02 -0.21508167679E+02  0.20390897934E+01  0.25824235463E+02  0.51100000000E-03 0.  1.
         12    1    3    3    0    0 -0.32130553420E+01 -0.11234098166E+02  0.10183278579E+02  0.15499285431E+02  0.00000000000E+00 0. -1.
</event>
<event>
 7    1  0.2647566E-010  0.4778727E+02  0.7816164E-02  0.1312668E+00
        -11   -1    0    0    0    0  0.00000000000E+00  0.00000000000E+00  0.45593999997E+02  0.45594000000E+02  0.51100000000E-03 0.  1.
         11   -1    0    0    0    0 -0.00000000000E+00 -0.00000000000E+00 -0.45593999997E+02  0.45594000000E+02  0.51100000000E-03 0. -1.
    9900012    2    1    2    0    0  0.36884345412E+02  0.22617549331E+02 -0.34080789901E+01  0.47787268709E+02  0.19999989352E+02 0.  0.
         12    1    1    2    0    0 -0.36884345412E+02 -0.22617549331E+02  0.34080789901E+01  0.43400731291E+02  0.00000000000E+00 0. -1.
         11    1    3    3    0    0  0.16886756946E+02  0.12417275342E+02  0.25754932235E+01  0.21118343985E+02  0.51100000000E-03 0. -1.
        -11    1    3    3    0    0  0.51344110611E+01  0.73289347140E+01  0.25324721904E+01  0.92999396042E+01  0.51100000000E-03 0.  1.
         12    1    3    3    0    0  0.14863177405E+02  0.28713392755E+01 -0.85160444041E+01  0.17368985120E+02  0.00000000000E+00 0. -1.
</event>
<event>
 7    1  0.2647566E-010  0.4778727E+02  0.7816164E-02  0.1312668E+00
        -11   -1    0    0    0    0  0.00000000000E+00  0.00000000000E+00  0.45593999997E+02  0.45594000000E+02  0.51100000000E-03 0.  1.
         11   -1    0    0    0    0 -0.00000000000E+00 -0.00000000000E+00 -0.45593999997E+02  0.45594000000E+02  0.51100000000E-03 0. -1.
    9900012    2    1    2    0    0  0.38679956518E+02  0.70563488938E+01  0.18376402585E+02  0.47787271113E+02  0.20000000312E+02 0.  0.
         12    1    1    2    0    0 -0.38679956518E+02 -0.70563488938E+01 -0.18376402585E+02  0.43400728887E+02  0.00000000000E+00 0. -1.
         11    1    3    3    0    0  0.33054878191E+02  0.25352316706E+01  0.93665248197E+01  0.34449733806E+02  0.51100000000E-03 0.  1.
        -11    1    3    3    0    0  0.42913708053E+01 -0.66121942198E+00  0.51685850032E+01  0.67503589319E+01  0.51100000000E-03 0. -1.
        -12    1    3    3    0    0  0.13337075217E+01  0.51823366452E+01  0.38412927618E+01  0.65871783746E+01  0.00000000000E+00 0.  1.
</event>
<event>
 7    1  0.2647566E-010  0.4778727E+02  0.7816164E-02  0.1312668E+00
        -11   -1    0    0    0    0  0.00000000000E+00  0.00000000000E+00  0.45593999997E+02  0.45594000000E+02  0.51100000000E-03 0.  1.
         11   -1    0    0    0    0 -0.00000000000E+00 -0.00000000000E+00 -0.45593999997E+02  0.45594000000E+02  0.51100000000E-03 0. -1.
    9900012    2    1    2    0    0  0.25496680519E+02 -0.21392363181E+02  0.27855151061E+02  0.47787270046E+02  0.19999995447E+02 0.  0.
         12    1    1    2    0    0 -0.25496680519E+02  0.21392363181E+02 -0.27855151061E+02  0.43400729954E+02  0.00000000000E+00 0. -1.
         11    1    3    3    0    0  0.44145791607E+01 -0.21976950053E+01  0.18152494214E+01  0.52548552049E+01  0.51100000000E-03 0.  1.
        -11    1    3    3    0    0  0.98163159395E+01 -0.15029495563E+02  0.24573781926E+02  0.30432163149E+02  0.51100000000E-03 0. -1.
         12    1    3    3    0    0  0.11265785419E+02 -0.41651726127E+01  0.14661197132E+01  0.12100251692E+02  0.00000000000E+00 0. -1.
</event>
<event>
 7    1  0.2647566E-010  0.4778727E+02  0.7816164E-02  0.1312668E+00
        -11   -1    0    0    0    0  0.00000000000E+00  0.00000000000E+00  0.45593999997E+02  0.45594000000E+02  0.51100000000E-03 0. -1.
         11   -1    0    0    0    0 -0.00000000000E+00 -0.00000000000E+00 -0.45593999997E+02  0.45594000000E+02  0.51100000000E-03 0.  1.
    9900012    2    1    2    0    0 -0.16788796494E+02  0.21986274390E+02 -0.33441940819E+02  0.47787270110E+02  0.19999995737E+02 0.  0.
         12    1    1    2    0    0  0.16788796494E+02 -0.21986274390E+02  0.33441940819E+02  0.43400729890E+02  0.00000000000E+00 0. -1.
         11    1    3    3    0    0 -0.22124352681E+01  0.10838410596E+02 -0.47023149452E+01  0.12019891022E+02  0.51100000000E-03 0. -1.
        -11    1    3    3    0    0 -0.71813926272E+00  0.66370957425E+01 -0.10093515954E+02  0.12101480425E+02  0.51100000000E-03 0.  1.
         12    1    3    3    0    0 -0.13858221963E+02  0.45107680516E+01 -0.18646109920E+02  0.23665898663E+02  0.00000000000E+00 0. -1.
</event>
<event>
 7    1  0.2647566E-010  0.4778726E+02  0.7816164E-02  0.1312668E+00
        -11   -1    0    0    0    0  0.00000000000E+00  0.00000000000E+00  0.45593999997E+02  0.45594000000E+02  0.51100000000E-03 0.  1.
         11   -1    0    0    0    0 -0.00000000000E+00 -0.00000000000E+00 -0.45593999997E+02  0.45594000000E+02  0.51100000000E-03 0. -1.
    9900012    2    1    2    0    0  0.47453915196E+01  0.16953975697E+01  0.43107201458E+02  0.47787263472E+02  0.19999965474E+02 0.  0.
         12    1    1    2    0    0 -0.47453915196E+01 -0.16953975697E+01 -0.43107201458E+02  0.43400736528E+02  0.00000000000E+00 0. -1.
         11    1    3    3    0    0  0.70396632668E+01  0.37916142064E+01  0.17057923014E+02  0.18838947290E+02  0.51100000000E-03 0. -1.
        -11    1    3    3    0    0 -0.26194889404E+01  0.48516670960E+01  0.13822290291E+02  0.14881401314E+02  0.51100000000E-03 0.  1.
         12    1    3    3    0    0  0.32521719317E+00 -0.69478837327E+01  0.12226988153E+02  0.14066914867E+02  0.00000000000E+00 0. -1.
</event>
<event>
 7    1  0.2647566E-010  0.4778727E+02  0.7816164E-02  0.1312668E+00
        -11   -1    0    0    0    0  0.00000000000E+00  0.00000000000E+00  0.45593999997E+02  0.45594000000E+02  0.51100000000E-03 0.  1.
         11   -1    0    0    0    0 -0.00000000000E+00 -0.00000000000E+00 -0.45593999997E+02  0.45594000000E+02  0.51100000000E-03 0. -1.
    9900012    2    1    2    0    0 -0.20095196867E+02  0.15537638714E+02  0.35190737444E+02  0.47787272405E+02  0.20000006204E+02 0.  0.
         12    1    1    2    0    0  0.20095196867E+02 -0.15537638714E+02 -0.35190737444E+02  0.43400727595E+02  0.00000000000E+00 0. -1.
         11    1    3    3    0    0 -0.18229075894E+01 -0.19705538070E+01  0.12783364811E-02  0.26844135823E+01  0.51100000000E-03 0. -1.
        -11    1    3    3    0    0 -0.13196372420E+02  0.47382197829E+01  0.13755107240E+02  0.19641739923E+02  0.51100000000E-03 0.  1.
        -12    1    3    3    0    0 -0.50759168577E+01  0.12769972738E+02  0.21434351867E+02  0.25461118900E+02  0.00000000000E+00 0.  1.
</event>
<event>
 7    1  0.2647566E-010  0.4778727E+02  0.7816164E-02  0.1312668E+00
        -11   -1    0    0    0    0  0.00000000000E+00  0.00000000000E+00  0.45593999997E+02  0.45594000000E+02  0.51100000000E-03 0.  1.
         11   -1    0    0    0    0 -0.00000000000E+00 -0.00000000000E+00 -0.45593999997E+02  0.45594000000E+02  0.51100000000E-03 0. -1.
    9900012    2    1    2    0    0  0.19725865117E+02  0.13671544599E+01  0.38634755153E+02  0.47787272223E+02  0.20000005372E+02 0.  0.
         12    1    1    2    0    0 -0.19725865117E+02 -0.13671544599E+01 -0.38634755153E+02  0.43400727777E+02  0.00000000000E+00 0. -1.
         11    1    3    3    0    0  0.14880285964E+02  0.49087251395E+01  0.24168658114E+02  0.28803515899E+02  0.51100000000E-03 0.  1.
        -11    1    3    3    0    0  0.42498877536E+01  0.19147834858E+00  0.23670670446E+00  0.42607792951E+01  0.51100000000E-03 0. -1.
         12    1    3    3    0    0  0.59569139850E+00 -0.37330490282E+01  0.14229390334E+02  0.14722977028E+02  0.00000000000E+00 0. -1.
</event>
<event>
 7    1  0.2647566E-010  0.4778727E+02  0.7816164E-02  0.1312668E+00
        -11   -1    0    0    0    0  0.00000000000E+00  0.00000000000E+00  0.45593999997E+02  0.45594000000E+02  0.51100000000E-03 0.  1.
         11   -1    0    0    0    0 -0.00000000000E+00 -0.00000000000E+00 -0.45593999997E+02  0.45594000000E+02  0.51100000000E-03 0. -1.
    9900012    2    1    2    0    0 -0.52583450513E+01 -0.35578454804E+02  0.24292934519E+02  0.47787270669E+02  0.19999998288E+02 0.  0.
         12    1    1    2    0    0  0.52583450513E+01  0.35578454804E+02 -0.24292934519E+02  0.43400729331E+02  0.00000000000E+00 0. -1.
         11    1    3    3    0    0  0.25820632691E+01 -0.11173175861E+01  0.49530953863E+00  0.28567080905E+01  0.51100000000E-03 0. -1.
        -11    1    3    3    0    0 -0.39910665488E+00 -0.14096507939E+02  0.17252274737E+02  0.22282544874E+02  0.51100000000E-03 0.  1.
        -12    1    3    3    0    0 -0.74413016656E+01 -0.20364629279E+02  0.65453502434E+01  0.22648017704E+02  0.00000000000E+00 0.  1.
</event>
<event>
 7    1  0.2647566E-010  0.4778728E+02  0.7816164E-02  0.1312668E+00
        -11   -1    0    0    0    0  0.00000000000E+00  0.00000000000E+00  0.45593999997E+02  0.45594000000E+02  0.51100000000E-03 0.  1.
         11   -1    0    0    0    0 -0.00000000000E+00 -0.00000000000E+00 -0.45593999997E+02  0.45594000000E+02  0.51100000000E-03 0. -1.
    9900012    2    1    2    0    0 -0.32081567808E+02  0.26357187672E+02  0.12637027452E+02  0.47787276529E+02  0.20000025007E+02 0.  0.
         12    1    1    2    0    0  0.32081567808E+02 -0.26357187672E+02 -0.12637027452E+02  0.43400723471E+02  0.00000000000E+00 0. -1.
         11    1    3    3    0    0 -0.26555652131E+01  0.67392727567E+01 -0.27069482796E+00  0.72486619345E+01  0.51100000000E-03 0. -1.
        -11    1    3    3    0    0 -0.23936447887E+02  0.21937432802E+02  0.10998800273E+02  0.34280870804E+02  0.51100000000E-03 0.  1.
        -12    1    3    3    0    0 -0.54895547075E+01 -0.23195178870E+01  0.19089220074E+01  0.62577437903E+01  0.00000000000E+00 0.  1.
</event>
<event>
 7    1  0.2647566E-010  0.4778728E+02  0.7816164E-02  0.1312668E+00
        -11   -1    0    0    0    0  0.00000000000E+00  0.00000000000E+00  0.45593999997E+02  0.45594000000E+02  0.51100000000E-03 0.  1.
         11   -1    0    0    0    0 -0.00000000000E+00 -0.00000000000E+00 -0.45593999997E+02  0.45594000000E+02  0.51100000000E-03 0. -1.
    9900012    2    1    2    0    0 -0.34505516494E+01  0.19751261554E+02  0.38491609822E+02  0.47787278044E+02  0.20000031913E+02 0.  0.
         12    1    1    2    0    0  0.34505516494E+01 -0.19751261554E+02 -0.38491609822E+02  0.43400721956E+02  0.00000000000E+00 0. -1.
         11    1    3    3    0    0 -0.61735992406E+01  0.11498645910E+02  0.12185487307E+02  0.17855483374E+02  0.51100000000E-03 0. -1.
        -11    1    3    3    0    0 -0.12254612584E+01  0.98907282137E+01  0.17378565885E+02  0.20033542182E+02  0.51100000000E-03 0.  1.
        -12    1    3    3    0    0  0.39485088496E+01 -0.16381125699E+01  0.89275566301E+01  0.98982524877E+01  0.00000000000E+00 0.  1.
</event>
<event>
 7    1  0.2647566E-010  0.4778728E+02  0.7816164E-02  0.1312668E+00
        -11   -1    0    0    0    0  0.00000000000E+00  0.00000000000E+00  0.45593999997E+02  0.45594000000E+02  0.51100000000E-03 0. -1.
         11   -1    0    0    0    0 -0.00000000000E+00 -0.00000000000E+00 -0.45593999997E+02  0.45594000000E+02  0.51100000000E-03 0.  1.
    9900012    2    1    2    0    0 -0.10710212519E+02 -0.28008291870E+02 -0.31375941165E+02  0.47787277083E+02  0.20000027533E+02 0.  0.
         12    1    1    2    0    0  0.10710212519E+02  0.28008291870E+02  0.31375941165E+02  0.43400722917E+02  0.00000000000E+00 0. -1.
         11    1    3    3    0    0 -0.41863803602E+01 -0.11426397439E+01 -0.27745981755E+01  0.51507088251E+01  0.51100000000E-03 0. -1.
        -11    1    3    3    0    0  0.24425198440E+01  0.71568814198E+00 -0.31548737494E+01  0.40535590955E+01  0.51100000000E-03 0.  1.
        -12    1    3    3    0    0 -0.89663520030E+01 -0.27581340268E+02 -0.25446469240E+02  0.38583009163E+02  0.00000000000E+00 0.  1.
</event>
<event>
 7    1  0.2647566E-010  0.4778727E+02  0.7816164E-02  0.1312668E+00
        -11   -1    0    0    0    0  0.00000000000E+00  0.00000000000E+00  0.45593999997E+02  0.45594000000E+02  0.51100000000E-03 0.  1.
         11   -1    0    0    0    0 -0.00000000000E+00 -0.00000000000E+00 -0.45593999997E+02  0.45594000000E+02  0.51100000000E-03 0. -1.
    9900012    2    1    2    0    0  0.20884090964E+01 -0.18746791178E+01  0.43309899691E+02  0.47787270909E+02  0.19999999384E+02 0.  0.
         12    1    1    2    0    0 -0.20884090964E+01  0.18746791178E+01 -0.43309899691E+02  0.43400729091E+02  0.00000000000E+00 0. -1.
         11    1    3    3    0    0 -0.31181367933E+01 -0.37497010957E+01  0.57136752695E+01  0.75119318897E+01  0.51100000000E-03 0. -1.
        -11    1    3    3    0    0  0.19848558475E+01 -0.16626152669E+01  0.22489258668E+00  0.25989457859E+01  0.51100000000E-03 0.  1.
        -12    1    3    3    0    0  0.32216900422E+01  0.35376372448E+01  0.37371331835E+02  0.37676393234E+02  0.00000000000E+00 0.  1.
</event>
<event>
 7    1  0.2647566E-010  0.4778728E+02  0.7816164E-02  0.1312668E+00
        -11   -1    0    0    0    0  0.00000000000E+00  0.00000000000E+00  0.45593999997E+02  0.45594000000E+02  0.51100000000E-03 0.  1.
         11   -1    0    0    0    0 -0.00000000000E+00 -0.00000000000E+00 -0.45593999997E+02  0.45594000000E+02  0.51100000000E-03 0. -1.
    9900012    2    1    2    0    0  0.26977283007E+02  0.90572101813E+01  0.32769130601E+02  0.47787276792E+02  0.20000026203E+02 0.  0.
         12    1    1    2    0    0 -0.26977283007E+02 -0.90572101813E+01 -0.32769130601E+02  0.43400723208E+02  0.00000000000E+00 0. -1.
         11    1    3    3    0    0  0.59307814014E+01 -0.12016792774E+01  0.16230964882E+02  0.17322309961E+02  0.51100000000E-03 0. -1.
        -11    1    3    3    0    0  0.57352876567E+01  0.39462783331E-01  0.87826784679E+01  0.10489543515E+02  0.51100000000E-03 0.  1.
        -12    1    3    3    0    0  0.15311213949E+02  0.10219426675E+02  0.77554872508E+01  0.19975423316E+02  0.00000000000E+00 0.  1.
</event>
<event>
 7    1  0.2647566E-010  0.4778727E+02  0.7816164E-02  0.1312668E+00
        -11   -1    0    0    0    0  0.00000000000E+00  0.00000000000E+00  0.45593999997E+02  0.45594000000E+02  0.51100000000E-03 0.  1.
         11   -1    0    0    0    0 -0.00000000000E+00 -0.00000000000E+00 -0.45593999997E+02  0.45594000000E+02  0.51100000000E-03 0. -1.
    9900012    2    1    2    0    0  0.40800146541E+02  0.57667988790E+01  0.13627739109E+02  0.47787271892E+02  0.20000003865E+02 0.  0.
         12    1    1    2    0    0 -0.40800146541E+02 -0.57667988790E+01 -0.13627739109E+02  0.43400728108E+02  0.00000000000E+00 0. -1.
         11    1    3    3    0    0  0.10924843227E+02 -0.53868278315E+01  0.34074931633E+01  0.12648364461E+02  0.51100000000E-03 0. -1.
        -11    1    3    3    0    0  0.19670195548E+02  0.21156253254E+01  0.41386403354E+01  0.20211897672E+02  0.51100000000E-03 0.  1.
        -12    1    3    3    0    0  0.10205107766E+02  0.90380013852E+01  0.60816056105E+01  0.14927009759E+02  0.00000000000E+00 0.  1.
</event>
<event>
 7    1  0.2647566E-010  0.4778727E+02  0.7816164E-02  0.1312668E+00
        -11   -1    0    0    0    0  0.00000000000E+00  0.00000000000E+00  0.45593999997E+02  0.45594000000E+02  0.51100000000E-03 0.  1.
         11   -1    0    0    0    0 -0.00000000000E+00 -0.00000000000E+00 -0.45593999997E+02  0.45594000000E+02  0.51100000000E-03 0. -1.
    9900012    2    1    2    0    0  0.25563792691E+02  0.71405887501E+01  0.34338430137E+02  0.47787270873E+02  0.19999999219E+02 0.  0.
         12    1    1    2    0    0 -0.25563792691E+02 -0.71405887501E+01 -0.34338430137E+02  0.43400729127E+02  0.00000000000E+00 0. -1.
         11    1    3    3    0    0 -0.14014960010E+01  0.97798868679E+00  0.82253556993E+00  0.18966333165E+01  0.51100000000E-03 0. -1.
        -11    1    3    3    0    0  0.16268776042E+02  0.50684676015E+01  0.93409007629E+01  0.19432314969E+02  0.51100000000E-03 0.  1.
        -12    1    3    3    0    0  0.10696512651E+02  0.10941324619E+01  0.24174993804E+02  0.26458322588E+02  0.00000000000E+00 0.  1.
</event>
<event>
 7    1  0.2647566E-010  0.4778727E+02  0.7816164E-02  0.1312668E+00
        -11   -1    0    0    0    0  0.00000000000E+00  0.00000000000E+00  0.45593999997E+02  0.45594000000E+02  0.51100000000E-03 0.  1.
         11   -1    0    0    0    0 -0.00000000000E+00 -0.00000000000E+00 -0.45593999997E+02  0.45594000000E+02  0.51100000000E-03 0. -1.
    9900012    2    1    2    0    0  0.19824774478E+02  0.28336830367E+02  0.26222618186E+02  0.47787270249E+02  0.19999996375E+02 0.  0.
         12    1    1    2    0    0 -0.19824774478E+02 -0.28336830367E+02 -0.26222618186E+02  0.43400729751E+02  0.00000000000E+00 0. -1.
         11    1    3    3    0    0  0.40876189062E+01  0.32612307468E+01  0.49111082405E+01  0.71737883100E+01  0.51100000000E-03 0.  1.
        -11    1    3    3    0    0 -0.20427170841E+01  0.12307668971E+02  0.56350499130E+01  0.13689601760E+02  0.51100000000E-03 0. -1.
         12    1    3    3    0    0  0.17779872656E+02  0.12767930650E+02  0.15676460033E+02  0.26923880179E+02  0.00000000000E+00 0. -1.
</event>
<event>
 7    1  0.2647566E-010  0.4778728E+02  0.7816164E-02  0.1312668E+00
        -11   -1    0    0    0    0  0.00000000000E+00  0.00000000000E+00  0.45593999997E+02  0.45594000000E+02  0.51100000000E-03 0.  1.
         11   -1    0    0    0    0 -0.00000000000E+00 -0.00000000000E+00 -0.45593999997E+02  0.45594000000E+02  0.51100000000E-03 0. -1.
    9900012    2    1    2    0    0  0.24803441605E+02 -0.30732752406E+02  0.17997503475E+02  0.47787275153E+02  0.20000018732E+02 0.  0.
         12    1    1    2    0    0 -0.24803441605E+02  0.30732752406E+02 -0.17997503475E+02  0.43400724847E+02  0.00000000000E+00 0. -1.
         11    1    3    3    0    0  0.22567829535E+02 -0.22831630362E+02  0.18139790728E+02  0.36873327526E+02  0.51100000000E-03 0. -1.
        -11    1    3    3    0    0  0.28570527704E+01 -0.79177250133E+01  0.20264063329E+01  0.86579121505E+01  0.51100000000E-03 0.  1.
         12    1    3    3    0    0 -0.62144070029E+00  0.16602969627E-01 -0.21686935856E+01  0.22560354764E+01  0.00000000000E+00 0. -1.
</event>
<event>
 7    1  0.2647566E-010  0.4778729E+02  0.7816164E-02  0.1312668E+00
        -11   -1    0    0    0    0  0.00000000000E+00  0.00000000000E+00  0.45593999997E+02  0.45594000000E+02  0.51100000000E-03 0. -1.
         11   -1    0    0    0    0 -0.00000000000E+00 -0.00000000000E+00 -0.45593999997E+02  0.45594000000E+02  0.51100000000E-03 0.  1.
    9900012    2    1    2    0    0 -0.39562290452E+02  0.17146723842E+02  0.49433770195E+01  0.47787286404E+02  0.20000070030E+02 0.  0.
         12    1    1    2    0    0  0.39562290452E+02 -0.17146723842E+02 -0.49433770195E+01  0.43400713596E+02  0.00000000000E+00 0. -1.
         11    1    3    3    0    0 -0.94585134889E+01  0.47556456334E+01  0.59709841834E+01  0.12154517481E+02  0.51100000000E-03 0. -1.
        -11    1    3    3    0    0 -0.25038085646E+02  0.15648669169E+02 -0.18133276157E-01  0.29526037808E+02  0.51100000000E-03 0.  1.
        -12    1    3    3    0    0 -0.50656913170E+01 -0.32575909605E+01 -0.10094738877E+01  0.61067311154E+01  0.00000000000E+00 0.  1.
</event>
<event>
 7    1  0.2647566E-010  0.4778727E+02  0.7816164E-02  0.1312668E+00
        -11   -1    0    0    0    0  0.00000000000E+00  0.00000000000E+00  0.45593999997E+02  0.45594000000E+02  0.51100000000E-03 0.  1.
         11   -1    0    0    0    0 -0.00000000000E+00 -0.00000000000E+00 -0.45593999997E+02  0.45594000000E+02  0.51100000000E-03 0. -1.
    9900012    2    1    2    0    0 -0.15716504688E+01  0.13151005195E+02  0.41330426521E+02  0.47787272135E+02  0.20000004973E+02 0.  0.
         12    1    1    2    0    0  0.15716504688E+01 -0.13151005195E+02 -0.41330426521E+02  0.43400727865E+02  0.00000000000E+00 0. -1.
         11    1    3    3    0    0 -0.61042581417E+00  0.68392639974E+01  0.31727241418E+01  0.75640154972E+01  0.51100000000E-03 0. -1.
        -11    1    3    3    0    0  0.14516506866E+01  0.19463990497E+01  0.83340352764E+00  0.25671619890E+01  0.51100000000E-03 0.  1.
        -12    1    3    3    0    0 -0.24128753413E+01  0.43653421478E+01  0.37324298851E+02  0.37656094649E+02  0.00000000000E+00 0.  1.
</event>
<event>
 7    1  0.2647566E-010  0.4778727E+02  0.7816164E-02  0.1312668E+00
        -11   -1    0    0    0    0  0.00000000000E+00  0.00000000000E+00  0.45593999997E+02  0.45594000000E+02  0.51100000000E-03 0. -1.
         11   -1    0    0    0    0 -0.00000000000E+00 -0.00000000000E+00 -0.45593999997E+02  0.45594000000E+02  0.51100000000E-03 0.  1.
    9900012    2    1    2    0    0 -0.14527728261E+02 -0.16332461944E+02 -0.37494253665E+02  0.47787271210E+02  0.20000000757E+02 0.  0.
         12    1    1    2    0    0  0.14527728261E+02  0.16332461944E+02  0.37494253665E+02  0.43400728790E+02  0.00000000000E+00 0. -1.
         11    1    3    3    0    0 -0.64523372900E+01  0.94926059856E+00 -0.11356434597E+02  0.13095890928E+02  0.51100000000E-03 0. -1.
        -11    1    3    3    0    0 -0.62147802655E+01 -0.95766511334E+00 -0.58852930068E+01  0.86126238890E+01  0.51100000000E-03 0.  1.
         12    1    3    3    0    0 -0.18606107052E+01 -0.16324057429E+02 -0.20252526061E+02  0.26078756393E+02  0.00000000000E+00 0. -1.
</event>
<event>
 7    1  0.2647566E-010  0.4778727E+02  0.7816164E-02  0.1312668E+00
        -11   -1    0    0    0    0  0.00000000000E+00  0.00000000000E+00  0.45593999997E+02  0.45594000000E+02  0.51100000000E-03 0.  1.
         11   -1    0    0    0    0 -0.00000000000E+00 -0.00000000000E+00 -0.45593999997E+02  0.45594000000E+02  0.51100000000E-03 0. -1.
    9900012    2    1    2    0    0 -0.38272716704E+02  0.71521558365E+00  0.20452659794E+02  0.47787266482E+02  0.19999979198E+02 0.  0.
         12    1    1    2    0    0  0.38272716704E+02 -0.71521558365E+00 -0.20452659794E+02  0.43400733518E+02  0.00000000000E+00 0. -1.
         11    1    3    3    0    0 -0.85635830085E+00  0.20087833808E+01  0.16535259277E+01  0.27391072387E+01  0.51100000000E-03 0. -1.
        -11    1    3    3    0    0 -0.34058043164E+02  0.21816077748E+01  0.10970022167E+02  0.35847609450E+02  0.51100000000E-03 0.  1.
         12    1    3    3    0    0 -0.33583152391E+01 -0.34751755719E+01  0.78291116993E+01  0.92005497934E+01  0.00000000000E+00 0. -1.
</event>
<event>
 7    1  0.2647566E-010  0.4778727E+02  0.7816164E-02  0.1312668E+00
        -11   -1    0    0    0    0  0.00000000000E+00  0.00000000000E+00  0.45593999997E+02  0.45594000000E+02  0.51100000000E-03 0.  1.
         11   -1    0    0    0    0 -0.00000000000E+00 -0.00000000000E+00 -0.45593999997E+02  0.45594000000E+02  0.51100000000E-03 0. -1.
    9900012    2    1    2    0    0  0.43634588046E+01  0.14823299761E+02  0.40556790595E+02  0.47787271297E+02  0.20000001152E+02 0.  0.
         12    1    1    2    0    0 -0.43634588046E+01 -0.14823299761E+02 -0.40556790595E+02  0.43400728703E+02  0.00000000000E+00 0. -1.
         11    1    3    3    0    0  0.60830751978E+01  0.11478394413E+02  0.14099284393E+02  0.19171519575E+02  0.51100000000E-03 0. -1.
        -11    1    3    3    0    0  0.23378754836E+01  0.44029232791E+01  0.21739201355E+02  0.22303458723E+02  0.51100000000E-03 0.  1.
         12    1    3    3    0    0 -0.40574918768E+01 -0.10580179315E+01  0.47183048479E+01  0.63122929995E+01  0.00000000000E+00 0. -1.
</event>
<event>
 7    1  0.2647566E-010  0.4778728E+02  0.7816164E-02  0.1312668E+00
        -11   -1    0    0    0    0  0.00000000000E+00  0.00000000000E+00  0.45593999997E+02  0.45594000000E+02  0.51100000000E-03 0.  1.
         11   -1    0    0    0    0 -0.00000000000E+00 -0.00000000000E+00 -0.45593999997E+02  0.45594000000E+02  0.51100000000E-03 0. -1.
    9900012    2    1    2    0    0 -0.61396309025E+01  0.43716407291E+01  0.42741271723E+02  0.47787278591E+02  0.20000034408E+02 0.  0.
         12    1    1    2    0    0  0.61396309025E+01 -0.43716407291E+01 -0.42741271723E+02  0.43400721409E+02  0.00000000000E+00 0. -1.
         11    1    3    3    0    0  0.31647050778E+01  0.36102276433E+01  0.16215796497E+02  0.16911568767E+02  0.51100000000E-03 0. -1.
        -11    1    3    3    0    0 -0.18714577604E+01  0.52830439420E+01  0.44786907159E+01  0.71743695355E+01  0.51100000000E-03 0.  1.
        -12    1    3    3    0    0 -0.74328782199E+01 -0.45216308562E+01  0.22046784511E+02  0.23701340289E+02  0.00000000000E+00 0.  1.
</event>
<event>
 7    1  0.2647566E-010  0.4778725E+02  0.7816164E-02  0.1312668E+00
        -11   -1    0    0    0    0  0.00000000000E+00  0.00000000000E+00  0.45593999997E+02  0.45594000000E+02  0.51100000000E-03 0.  1.
         11   -1    0    0    0    0 -0.00000000000E+00 -0.00000000000E+00 -0.45593999997E+02  0.45594000000E+02  0.51100000000E-03 0. -1.
    9900012    2    1    2    0    0  0.26795163747E+02  0.21362474919E+01  0.34074640178E+02  0.47787245895E+02  0.19999885334E+02 0.  0.
         12    1    1    2    0    0 -0.26795163747E+02 -0.21362474919E+01 -0.34074640178E+02  0.43400754105E+02  0.00000000000E+00 0. -1.
         11    1    3    3    0    0  0.18185622750E+02  0.11908815934E+00  0.21344644656E+02  0.28041485562E+02  0.51100000000E-03 0. -1.
        -11    1    3    3    0    0  0.90952838903E+01  0.43521318267E+01  0.42591494585E+01  0.10945574213E+02  0.51100000000E-03 0.  1.
         12    1    3    3    0    0 -0.48574289295E+00 -0.23349724942E+01  0.84708460638E+01  0.88001861198E+01  0.00000000000E+00 0. -1.
</event>
<event>
 7    1  0.2647566E-010  0.4778728E+02  0.7816164E-02  0.1312668E+00
        -11   -1    0    0    0    0  0.00000000000E+00  0.00000000000E+00  0.45593999997E+02  0.45594000000E+02  0.51100000000E-03 0.  1.
         11   -1    0    0    0    0 -0.00000000000E+00 -0.00000000000E+00 -0.45593999997E+02  0.45594000000E+02  0.51100000000E-03 0. -1.
    9900012    2    1    2    0    0 -0.34413911676E+02 -0.91256113787E+01  0.24819916630E+02  0.47787281557E+02  0.20000047930E+02 0.  0.
         12    1    1    2    0    0  0.34413911676E+02  0.91256113787E+01 -0.24819916630E+02  0.43400718443E+02  0.00000000000E+00 0. -1.
         11    1    3    3    0    0 -0.10168846881E+02 -0.80221053361E+01  0.66277070923E+00  0.12969151329E+02  0.51100000000E-03 0. -1.
        -11    1    3    3    0    0 -0.11451005424E+02 -0.14315561665E+01  0.73081221703E+01  0.13659558126E+02  0.51100000000E-03 0.  1.
         12    1    3    3    0    0 -0.12794059371E+02  0.32805012386E+00  0.16849023750E+02  0.21158572103E+02  0.00000000000E+00 0. -1.
</event>
<event>
 7    1  0.2647566E-010  0.4778727E+02  0.7816164E-02  0.1312668E+00
        -11   -1    0    0    0    0  0.00000000000E+00  0.00000000000E+00  0.45593999997E+02  0.45594000000E+02  0.51100000000E-03 0. -1.
         11   -1    0    0    0    0 -0.00000000000E+00 -0.00000000000E+00 -0.45593999997E+02  0.45594000000E+02  0.51100000000E-03 0.  1.
    9900012    2    1    2    0    0 -0.38410567774E+02 -0.15474281157E+02 -0.12992242847E+02  0.47787268805E+02  0.19999989791E+02 0.  0.
         12    1    1    2    0    0  0.38410567774E+02  0.15474281157E+02  0.12992242847E+02  0.43400731195E+02  0.00000000000E+00 0. -1.
         11    1    3    3    0    0 -0.19055849807E+02 -0.22700101819E+01 -0.64015433204E+01  0.20230128898E+02  0.51100000000E-03 0. -1.
        -11    1    3    3    0    0 -0.15886472390E+02 -0.35239810103E+01 -0.56741893849E+01  0.17233539178E+02  0.51100000000E-03 0.  1.
         12    1    3    3    0    0 -0.34682455769E+01 -0.96802899647E+01 -0.91651014200E+00  0.10323600730E+02  0.00000000000E+00 0. -1.
</event>
<event>
 7    1  0.2647566E-010  0.4778727E+02  0.7816164E-02  0.1312668E+00
        -11   -1    0    0    0    0  0.00000000000E+00  0.00000000000E+00  0.45593999997E+02  0.45594000000E+02  0.51100000000E-03 0. -1.
         11   -1    0    0    0    0 -0.00000000000E+00 -0.00000000000E+00 -0.45593999997E+02  0.45594000000E+02  0.51100000000E-03 0.  1.
    9900012    2    1    2    0    0  0.25035479483E+02 -0.10291917036E+02 -0.33925277287E+02  0.47787271570E+02  0.20000002396E+02 0.  0.
         12    1    1    2    0    0 -0.25035479483E+02  0.10291917036E+02  0.33925277287E+02  0.43400728430E+02  0.00000000000E+00 0. -1.
         11    1    3    3    0    0 -0.64759814134E-01 -0.37483767667E+01 -0.12112119287E+02  0.12679036087E+02  0.51100000000E-03 0. -1.
        -11    1    3    3    0    0  0.80044163270E-01 -0.20340434717E+01 -0.10909797581E+01  0.23095404319E+01  0.51100000000E-03 0.  1.
        -12    1    3    3    0    0  0.25020195134E+02 -0.45094967979E+01 -0.20722178242E+02  0.32798695051E+02  0.00000000000E+00 0.  1.
</event>
<event>
 7    1  0.2647566E-010  0.4778727E+02  0.7816164E-02  0.1312668E+00
        -11   -1    0    0    0    0  0.00000000000E+00  0.00000000000E+00  0.45593999997E+02  0.45594000000E+02  0.51100000000E-03 0.  1.
         11   -1    0    0    0    0 -0.00000000000E+00 -0.00000000000E+00 -0.45593999997E+02  0.45594000000E+02  0.51100000000E-03 0. -1.
    9900012    2    1    2    0    0 -0.30075757924E+02  0.16161669983E+02  0.26793137088E+02  0.47787274357E+02  0.20000015102E+02 0.  0.
         12    1    1    2    0    0  0.30075757924E+02 -0.16161669983E+02 -0.26793137088E+02  0.43400725643E+02  0.00000000000E+00 0. -1.
         11    1    3    3    0    0 -0.68006641158E+01  0.10015494074E+02  0.49205335750E+01  0.13067930398E+02  0.51100000000E-03 0. -1.
        -11    1    3    3    0    0 -0.20404669074E+02  0.84944193324E+01  0.14406254689E+02  0.26382680952E+02  0.51100000000E-03 0.  1.
        -12    1    3    3    0    0 -0.28704247347E+01 -0.23482434227E+01  0.74663488236E+01  0.83366630066E+01  0.00000000000E+00 0.  1.
</event>
<event>
 7    1  0.2647566E-010  0.4778727E+02  0.7816164E-02  0.1312668E+00
        -11   -1    0    0    0    0  0.00000000000E+00  0.00000000000E+00  0.45593999997E+02  0.45594000000E+02  0.51100000000E-03 0.  1.
         11   -1    0    0    0    0 -0.00000000000E+00 -0.00000000000E+00 -0.45593999997E+02  0.45594000000E+02  0.51100000000E-03 0. -1.
    9900012    2    1    2    0    0  0.52953220434E+01 -0.40133692119E+02 -0.15648320576E+02  0.47787267109E+02  0.19999982057E+02 0.  0.
         12    1    1    2    0    0 -0.52953220434E+01  0.40133692119E+02  0.15648320576E+02  0.43400732891E+02  0.00000000000E+00 0. -1.
         11    1    3    3    0    0 -0.18924136524E+01 -0.17027950680E+02 -0.10739336758E+02  0.20220427494E+02  0.51100000000E-03 0. -1.
        -11    1    3    3    0    0  0.82702758725E+01 -0.24082767871E+02 -0.53973450150E+01  0.26028993542E+02  0.51100000000E-03 0.  1.
         12    1    3    3    0    0 -0.10825401767E+01  0.97702643261E+00  0.48836119710E+00  0.15378460726E+01  0.00000000000E+00 0. -1.
</event>
<event>
 7    1  0.2647566E-010  0.4778727E+02  0.7816164E-02  0.1312668E+00
        -11   -1    0    0    0    0  0.00000000000E+00  0.00000000000E+00  0.45593999997E+02  0.45594000000E+02  0.51100000000E-03 0.  1.
         11   -1    0    0    0    0 -0.00000000000E+00 -0.00000000000E+00 -0.45593999997E+02  0.45594000000E+02  0.51100000000E-03 0. -1.
    9900012    2    1    2    0    0 -0.49624376526E+01 -0.12259610598E+01  0.43098657448E+02  0.47787273718E+02  0.20000012190E+02 0.  0.
         12    1    1    2    0    0  0.49624376526E+01  0.12259610598E+01 -0.43098657448E+02  0.43400726282E+02  0.00000000000E+00 0. -1.
         11    1    3    3    0    0 -0.42787314842E-02 -0.19045889641E+01  0.33662477410E+01  0.38676997744E+01  0.51100000000E-03 0. -1.
        -11    1    3    3    0    0 -0.51835030673E+00 -0.79576218605E+01  0.25279110978E+02  0.26507091217E+02  0.51100000000E-03 0.  1.
         12    1    3    3    0    0 -0.44398086143E+01  0.86362497648E+01  0.14453298729E+02  0.17412482726E+02  0.00000000000E+00 0. -1.
</event>
<event>
 7    1  0.2647566E-010  0.4778725E+02  0.7816164E-02  0.1312668E+00
        -11   -1    0    0    0    0  0.00000000000E+00  0.00000000000E+00  0.45593999997E+02  0.45594000000E+02  0.51100000000E-03 0.  1.
         11   -1    0    0    0    0 -0.00000000000E+00 -0.00000000000E+00 -0.45593999997E+02  0.45594000000E+02  0.51100000000E-03 0. -1.
    9900012    2    1    2    0    0 -0.34828160504E+02  0.22321001705E+02  0.13130019431E+02  0.47787247801E+02  0.19999894023E+02 0.  0.
         12    1    1    2    0    0  0.34828160504E+02 -0.22321001705E+02 -0.13130019431E+02  0.43400752199E+02  0.00000000000E+00 0. -1.
         11    1    3    3    0    0 -0.86509546613E+00  0.51801423206E+01 -0.11604378635E+01  0.53785575132E+01  0.51100000000E-03 0. -1.
        -11    1    3    3    0    0 -0.53995406118E+01  0.87442914186E+00 -0.18695920805E+01  0.57805743617E+01  0.51100000000E-03 0.  1.
         12    1    3    3    0    0 -0.28563524426E+02  0.16266430242E+02  0.16160049375E+02  0.36628115926E+02  0.00000000000E+00 0. -1.
</event>
<event>
 7    1  0.2647566E-010  0.4778732E+02  0.7816164E-02  0.1312668E+00
        -11   -1    0    0    0    0  0.00000000000E+00  0.00000000000E+00  0.45593999997E+02  0.45594000000E+02  0.51100000000E-03 0. -1.
         11   -1    0    0    0    0 -0.00000000000E+00 -0.00000000000E+00 -0.45593999997E+02  0.45594000000E+02  0.51100000000E-03 0.  1.
    9900012    2    1    2    0    0  0.26237005611E+02 -0.74635535734E+01 -0.33756985886E+02  0.47787318076E+02  0.20000214434E+02 0.  0.
         12    1    1    2    0    0 -0.26237005611E+02  0.74635535734E+01  0.33756985886E+02  0.43400681924E+02  0.00000000000E+00 0. -1.
         11    1    3    3    0    0  0.39441079868E+01 -0.19022079803E+01  0.63915836999E+00  0.44252578111E+01  0.51100000000E-03 0. -1.
        -11    1    3    3    0    0  0.15634028112E+02 -0.98537277129E+01 -0.24277246263E+02  0.30510710763E+02  0.51100000000E-03 0.  1.
         12    1    3    3    0    0  0.66588695126E+01  0.42923821198E+01 -0.10118897992E+02  0.12851349502E+02  0.00000000000E+00 0. -1.
</event>
<event>
 7    1  0.2647566E-010  0.4778727E+02  0.7816164E-02  0.1312668E+00
        -11   -1    0    0    0    0  0.00000000000E+00  0.00000000000E+00  0.45593999997E+02  0.45594000000E+02  0.51100000000E-03 0.  1.
         11   -1    0    0    0    0 -0.00000000000E+00 -0.00000000000E+00 -0.45593999997E+02  0.45594000000E+02  0.51100000000E-03 0. -1.
    9900012    2    1    2    0    0 -0.31456389861E+02 -0.11236003712E+02  0.27710486129E+02  0.47787270928E+02  0.19999999471E+02 0.  0.
         12    1    1    2    0    0  0.31456389861E+02  0.11236003712E+02 -0.27710486129E+02  0.43400729072E+02  0.00000000000E+00 0. -1.
         11    1    3    3    0    0 -0.43866059964E+01  0.43450623519E+01  0.93973953517E+01  0.11244239355E+02  0.51100000000E-03 0. -1.
        -11    1    3    3    0    0 -0.67779699686E+01 -0.16424081541E+01  0.47247847715E+01  0.84238929740E+01  0.51100000000E-03 0.  1.
         12    1    3    3    0    0 -0.20291813896E+02 -0.13938657909E+02  0.13588306005E+02  0.28119138600E+02  0.00000000000E+00 0. -1.
</event>
<event>
 7    1  0.2647566E-010  0.4778727E+02  0.7816164E-02  0.1312668E+00
        -11   -1    0    0    0    0  0.00000000000E+00  0.00000000000E+00  0.45593999997E+02  0.45594000000E+02  0.51100000000E-03 0.  1.
         11   -1    0    0    0    0 -0.00000000000E+00 -0.00000000000E+00 -0.45593999997E+02  0.45594000000E+02  0.51100000000E-03 0. -1.
    9900012    2    1    2    0    0 -0.93811442085E+01 -0.34616496810E+02  0.24440039885E+02  0.47787271117E+02  0.20000000330E+02 0.  0.
         12    1    1    2    0    0  0.93811442085E+01  0.34616496810E+02 -0.24440039885E+02  0.43400728883E+02  0.00000000000E+00 0. -1.
         11    1    3    3    0    0  0.39019167753E+01 -0.13360343200E+02  0.65295689135E+01  0.15373971361E+02  0.51100000000E-03 0. -1.
        -11    1    3    3    0    0 -0.36934430067E+01 -0.15177221591E+02  0.11251706261E+02  0.19250726493E+02  0.51100000000E-03 0.  1.
        -12    1    3    3    0    0 -0.95896179771E+01 -0.60789320186E+01  0.66587647103E+01  0.13162573263E+02  0.00000000000E+00 0.  1.
</event>
<event>
 7    1  0.2647566E-010  0.4778727E+02  0.7816164E-02  0.1312668E+00
        -11   -1    0    0    0    0  0.00000000000E+00  0.00000000000E+00  0.45593999997E+02  0.45594000000E+02  0.51100000000E-03 0.  1.
         11   -1    0    0    0    0 -0.00000000000E+00 -0.00000000000E+00 -0.45593999997E+02  0.45594000000E+02  0.51100000000E-03 0. -1.
    9900012    2    1    2    0    0 -0.23493109653E+02  0.21757373742E+02  0.29296993136E+02  0.47787270512E+02  0.19999997570E+02 0.  0.
         12    1    1    2    0    0  0.23493109653E+02 -0.21757373742E+02 -0.29296993136E+02  0.43400729488E+02  0.00000000000E+00 0. -1.
         11    1    3    3    0    0 -0.98617937546E+01  0.46751894542E+01  0.11042766676E+02  0.15525948235E+02  0.51100000000E-03 0.  1.
        -11    1    3    3    0    0 -0.15658903300E+02  0.94518436201E+01  0.10026521153E+02  0.20858325126E+02  0.51100000000E-03 0. -1.
         12    1    3    3    0    0  0.20275874017E+01  0.76303406679E+01  0.82277053079E+01  0.11402997150E+02  0.00000000000E+00 0. -1.
</event>
<event>
 7    1  0.2647566E-010  0.4778726E+02  0.7816164E-02  0.1312668E+00
        -11   -1    0    0    0    0  0.00000000000E+00  0.00000000000E+00  0.45593999997E+02  0.45594000000E+02  0.51100000000E-03 0.  1.
         11   -1    0    0    0    0 -0.00000000000E+00 -0.00000000000E+00 -0.45593999997E+02  0.45594000000E+02  0.51100000000E-03 0. -1.
    9900012    2    1    2    0    0 -0.45273205561E+01 -0.29031104421E+02  0.31942482916E+02  0.47787264175E+02  0.19999968679E+02 0.  0.
         12    1    1    2    0    0  0.45273205561E+01  0.29031104421E+02 -0.31942482916E+02  0.43400735825E+02  0.00000000000E+00 0. -1.
         11    1    3    3    0    0 -0.41733636375E+01 -0.50022036397E+01  0.14222362655E+02  0.15643356579E+02  0.51100000000E-03 0. -1.
        -11    1    3    3    0    0 -0.43281260765E+01 -0.99868590751E+01  0.12665262554E+02  0.16699667821E+02  0.51100000000E-03 0.  1.
         12    1    3    3    0    0  0.39741691579E+01 -0.14042041706E+02  0.50548577072E+01  0.15444239775E+02  0.00000000000E+00 0. -1.
</event>
<event>
 7    1  0.2647566E-010  0.4778727E+02  0.7816164E-02  0.1312668E+00
        -11   -1    0    0    0    0  0.00000000000E+00  0.00000000000E+00  0.45593999997E+02  0.45594000000E+02  0.51100000000E-03 0.  1.
         11   -1    0    0    0    0 -0.00000000000E+00 -0.00000000000E+00 -0.45593999997E+02  0.45594000000E+02  0.51100000000E-03 0. -1.
    9900012    2    1    2    0    0 -0.25983358225E+02 -0.34758275291E+02  0.59250942084E+00  0.47787266443E+02  0.19999979021E+02 0.  0.
         12    1    1    2    0    0  0.25983358225E+02  0.34758275291E+02 -0.59250942084E+00  0.43400733557E+02  0.00000000000E+00 0. -1.
         11    1    3    3    0    0 -0.28951441011E+01 -0.12254744535E+01 -0.16135278588E+01  0.35337118466E+01  0.51100000000E-03 0. -1.
        -11    1    3    3    0    0 -0.15246959665E+02 -0.96332744496E+01  0.55719863555E+01  0.18876355259E+02  0.51100000000E-03 0.  1.
         12    1    3    3    0    0 -0.78412544588E+01 -0.23899526388E+02 -0.33659490759E+01  0.25377199338E+02  0.00000000000E+00 0. -1.
</event>
<event>
 7    1  0.2647566E-010  0.4778727E+02  0.7816164E-02  0.1312668E+00
        -11   -1    0    0    0    0  0.00000000000E+00  0.00000000000E+00  0.45593999997E+02  0.45594000000E+02  0.51100000000E-03 0.  1.
         11   -1    0    0    0    0 -0.00000000000E+00 -0.00000000000E+00 -0.45593999997E+02  0.45594000000E+02  0.51100000000E-03 0. -1.
    9900012    2    1    2    0    0 -0.45673058301E+01 -0.13141843012E+02  0.41110278613E+02  0.47787270421E+02  0.19999997159E+02 0.  0.
         12    1    1    2    0    0  0.45673058301E+01  0.13141843012E+02 -0.41110278613E+02  0.43400729579E+02  0.00000000000E+00 0. -1.
         11    1    3    3    0    0 -0.43196866955E+01  0.11573578694E+01  0.81371092274E+01  0.92850265064E+01  0.51100000000E-03 0. -1.
        -11    1    3    3    0    0 -0.74238598104E+00 -0.12425787842E+01  0.20126790653E+02  0.20178772045E+02  0.51100000000E-03 0.  1.
        -12    1    3    3    0    0  0.49476684643E+00 -0.13056622097E+02  0.12846378733E+02  0.18323471870E+02  0.00000000000E+00 0.  1.
</event>
<event>
 7    1  0.2647566E-010  0.4778727E+02  0.7816164E-02  0.1312668E+00
        -11   -1    0    0    0    0  0.00000000000E+00  0.00000000000E+00  0.45593999997E+02  0.45594000000E+02  0.51100000000E-03 0.  1.
         11   -1    0    0    0    0 -0.00000000000E+00 -0.00000000000E+00 -0.45593999997E+02  0.45594000000E+02  0.51100000000E-03 0. -1.
    9900012    2    1    2    0    0 -0.32604622552E+02  0.18426600613E+02  0.21932217663E+02  0.47787271970E+02  0.20000004220E+02 0.  0.
         12    1    1    2    0    0  0.32604622552E+02 -0.18426600613E+02 -0.21932217663E+02  0.43400728030E+02  0.00000000000E+00 0. -1.
         11    1    3    3    0    0 -0.16948023467E+02  0.13994313960E+02  0.53748062074E+01  0.22626640597E+02  0.51100000000E-03 0. -1.
        -11    1    3    3    0    0 -0.11232361021E+02  0.73681747263E+01  0.10136520835E+02  0.16828695368E+02  0.51100000000E-03 0.  1.
        -12    1    3    3    0    0 -0.44242380640E+01 -0.29358880733E+01  0.64208906208E+01  0.83319360049E+01  0.00000000000E+00 0.  1.
</event>
<event>
 7    1  0.2647566E-010  0.4778727E+02  0.7816164E-02  0.1312668E+00
        -11   -1    0    0    0    0  0.00000000000E+00  0.00000000000E+00  0.45593999997E+02  0.45594000000E+02  0.51100000000E-03 0.  1.
         11   -1    0    0    0    0 -0.00000000000E+00 -0.00000000000E+00 -0.45593999997E+02  0.45594000000E+02  0.51100000000E-03 0. -1.
    9900012    2    1    2    0    0 -0.19613056982E+02  0.24690686006E+02  0.29821487356E+02  0.47787273189E+02  0.20000009778E+02 0.  0.
         12    1    1    2    0    0  0.19613056982E+02 -0.24690686006E+02 -0.29821487356E+02  0.43400726811E+02  0.00000000000E+00 0. -1.
         11    1    3    3    0    0 -0.13772781758E+02  0.65973973084E+01  0.14421445699E+02  0.21004601042E+02  0.51100000000E-03 0. -1.
        -11    1    3    3    0    0 -0.31365529708E+00 -0.11276194321E+01  0.30751007929E+01  0.32903115927E+01  0.51100000000E-03 0.  1.
        -12    1    3    3    0    0 -0.55266199269E+01  0.19220908130E+02  0.12324940864E+02  0.23492360555E+02  0.00000000000E+00 0.  1.
</event>
<event>
 7    1  0.2647566E-010  0.4778727E+02  0.7816164E-02  0.1312668E+00
        -11   -1    0    0    0    0  0.00000000000E+00  0.00000000000E+00  0.45593999997E+02  0.45594000000E+02  0.51100000000E-03 0.  1.
         11   -1    0    0    0    0 -0.00000000000E+00 -0.00000000000E+00 -0.45593999997E+02  0.45594000000E+02  0.51100000000E-03 0. -1.
    9900012    2    1    2    0    0 -0.33178945771E+02  0.27788817264E+02 -0.32499715293E+01  0.47787272790E+02  0.20000007959E+02 0.  0.
         12    1    1    2    0    0  0.33178945771E+02 -0.27788817264E+02  0.32499715293E+01  0.43400727210E+02  0.00000000000E+00 0. -1.
         11    1    3    3    0    0  0.13809899598E+01  0.37877308647E+01 -0.33999771501E+01  0.52738869210E+01  0.51100000000E-03 0.  1.
        -11    1    3    3    0    0 -0.22982302244E+01  0.37154306997E+01 -0.50872275649E+00  0.43983049636E+01  0.51100000000E-03 0. -1.
        -12    1    3    3    0    0 -0.32261705506E+02  0.20285655700E+02  0.65872837736E+00  0.38115080905E+02  0.00000000000E+00 0.  1.
</event>
<event>
 7    1  0.2647566E-010  0.4778727E+02  0.7816164E-02  0.1312668E+00
        -11   -1    0    0    0    0  0.00000000000E+00  0.00000000000E+00  0.45593999997E+02  0.45594000000E+02  0.51100000000E-03 0. -1.
         11   -1    0    0    0    0 -0.00000000000E+00 -0.00000000000E+00 -0.45593999997E+02  0.45594000000E+02  0.51100000000E-03 0.  1.
    9900012    2    1    2    0    0 -0.15248223737E+02  0.38813386561E+02  0.12026480706E+02  0.47787267960E+02  0.19999985936E+02 0.  0.
         12    1    1    2    0    0  0.15248223737E+02 -0.38813386561E+02 -0.12026480706E+02  0.43400732040E+02  0.00000000000E+00 0. -1.
         11    1    3    3    0    0 -0.13043351532E+02  0.12885443572E+02  0.10569464446E+02  0.21163110692E+02  0.51100000000E-03 0. -1.
        -11    1    3    3    0    0 -0.32828185953E+01  0.90913799924E+01  0.12954605553E+01  0.97523487636E+01  0.51100000000E-03 0.  1.
        -12    1    3    3    0    0  0.10779463900E+01  0.16836562997E+02  0.16155570481E+00  0.16871808504E+02  0.00000000000E+00 0.  1.
</event>
<event>
 7    1  0.2647566E-010  0.4778728E+02  0.7816164E-02  0.1312668E+00
        -11   -1    0    0    0    0  0.00000000000E+00  0.00000000000E+00  0.45593999997E+02  0.45594000000E+02  0.51100000000E-03 0.  1.
         11   -1    0    0    0    0 -0.00000000000E+00 -0.00000000000E+00 -0.45593999997E+02  0.45594000000E+02  0.51100000000E-03 0. -1.
    9900012    2    1    2    0    0  0.10360341964E+02 -0.41240838757E+02  0.86878871839E+01  0.47787275920E+02  0.20000022229E+02 0.  0.
         12    1    1    2    0    0 -0.10360341964E+02  0.41240838757E+02 -0.86878871839E+01  0.43400724080E+02  0.00000000000E+00 0. -1.
         11    1    3    3    0    0 -0.26360924347E+01 -0.27588871600E+01 -0.86626485686E+00  0.39129089881E+01  0.51100000000E-03 0. -1.
        -11    1    3    3    0    0 -0.97667609780E+00 -0.83468520006E+01  0.62905660105E+01  0.10497383270E+02  0.51100000000E-03 0.  1.
         12    1    3    3    0    0  0.13973110496E+02 -0.30135099596E+02  0.32635860302E+01  0.33376983662E+02  0.00000000000E+00 0. -1.
</event>
<event>
 7    1  0.2647566E-010  0.4778727E+02  0.7816164E-02  0.1312668E+00
        -11   -1    0    0    0    0  0.00000000000E+00  0.00000000000E+00  0.45593999997E+02  0.45594000000E+02  0.51100000000E-03 0.  1.
         11   -1    0    0    0    0 -0.00000000000E+00 -0.00000000000E+00 -0.45593999997E+02  0.45594000000E+02  0.51100000000E-03 0. -1.
    9900012    2    1    2    0    0 -0.72151596244E+01  0.35942818514E+02  0.23230986649E+02  0.47787268764E+02  0.19999989601E+02 0.  0.
         12    1    1    2    0    0  0.72151596244E+01 -0.35942818514E+02 -0.23230986649E+02  0.43400731236E+02  0.00000000000E+00 0. -1.
         11    1    3    3    0    0 -0.29646956206E+01  0.13355825020E+01  0.58417700292E+00  0.33037045531E+01  0.51100000000E-03 0. -1.
        -11    1    3    3    0    0 -0.32836895084E+01  0.11772624840E+02  0.17006618564E+02  0.20942836189E+02  0.51100000000E-03 0.  1.
         12    1    3    3    0    0 -0.96677449541E+00  0.22834611173E+02  0.56401910821E+01  0.23540728022E+02  0.00000000000E+00 0. -1.
</event>
<event>
 7    1  0.2647566E-010  0.4778727E+02  0.7816164E-02  0.1312668E+00
        -11   -1    0    0    0    0  0.00000000000E+00  0.00000000000E+00  0.45593999997E+02  0.45594000000E+02  0.51100000000E-03 0. -1.
         11   -1    0    0    0    0 -0.00000000000E+00 -0.00000000000E+00 -0.45593999997E+02  0.45594000000E+02  0.51100000000E-03 0.  1.
    9900012    2    1    2    0    0 -0.39173624121E+01  0.42781918723E+02 -0.61631975299E+01  0.47787270724E+02  0.19999998539E+02 0.  0.
         12    1    1    2    0    0  0.39173624121E+01 -0.42781918723E+02  0.61631975299E+01  0.43400729276E+02  0.00000000000E+00 0. -1.
         11    1    3    3    0    0  0.15066452068E+01  0.30957949229E+01  0.37448229047E+01  0.50870054878E+01  0.51100000000E-03 0. -1.
        -11    1    3    3    0    0 -0.42518474825E+01  0.23727643636E+02 -0.11330522128E+02  0.26635690557E+02  0.51100000000E-03 0.  1.
        -12    1    3    3    0    0 -0.11721601365E+01  0.15958480165E+02  0.14225016936E+01  0.16064574679E+02  0.00000000000E+00 0.  1.
</event>
<event>
 7    1  0.2647566E-010  0.4778726E+02  0.7816164E-02  0.1312668E+00
        -11   -1    0    0    0    0  0.00000000000E+00  0.00000000000E+00  0.45593999997E+02  0.45594000000E+02  0.51100000000E-03 0.  1.
         11   -1    0    0    0    0 -0.00000000000E+00 -0.00000000000E+00 -0.45593999997E+02  0.45594000000E+02  0.51100000000E-03 0. -1.
    9900012    2    1    2    0    0  0.30083076328E+02  0.26838024359E+02  0.16073368426E+02  0.47787260313E+02  0.19999951072E+02 0.  0.
         12    1    1    2    0    0 -0.30083076328E+02 -0.26838024359E+02 -0.16073368426E+02  0.43400739687E+02  0.00000000000E+00 0. -1.
         11    1    3    3    0    0  0.61472568804E+01  0.37522522211E+01  0.82978494863E+01  0.10987377769E+02  0.51100000000E-03 0. -1.
        -11    1    3    3    0    0  0.16761897707E+01  0.57676522220E+01  0.60792723950E+01  0.85459333847E+01  0.51100000000E-03 0.  1.
         12    1    3    3    0    0  0.22259629677E+02  0.17318119916E+02  0.16962465445E+01  0.28253949159E+02  0.00000000000E+00 0. -1.
</event>
<event>
 7    1  0.2647566E-010  0.4778729E+02  0.7816164E-02  0.1312668E+00
        -11   -1    0    0    0    0  0.00000000000E+00  0.00000000000E+00  0.45593999997E+02  0.45594000000E+02  0.51100000000E-03 0.  1.
         11   -1    0    0    0    0 -0.00000000000E+00 -0.00000000000E+00 -0.45593999997E+02  0.45594000000E+02  0.51100000000E-03 0. -1.
    9900012    2    1    2    0    0  0.38507102722E+02  0.79356309641E+01  0.18380705897E+02  0.47787290926E+02  0.20000090649E+02 0.  0.
         12    1    1    2    0    0 -0.38507102722E+02 -0.79356309641E+01 -0.18380705897E+02  0.43400709074E+02  0.00000000000E+00 0. -1.
         11    1    3    3    0    0  0.31642758560E+01 -0.27929233207E+01  0.32519468471E+01  0.53280597712E+01  0.51100000000E-03 0. -1.
        -11    1    3    3    0    0  0.27136636141E+02  0.26307892236E+01  0.14579393176E+02  0.30917256971E+02  0.51100000000E-03 0.  1.
        -12    1    3    3    0    0  0.82061907249E+01  0.80977650612E+01  0.54936587447E+00  0.11541974184E+02  0.00000000000E+00 0.  1.
</event>
<event>
 7    1  0.2647566E-010  0.4778728E+02  0.7816164E-02  0.1312668E+00
        -11   -1    0    0    0    0  0.00000000000E+00  0.00000000000E+00  0.45593999997E+02  0.45594000000E+02  0.51100000000E-03 0.  1.
         11   -1    0    0    0    0 -0.00000000000E+00 -0.00000000000E+00 -0.45593999997E+02  0.45594000000E+02  0.51100000000E-03 0. -1.
    9900012    2    1    2    0    0  0.37730624500E+02  0.13770773216E+02  0.16443487807E+02  0.47787279828E+02  0.20000040049E+02 0.  0.
         12    1    1    2    0    0 -0.37730624500E+02 -0.13770773216E+02 -0.16443487807E+02  0.43400720172E+02  0.00000000000E+00 0. -1.
         11    1    3    3    0    0  0.19494798633E+01 -0.98147414275E+00  0.98189886114E+00  0.23933008305E+01  0.51100000000E-03 0. -1.
        -11    1    3    3    0    0  0.74510503921E+01  0.11452845681E+02  0.83010553648E+01  0.15987287029E+02  0.51100000000E-03 0.  1.
         12    1    3    3    0    0  0.28330094245E+02  0.32994016784E+01  0.71605335808E+01  0.29406691969E+02  0.00000000000E+00 0. -1.
</event>
<event>
 7    1  0.2647566E-010  0.4778727E+02  0.7816164E-02  0.1312668E+00
        -11   -1    0    0    0    0  0.00000000000E+00  0.00000000000E+00  0.45593999997E+02  0.45594000000E+02  0.51100000000E-03 0.  1.
         11   -1    0    0    0    0 -0.00000000000E+00 -0.00000000000E+00 -0.45593999997E+02  0.45594000000E+02  0.51100000000E-03 0. -1.
    9900012    2    1    2    0    0  0.39089032557E+02 -0.16596231280E+02  0.89574582041E+01  0.47787269402E+02  0.19999992512E+02 0.  0.
         12    1    1    2    0    0 -0.39089032557E+02  0.16596231280E+02 -0.89574582041E+01  0.43400730598E+02  0.00000000000E+00 0. -1.
         11    1    3    3    0    0  0.79492447644E+01  0.29325894470E+01  0.46847758126E+01  0.96818230652E+01  0.51100000000E-03 0. -1.
        -11    1    3    3    0    0  0.19636699889E+02 -0.77103351574E+01  0.46758616188E+01  0.21608168199E+02  0.51100000000E-03 0.  1.
        -12    1    3    3    0    0  0.11503087903E+02 -0.11818485570E+02 -0.40317922732E+00  0.16497278138E+02  0.00000000000E+00 0.  1.
</event>
<event>
 7    1  0.2647566E-010  0.4778727E+02  0.7816164E-02  0.1312668E+00
        -11   -1    0    0    0    0  0.00000000000E+00  0.00000000000E+00  0.45593999997E+02  0.45594000000E+02  0.51100000000E-03 0. -1.
         11   -1    0    0    0    0 -0.00000000000E+00 -0.00000000000E+00 -0.45593999997E+02  0.45594000000E+02  0.51100000000E-03 0.  1.
    9900012    2    1    2    0    0 -0.42837304401E+02 -0.55394830758E+01 -0.42311662150E+01  0.47787270875E+02  0.19999999226E+02 0.  0.
         12    1    1    2    0    0  0.42837304401E+02  0.55394830758E+01  0.42311662150E+01  0.43400729125E+02  0.00000000000E+00 0. -1.
         11    1    3    3    0    0 -0.99481973593E+01  0.64536866396E+00  0.41767311437E+01  0.10808710132E+02  0.51100000000E-03 0. -1.
        -11    1    3    3    0    0 -0.19304752756E+02  0.30781330272E+01 -0.51718476521E+01  0.20221186669E+02  0.51100000000E-03 0.  1.
         12    1    3    3    0    0 -0.13584354286E+02 -0.92629847670E+01 -0.32360497066E+01  0.16757374074E+02  0.00000000000E+00 0. -1.
</event>
<event>
 7    1  0.2647566E-010  0.4778727E+02  0.7816164E-02  0.1312668E+00
        -11   -1    0    0    0    0  0.00000000000E+00  0.00000000000E+00  0.45593999997E+02  0.45594000000E+02  0.51100000000E-03 0.  1.
         11   -1    0    0    0    0 -0.00000000000E+00 -0.00000000000E+00 -0.45593999997E+02  0.45594000000E+02  0.51100000000E-03 0. -1.
    9900012    2    1    2    0    0  0.24860378133E+02  0.27079194195E+02 -0.23071678737E+02  0.47787268221E+02  0.19999987127E+02 0.  0.
         12    1    1    2    0    0 -0.24860378133E+02 -0.27079194195E+02  0.23071678737E+02  0.43400731779E+02  0.00000000000E+00 0. -1.
         11    1    3    3    0    0  0.17950098860E+01 -0.21099375311E+01 -0.22690968580E+01  0.35808794574E+01  0.51100000000E-03 0. -1.
        -11    1    3    3    0    0  0.14346720004E+02  0.12155294786E+02 -0.51817117875E+01  0.19504607238E+02  0.51100000000E-03 0.  1.
        -12    1    3    3    0    0  0.87186482436E+01  0.17033836941E+02 -0.15620870092E+02  0.24701781525E+02  0.00000000000E+00 0.  1.
</event>
<event>
 7    1  0.2647566E-010  0.4778733E+02  0.7816164E-02  0.1312667E+00
        -11   -1    0    0    0    0  0.00000000000E+00  0.00000000000E+00  0.45593999997E+02  0.45594000000E+02  0.51100000000E-03 0. -1.
         11   -1    0    0    0    0 -0.00000000000E+00 -0.00000000000E+00 -0.45593999997E+02  0.45594000000E+02  0.51100000000E-03 0.  1.
    9900012    2    1    2    0    0  0.56536667327E+01  0.59828856676E+01 -0.42612900966E+02  0.47787329530E+02  0.20000266659E+02 0.  0.
         12    1    1    2    0    0 -0.56536667327E+01 -0.59828856676E+01  0.42612900966E+02  0.43400670470E+02  0.00000000000E+00 0. -1.
         11    1    3    3    0    0  0.67848896823E+01  0.10357992857E+02 -0.16900787093E+02  0.20951356726E+02  0.51100000000E-03 0. -1.
        -11    1    3    3    0    0  0.56063004760E+00  0.14766644866E+01 -0.46689262383E+01  0.49288656439E+01  0.51100000000E-03 0.  1.
        -12    1    3    3    0    0 -0.16918529971E+01 -0.58517716759E+01 -0.21043187635E+02  0.21907107161E+02  0.00000000000E+00 0.  1.
</event>
<event>
 7    1  0.2647566E-010  0.4778727E+02  0.7816164E-02  0.1312668E+00
        -11   -1    0    0    0    0  0.00000000000E+00  0.00000000000E+00  0.45593999997E+02  0.45594000000E+02  0.51100000000E-03 0.  1.
         11   -1    0    0    0    0 -0.00000000000E+00 -0.00000000000E+00 -0.45593999997E+02  0.45594000000E+02  0.51100000000E-03 0. -1.
    9900012    2    1    2    0    0 -0.29337536533E+01  0.43259634119E+02  0.19027314828E+01  0.47787271415E+02  0.20000001691E+02 0.  0.
         12    1    1    2    0    0  0.29337536533E+01 -0.43259634119E+02 -0.19027314828E+01  0.43400728585E+02  0.00000000000E+00 0. -1.
         11    1    3    3    0    0 -0.42273757324E+01  0.15001559036E+02 -0.47446445885E+01  0.16291995937E+02  0.51100000000E-03 0. -1.
        -11    1    3    3    0    0  0.14636465361E+01  0.23627760241E+02  0.34829631856E+00  0.23675612468E+02  0.51100000000E-03 0.  1.
         12    1    3    3    0    0 -0.17002445694E+00  0.46303148425E+01  0.62990797528E+01  0.78196630099E+01  0.00000000000E+00 0. -1.
</event>
<event>
 7    1  0.2647566E-010  0.4778727E+02  0.7816164E-02  0.1312668E+00
        -11   -1    0    0    0    0  0.00000000000E+00  0.00000000000E+00  0.45593999997E+02  0.45594000000E+02  0.51100000000E-03 0. -1.
         11   -1    0    0    0    0 -0.00000000000E+00 -0.00000000000E+00 -0.45593999997E+02  0.45594000000E+02  0.51100000000E-03 0.  1.
    9900012    2    1    2    0    0 -0.18841646525E+02  0.36720198353E+02  0.13425447338E+02  0.47787271353E+02  0.20000001406E+02 0.  0.
         12    1    1    2    0    0  0.18841646525E+02 -0.36720198353E+02 -0.13425447338E+02  0.43400728647E+02  0.00000000000E+00 0. -1.
         11    1    3    3    0    0 -0.58429835233E+01  0.28426831394E+01 -0.14019110239E+01  0.66473046165E+01  0.51100000000E-03 0. -1.
        -11    1    3    3    0    0 -0.62287532992E+01  0.20820540281E+02  0.23617419137E+01  0.21860239943E+02  0.51100000000E-03 0.  1.
         12    1    3    3    0    0 -0.67699097028E+01  0.13056974933E+02  0.12465616448E+02  0.19279726793E+02  0.00000000000E+00 0. -1.
</event>
<event>
 7    1  0.2647566E-010  0.4778728E+02  0.7816164E-02  0.1312668E+00
        -11   -1    0    0    0    0  0.00000000000E+00  0.00000000000E+00  0.45593999997E+02  0.45594000000E+02  0.51100000000E-03 0. -1.
         11   -1    0    0    0    0 -0.00000000000E+00 -0.00000000000E+00 -0.45593999997E+02  0.45594000000E+02  0.51100000000E-03 0.  1.
    9900012    2    1    2    0    0  0.42657628012E+01 -0.36862414141E+02  0.22507522675E+02  0.47787275519E+02  0.20000020400E+02 0.  0.
         12    1    1    2    0    0 -0.42657628012E+01  0.36862414141E+02 -0.22507522675E+02  0.43400724481E+02  0.00000000000E+00 0. -1.
         11    1    3    3    0    0  0.14262744068E+01 -0.50141951023E+01  0.76478759643E+01  0.92556154973E+01  0.51100000000E-03 0. -1.
        -11    1    3    3    0    0  0.87035439338E+01 -0.13702385085E+02  0.91071090899E+01  0.18613072564E+02  0.51100000000E-03 0.  1.
        -12    1    3    3    0    0 -0.58640555395E+01 -0.18145833953E+02  0.57525376204E+01  0.19918587458E+02  0.00000000000E+00 0.  1.
</event>
<event>
 7    1  0.2647566E-010  0.4778727E+02  0.7816164E-02  0.1312668E+00
        -11   -1    0    0    0    0  0.00000000000E+00  0.00000000000E+00  0.45593999997E+02  0.45594000000E+02  0.51100000000E-03 0.  1.
         11   -1    0    0    0    0 -0.00000000000E+00 -0.00000000000E+00 -0.45593999997E+02  0.45594000000E+02  0.51100000000E-03 0. -1.
    9900012    2    1    2    0    0 -0.39097058318E+02 -0.18276020152E+02  0.45858831719E+01  0.47787271825E+02  0.20000003557E+02 0.  0.
         12    1    1    2    0    0  0.39097058318E+02  0.18276020152E+02 -0.45858831719E+01  0.43400728175E+02  0.00000000000E+00 0. -1.
         11    1    3    3    0    0 -0.16848819743E+01  0.61065858114E+00  0.18627509334E+01  0.25848737824E+01  0.51100000000E-03 0. -1.
        -11    1    3    3    0    0 -0.30915392237E+02 -0.11207574220E+02 -0.39661518125E+01  0.33122523417E+02  0.51100000000E-03 0.  1.
        -12    1    3    3    0    0 -0.64967841068E+01 -0.76791045127E+01  0.66892840510E+01  0.12079874625E+02  0.00000000000E+00 0.  1.
</event>
<event>
 7    1  0.2647566E-010  0.4778727E+02  0.7816164E-02  0.1312668E+00
        -11   -1    0    0    0    0  0.00000000000E+00  0.00000000000E+00  0.45593999997E+02  0.45594000000E+02  0.51100000000E-03 0.  1.
         11   -1    0    0    0    0 -0.00000000000E+00 -0.00000000000E+00 -0.45593999997E+02  0.45594000000E+02  0.51100000000E-03 0. -1.
    9900012    2    1    2    0    0  0.16338608506E+01 -0.38197436830E+02  0.20540439731E+02  0.47787270213E+02  0.19999996211E+02 0.  0.
         12    1    1    2    0    0 -0.16338608506E+01  0.38197436830E+02 -0.20540439731E+02  0.43400729787E+02  0.00000000000E+00 0. -1.
         11    1    3    3    0    0  0.54043220584E+01 -0.48153861335E+01  0.83192097311E+01  0.11027415442E+02  0.51100000000E-03 0. -1.
        -11    1    3    3    0    0 -0.13169658205E+01 -0.71757228129E+00 -0.55608326078E+00  0.15995429989E+01  0.51100000000E-03 0.  1.
        -12    1    3    3    0    0 -0.24534953874E+01 -0.32664478415E+02  0.12777313261E+02  0.35160311772E+02  0.00000000000E+00 0.  1.
</event>
<event>
 7    1  0.2647566E-010  0.4778728E+02  0.7816164E-02  0.1312668E+00
        -11   -1    0    0    0    0  0.00000000000E+00  0.00000000000E+00  0.45593999997E+02  0.45594000000E+02  0.51100000000E-03 0.  1.
         11   -1    0    0    0    0 -0.00000000000E+00 -0.00000000000E+00 -0.45593999997E+02  0.45594000000E+02  0.51100000000E-03 0. -1.
    9900012    2    1    2    0    0  0.11065158641E+02  0.40466496413E+01  0.41770915759E+02  0.47787279817E+02  0.20000039998E+02 0.  0.
         12    1    1    2    0    0 -0.11065158641E+02 -0.40466496413E+01 -0.41770915759E+02  0.43400720183E+02  0.00000000000E+00 0. -1.
         11    1    3    3    0    0  0.97047977802E+01  0.37353277344E+01  0.16465027882E+02  0.19473903478E+02  0.51100000000E-03 0. -1.
        -11    1    3    3    0    0  0.57397185155E+01 -0.33321015719E+01  0.10201227467E+02  0.12170140165E+02  0.51100000000E-03 0.  1.
        -12    1    3    3    0    0 -0.43793576546E+01  0.36434234788E+01  0.15104660409E+02  0.16143236175E+02  0.00000000000E+00 0.  1.
</event>
<event>
 7    1  0.2647566E-010  0.4778727E+02  0.7816164E-02  0.1312668E+00
        -11   -1    0    0    0    0  0.00000000000E+00  0.00000000000E+00  0.45593999997E+02  0.45594000000E+02  0.51100000000E-03 0.  1.
         11   -1    0    0    0    0 -0.00000000000E+00 -0.00000000000E+00 -0.45593999997E+02  0.45594000000E+02  0.51100000000E-03 0. -1.
    9900012    2    1    2    0    0  0.20992181286E+02 -0.51695636348E-01  0.37986172731E+02  0.47787266523E+02  0.19999979383E+02 0.  0.
         12    1    1    2    0    0 -0.20992181286E+02  0.51695636348E-01 -0.37986172731E+02  0.43400733477E+02  0.00000000000E+00 0. -1.
         11    1    3    3    0    0  0.20829245484E+00 -0.11963084646E+01  0.73878776801E+00  0.14213892206E+01  0.51100000000E-03 0. -1.
        -11    1    3    3    0    0  0.15814085593E+02 -0.72048185771E+01  0.19402387965E+02  0.26047022342E+02  0.51100000000E-03 0.  1.
         12    1    3    3    0    0  0.49698032382E+01  0.83494314053E+01  0.17844996999E+02  0.20318854960E+02  0.00000000000E+00 0. -1.
</event>
<event>
 7    1  0.2647566E-010  0.4778727E+02  0.7816164E-02  0.1312668E+00
        -11   -1    0    0    0    0  0.00000000000E+00  0.00000000000E+00  0.45593999997E+02  0.45594000000E+02  0.51100000000E-03 0.  1.
         11   -1    0    0    0    0 -0.00000000000E+00 -0.00000000000E+00 -0.45593999997E+02  0.45594000000E+02  0.51100000000E-03 0. -1.
    9900012    2    1    2    0    0 -0.40561115945E+02  0.10699678619E+02 -0.11132659619E+02  0.47787270058E+02  0.19999995505E+02 0.  0.
         12    1    1    2    0    0  0.40561115945E+02 -0.10699678619E+02  0.11132659619E+02  0.43400729942E+02  0.00000000000E+00 0. -1.
         11    1    3    3    0    0 -0.37364242826E+00 -0.23322802503E+01 -0.14569171191E+01  0.27752022599E+01  0.51100000000E-03 0. -1.
        -11    1    3    3    0    0 -0.17339936801E+02 -0.59095641325E+00 -0.33702372366E+01  0.17674307257E+02  0.51100000000E-03 0.  1.
         12    1    3    3    0    0 -0.22847536716E+02  0.13622915282E+02 -0.63055052632E+01  0.27337760541E+02  0.00000000000E+00 0. -1.
</event>
<event>
 7    1  0.2647566E-010  0.4778727E+02  0.7816164E-02  0.1312668E+00
        -11   -1    0    0    0    0  0.00000000000E+00  0.00000000000E+00  0.45593999997E+02  0.45594000000E+02  0.51100000000E-03 0.  1.
         11   -1    0    0    0    0 -0.00000000000E+00 -0.00000000000E+00 -0.45593999997E+02  0.45594000000E+02  0.51100000000E-03 0. -1.
    9900012    2    1    2    0    0  0.91050517512E+01 -0.42434143589E+02  0.25426927246E+00  0.47787272329E+02  0.20000005858E+02 0.  0.
         12    1    1    2    0    0 -0.91050517512E+01  0.42434143589E+02 -0.25426927246E+00  0.43400727671E+02  0.00000000000E+00 0. -1.
         11    1    3    3    0    0 -0.62984184578E+00 -0.74614588428E+01 -0.36508134515E+01  0.83305766866E+01  0.51100000000E-03 0. -1.
        -11    1    3    3    0    0  0.27384992672E+01 -0.29116177726E+02 -0.66469785272E+00  0.29252230806E+02  0.51100000000E-03 0.  1.
         12    1    3    3    0    0  0.69963943298E+01 -0.58565070197E+01  0.45697805767E+01  0.10204464837E+02  0.00000000000E+00 0. -1.
</event>
<event>
 7    1  0.2647566E-010  0.4778728E+02  0.7816164E-02  0.1312668E+00
        -11   -1    0    0    0    0  0.00000000000E+00  0.00000000000E+00  0.45593999997E+02  0.45594000000E+02  0.51100000000E-03 0. -1.
         11   -1    0    0    0    0 -0.00000000000E+00 -0.00000000000E+00 -0.45593999997E+02  0.45594000000E+02  0.51100000000E-03 0.  1.
    9900012    2    1    2    0    0 -0.32189147571E+02 -0.16678498680E+02 -0.23860198349E+02  0.47787278752E+02  0.20000035143E+02 0.  0.
         12    1    1    2    0    0  0.32189147571E+02  0.16678498680E+02  0.23860198349E+02  0.43400721248E+02  0.00000000000E+00 0. -1.
         11    1    3    3    0    0 -0.10306064228E+02 -0.56532510715E+01 -0.88833638914E+01  0.14733918753E+02  0.51100000000E-03 0. -1.
        -11    1    3    3    0    0 -0.20453082213E+02 -0.84691767506E+01 -0.18229028736E+02  0.28676698132E+02  0.51100000000E-03 0.  1.
         12    1    3    3    0    0 -0.14300011307E+01 -0.25560708581E+01  0.32521942791E+01  0.43766618666E+01  0.00000000000E+00 0. -1.
</event>
<event>
 7    1  0.2647566E-010  0.4778727E+02  0.7816164E-02  0.1312668E+00
        -11   -1    0    0    0    0  0.00000000000E+00  0.00000000000E+00  0.45593999997E+02  0.45594000000E+02  0.51100000000E-03 0.  1.
         11   -1    0    0    0    0 -0.00000000000E+00 -0.00000000000E+00 -0.45593999997E+02  0.45594000000E+02  0.51100000000E-03 0. -1.
    9900012    2    1    2    0    0 -0.29594212971E+02 -0.15503179671E+02  0.27703017450E+02  0.47787271929E+02  0.20000004033E+02 0.  0.
         12    1    1    2    0    0  0.29594212971E+02  0.15503179671E+02 -0.27703017450E+02  0.43400728071E+02  0.00000000000E+00 0. -1.
         11    1    3    3    0    0  0.11306730999E+01 -0.18928589889E+01 -0.46980629007E+00  0.22543413721E+01  0.51100000000E-03 0. -1.
        -11    1    3    3    0    0 -0.31685045156E+01 -0.33089839523E+01 -0.30087912197E+00  0.45912225136E+01  0.51100000000E-03 0.  1.
        -12    1    3    3    0    0 -0.27556381555E+02 -0.10301336730E+02  0.28473702862E+02  0.40941708043E+02  0.00000000000E+00 0.  1.
</event>
<event>
 7    1  0.2647566E-010  0.4778727E+02  0.7816164E-02  0.1312668E+00
        -11   -1    0    0    0    0  0.00000000000E+00  0.00000000000E+00  0.45593999997E+02  0.45594000000E+02  0.51100000000E-03 0.  1.
         11   -1    0    0    0    0 -0.00000000000E+00 -0.00000000000E+00 -0.45593999997E+02  0.45594000000E+02  0.51100000000E-03 0. -1.
    9900012    2    1    2    0    0 -0.10175915011E+02  0.33801081266E+02  0.25249969999E+02  0.47787270443E+02  0.19999997259E+02 0.  0.
         12    1    1    2    0    0  0.10175915011E+02 -0.33801081266E+02 -0.25249969999E+02  0.43400729557E+02  0.00000000000E+00 0. -1.
         11    1    3    3    0    0 -0.77476778312E+00 -0.36101174477E+00 -0.15153688933E+00  0.86807735114E+00  0.51100000000E-03 0. -1.
        -11    1    3    3    0    0 -0.36729789281E+01  0.33423773335E+02  0.22474246411E+02  0.40444173253E+02  0.51100000000E-03 0.  1.
        -12    1    3    3    0    0 -0.57281682993E+01  0.73831967663E+00  0.29272604773E+01  0.64750198387E+01  0.00000000000E+00 0.  1.
</event>
<event>
 7    1  0.2647566E-010  0.4778727E+02  0.7816164E-02  0.1312668E+00
        -11   -1    0    0    0    0  0.00000000000E+00  0.00000000000E+00  0.45593999997E+02  0.45594000000E+02  0.51100000000E-03 0.  1.
         11   -1    0    0    0    0 -0.00000000000E+00 -0.00000000000E+00 -0.45593999997E+02  0.45594000000E+02  0.51100000000E-03 0. -1.
    9900012    2    1    2    0    0 -0.30117155955E+01 -0.33952021944E+02  0.26866578253E+02  0.47787271298E+02  0.20000001154E+02 0.  0.
         12    1    1    2    0    0  0.30117155955E+01  0.33952021944E+02 -0.26866578253E+02  0.43400728702E+02  0.00000000000E+00 0. -1.
         11    1    3    3    0    0 -0.83943438966E+01 -0.15700948257E+02  0.17855046115E+02  0.25214826148E+02  0.51100000000E-03 0. -1.
        -11    1    3    3    0    0 -0.17969124513E+01 -0.48860386905E+01  0.64145913680E+00  0.52453539946E+01  0.51100000000E-03 0.  1.
         12    1    3    3    0    0  0.71795407524E+01 -0.13365034996E+02  0.83700730005E+01  0.17327091155E+02  0.00000000000E+00 0. -1.
</event>
<event>
 7    1  0.2647566E-010  0.4778724E+02  0.7816164E-02  0.1312668E+00
        -11   -1    0    0    0    0  0.00000000000E+00  0.00000000000E+00  0.45593999997E+02  0.45594000000E+02  0.51100000000E-03 0.  1.
         11   -1    0    0    0    0 -0.00000000000E+00 -0.00000000000E+00 -0.45593999997E+02  0.45594000000E+02  0.51100000000E-03 0. -1.
    9900012    2    1    2    0    0  0.31482300022E+02 -0.21033763083E+02  0.21214880968E+02  0.47787244492E+02  0.19999878939E+02 0.  0.
         12    1    1    2    0    0 -0.31482300022E+02  0.21033763083E+02 -0.21214880968E+02  0.43400755508E+02  0.00000000000E+00 0. -1.
         11    1    3    3    0    0  0.25392240823E+02 -0.20271597424E+02  0.97803776415E+01  0.33931686419E+02  0.51100000000E-03 0.  1.
        -11    1    3    3    0    0  0.13091367905E+01  0.18572172830E+01  0.24097499510E+01  0.33120975619E+01  0.51100000000E-03 0. -1.
        -12    1    3    3    0    0  0.47809224085E+01 -0.26193829425E+01  0.90247533757E+01  0.10543460512E+02  0.00000000000E+00 0.  1.
</event>
<event>
 7    1  0.2647566E-010  0.4778728E+02  0.7816164E-02  0.1312668E+00
        -11   -1    0    0    0    0  0.00000000000E+00  0.00000000000E+00  0.45593999997E+02  0.45594000000E+02  0.51100000000E-03 0.  1.
         11   -1    0    0    0    0 -0.00000000000E+00 -0.00000000000E+00 -0.45593999997E+02  0.45594000000E+02  0.51100000000E-03 0. -1.
    9900012    2    1    2    0    0  0.12803956940E+02  0.41161563053E+02  0.50405210860E+01  0.47787280661E+02  0.20000043846E+02 0.  0.
         12    1    1    2    0    0 -0.12803956940E+02 -0.41161563053E+02 -0.50405210860E+01  0.43400719339E+02  0.00000000000E+00 0. -1.
         11    1    3    3    0    0  0.62718461245E+01  0.21588411222E+02 -0.65312302791E+01  0.23410521612E+02  0.51100000000E-03 0. -1.
        -11    1    3    3    0    0  0.19157201964E+01  0.10756427733E+02  0.32360278885E+01  0.11394849635E+02  0.51100000000E-03 0.  1.
         12    1    3    3    0    0  0.46163906190E+01  0.88167240980E+01  0.83357234766E+01  0.12981909414E+02  0.00000000000E+00 0. -1.
</event>
<event>
 7    1  0.2647566E-010  0.4778727E+02  0.7816164E-02  0.1312668E+00
        -11   -1    0    0    0    0  0.00000000000E+00  0.00000000000E+00  0.45593999997E+02  0.45594000000E+02  0.51100000000E-03 0. -1.
         11   -1    0    0    0    0 -0.00000000000E+00 -0.00000000000E+00 -0.45593999997E+02  0.45594000000E+02  0.51100000000E-03 0.  1.
    9900012    2    1    2    0    0  0.62350898883E+01  0.40029438223E+02 -0.15568909780E+02  0.47787271641E+02  0.20000002720E+02 0.  0.
         12    1    1    2    0    0 -0.62350898883E+01 -0.40029438223E+02  0.15568909780E+02  0.43400728359E+02  0.00000000000E+00 0. -1.
         11    1    3    3    0    0 -0.17248451836E+01  0.63270021411E+00 -0.29874791422E+01  0.35071972220E+01  0.51100000000E-03 0. -1.
        -11    1    3    3    0    0  0.76723143615E+00  0.11061429637E+01  0.22254788511E+01  0.26009522700E+01  0.51100000000E-03 0.  1.
        -12    1    3    3    0    0  0.71927036357E+01  0.38290595045E+02 -0.14806909489E+02  0.41679122149E+02  0.00000000000E+00 0.  1.
</event>
<event>
 7    1  0.2647566E-010  0.4778727E+02  0.7816164E-02  0.1312668E+00
        -11   -1    0    0    0    0  0.00000000000E+00  0.00000000000E+00  0.45593999997E+02  0.45594000000E+02  0.51100000000E-03 0. -1.
         11   -1    0    0    0    0 -0.00000000000E+00 -0.00000000000E+00 -0.45593999997E+02  0.45594000000E+02  0.51100000000E-03 0.  1.
    9900012    2    1    2    0    0 -0.11992642770E+02  0.37777405957E+02  0.17682410127E+02  0.47787268331E+02  0.19999987630E+02 0.  0.
         12    1    1    2    0    0  0.11992642770E+02 -0.37777405957E+02 -0.17682410127E+02  0.43400731669E+02  0.00000000000E+00 0. -1.
         11    1    3    3    0    0 -0.55117072985E+01  0.31983349235E+02  0.89294524997E+01  0.33660788283E+02  0.51100000000E-03 0.  1.
        -11    1    3    3    0    0 -0.40844240678E+01  0.38390211291E+01  0.88805503344E+00  0.56753189513E+01  0.51100000000E-03 0. -1.
        -12    1    3    3    0    0 -0.23965114039E+01  0.19550355931E+01  0.78649025938E+01  0.84511610971E+01  0.00000000000E+00 0.  1.
</event>
<event>
 7    1  0.2647566E-010  0.4778725E+02  0.7816164E-02  0.1312668E+00
        -11   -1    0    0    0    0  0.00000000000E+00  0.00000000000E+00  0.45593999997E+02  0.45594000000E+02  0.51100000000E-03 0.  1.
         11   -1    0    0    0    0 -0.00000000000E+00 -0.00000000000E+00 -0.45593999997E+02  0.45594000000E+02  0.51100000000E-03 0. -1.
    9900012    2    1    2    0    0 -0.56750681981E+01  0.42457627927E+02 -0.69834256065E+01  0.47787253446E+02  0.19999919761E+02 0.  0.
         12    1    1    2    0    0  0.56750681981E+01 -0.42457627927E+02  0.69834256065E+01  0.43400746554E+02  0.00000000000E+00 0. -1.
         11    1    3    3    0    0 -0.38291438446E+01  0.18864603826E+01 -0.36549330167E+01  0.56195739140E+01  0.51100000000E-03 0. -1.
        -11    1    3    3    0    0  0.25502189739E+01  0.71511628538E+01 -0.37263044355E+01  0.84574282134E+01  0.51100000000E-03 0.  1.
        -12    1    3    3    0    0 -0.43961433275E+01  0.33420004691E+02  0.39781184569E+00  0.33710251318E+02  0.00000000000E+00 0.  1.
</event>
<event>
 7    1  0.2647566E-010  0.4778727E+02  0.7816164E-02  0.1312668E+00
        -11   -1    0    0    0    0  0.00000000000E+00  0.00000000000E+00  0.45593999997E+02  0.45594000000E+02  0.51100000000E-03 0. -1.
         11   -1    0    0    0    0 -0.00000000000E+00 -0.00000000000E+00 -0.45593999997E+02  0.45594000000E+02  0.51100000000E-03 0.  1.
    9900012    2    1    2    0    0 -0.40593952799E+02  0.93491592814E+01 -0.12179811353E+02  0.47787267429E+02  0.19999983515E+02 0.  0.
         12    1    1    2    0    0  0.40593952799E+02 -0.93491592814E+01  0.12179811353E+02  0.43400732571E+02  0.00000000000E+00 0. -1.
         11    1    3    3    0    0 -0.53357225049E+01  0.26097026983E+01  0.34004997808E+01  0.68442590427E+01  0.51100000000E-03 0. -1.
        -11    1    3    3    0    0 -0.41764522743E+01 -0.23470256961E+01 -0.48791474586E+01  0.68379356096E+01  0.51100000000E-03 0.  1.
        -12    1    3    3    0    0 -0.31081778020E+02  0.90864822792E+01 -0.10701163675E+02  0.34105072777E+02  0.00000000000E+00 0.  1.
</event>
<event>
 7    1  0.2647566E-010  0.4778726E+02  0.7816164E-02  0.1312668E+00
        -11   -1    0    0    0    0  0.00000000000E+00  0.00000000000E+00  0.45593999997E+02  0.45594000000E+02  0.51100000000E-03 0. -1.
         11   -1    0    0    0    0 -0.00000000000E+00 -0.00000000000E+00 -0.45593999997E+02  0.45594000000E+02  0.51100000000E-03 0.  1.
    9900012    2    1    2    0    0  0.32978977178E+02 -0.24071823997E+02 -0.14715921573E+02  0.47787262748E+02  0.19999962174E+02 0.  0.
         12    1    1    2    0    0 -0.32978977178E+02  0.24071823997E+02  0.14715921573E+02  0.43400737252E+02  0.00000000000E+00 0. -1.
         11    1    3    3    0    0  0.40140168233E+00 -0.12534606988E+01 -0.22871420427E+01  0.26388076889E+01  0.51100000000E-03 0. -1.
        -11    1    3    3    0    0  0.29856358263E+02 -0.24782723022E+02 -0.80443806230E+01  0.39626980064E+02  0.51100000000E-03 0.  1.
        -12    1    3    3    0    0  0.27212172329E+01  0.19643597235E+01 -0.43843989068E+01  0.55214749955E+01  0.00000000000E+00 0.  1.
</event>
<event>
 7    1  0.2647566E-010  0.4778727E+02  0.7816164E-02  0.1312668E+00
        -11   -1    0    0    0    0  0.00000000000E+00  0.00000000000E+00  0.45593999997E+02  0.45594000000E+02  0.51100000000E-03 0.  1.
         11   -1    0    0    0    0 -0.00000000000E+00 -0.00000000000E+00 -0.45593999997E+02  0.45594000000E+02  0.51100000000E-03 0. -1.
    9900012    2    1    2    0    0  0.28529482972E+02  0.15133067140E+02  0.28994524167E+02  0.47787267848E+02  0.19999985426E+02 0.  0.
         12    1    1    2    0    0 -0.28529482972E+02 -0.15133067140E+02 -0.28994524167E+02  0.43400732152E+02  0.00000000000E+00 0. -1.
         11    1    3    3    0    0  0.25542051253E+02  0.72230487102E+01  0.28173131472E+02  0.38707804795E+02  0.51100000000E-03 0. -1.
        -11    1    3    3    0    0  0.29835261175E+01  0.50993503410E+01  0.16770358659E+01  0.61414372545E+01  0.51100000000E-03 0.  1.
         12    1    3    3    0    0  0.39056015962E-02  0.28106680885E+01 -0.85564317086E+00  0.29380257986E+01  0.00000000000E+00 0. -1.
</event>
<event>
 7    1  0.2647566E-010  0.4778728E+02  0.7816164E-02  0.1312668E+00
        -11   -1    0    0    0    0  0.00000000000E+00  0.00000000000E+00  0.45593999997E+02  0.45594000000E+02  0.51100000000E-03 0. -1.
         11   -1    0    0    0    0 -0.00000000000E+00 -0.00000000000E+00 -0.45593999997E+02  0.45594000000E+02  0.51100000000E-03 0.  1.
    9900012    2    1    2    0    0  0.37888930296E+02  0.97661872408E+01  0.18779599614E+02  0.47787276344E+02  0.20000024161E+02 0.  0.
         12    1    1    2    0    0 -0.37888930296E+02 -0.97661872408E+01 -0.18779599614E+02  0.43400723656E+02  0.00000000000E+00 0. -1.
         11    1    3    3    0    0  0.10092320023E+02  0.52640668587E+01  0.93692716874E+01  0.14742746540E+02  0.51100000000E-03 0. -1.
        -11    1    3    3    0    0  0.22011170645E+02  0.48416264811E+01  0.13201543750E+02  0.26119221615E+02  0.51100000000E-03 0.  1.
        -12    1    3    3    0    0  0.57854396288E+01 -0.33950609901E+00 -0.37912158228E+01  0.69253081884E+01  0.00000000000E+00 0.  1.
</event>
<event>
 7    1  0.2647566E-010  0.4778727E+02  0.7816164E-02  0.1312668E+00
        -11   -1    0    0    0    0  0.00000000000E+00  0.00000000000E+00  0.45593999997E+02  0.45594000000E+02  0.51100000000E-03 0. -1.
         11   -1    0    0    0    0 -0.00000000000E+00 -0.00000000000E+00 -0.45593999997E+02  0.45594000000E+02  0.51100000000E-03 0.  1.
    9900012    2    1    2    0    0  0.24256372182E+02 -0.15973849625E+02 -0.32250388944E+02  0.47787273620E+02  0.20000011745E+02 0.  0.
         12    1    1    2    0    0 -0.24256372182E+02  0.15973849625E+02  0.32250388944E+02  0.43400726380E+02  0.00000000000E+00 0. -1.
         11    1    3    3    0    0  0.51342829957E+01  0.24720464798E+01 -0.57788292571E+01  0.81158328914E+01  0.51100000000E-03 0. -1.
        -11    1    3    3    0    0  0.45376356895E+01  0.57427892094E+00 -0.97249620631E+00  0.46760756048E+01  0.51100000000E-03 0.  1.
        -12    1    3    3    0    0  0.14584453496E+02 -0.19020175026E+02 -0.25499063480E+02  0.34995365124E+02  0.00000000000E+00 0.  1.
</event>
<event>
 7    1  0.2647566E-010  0.4778727E+02  0.7816164E-02  0.1312668E+00
        -11   -1    0    0    0    0  0.00000000000E+00  0.00000000000E+00  0.45593999997E+02  0.45594000000E+02  0.51100000000E-03 0.  1.
         11   -1    0    0    0    0 -0.00000000000E+00 -0.00000000000E+00 -0.45593999997E+02  0.45594000000E+02  0.51100000000E-03 0. -1.
    9900012    2    1    2    0    0 -0.15649542771E+02 -0.13874900398E+02  0.38028967036E+02  0.47787269778E+02  0.19999994224E+02 0.  0.
         12    1    1    2    0    0  0.15649542771E+02  0.13874900398E+02 -0.38028967036E+02  0.43400730222E+02  0.00000000000E+00 0. -1.
         11    1    3    3    0    0  0.48539416845E+00 -0.60766054724E+00 -0.50767830604E+00  0.92876065969E+00  0.51100000000E-03 0. -1.
        -11    1    3    3    0    0  0.16768504986E+01  0.23993495420E+01  0.38546193038E+01  0.48401235581E+01  0.51100000000E-03 0.  1.
         12    1    3    3    0    0 -0.17811787438E+02 -0.15666589393E+02  0.34682026038E+02  0.42018385560E+02  0.00000000000E+00 0. -1.
</event>
<event>
 7    1  0.2647566E-010  0.4778727E+02  0.7816164E-02  0.1312668E+00
        -11   -1    0    0    0    0  0.00000000000E+00  0.00000000000E+00  0.45593999997E+02  0.45594000000E+02  0.51100000000E-03 0.  1.
         11   -1    0    0    0    0 -0.00000000000E+00 -0.00000000000E+00 -0.45593999997E+02  0.45594000000E+02  0.51100000000E-03 0. -1.
    9900012    2    1    2    0    0 -0.25321203665E+00  0.85432482327E+01  0.42550813810E+02  0.47787274630E+02  0.20000016349E+02 0.  0.
         12    1    1    2    0    0  0.25321203665E+00 -0.85432482327E+01 -0.42550813810E+02  0.43400725370E+02  0.00000000000E+00 0. -1.
         11    1    3    3    0    0  0.16011327091E+01  0.82367080162E+01  0.87797673168E+01  0.12144599594E+02  0.51100000000E-03 0. -1.
        -11    1    3    3    0    0 -0.15825552221E+01  0.55157836785E+01  0.22546178610E+02  0.23264963374E+02  0.51100000000E-03 0.  1.
         12    1    3    3    0    0 -0.27178952366E+00 -0.52092434620E+01  0.11224867884E+02  0.12377711663E+02  0.00000000000E+00 0. -1.
</event>
<event>
 7    1  0.2647566E-010  0.4778727E+02  0.7816164E-02  0.1312668E+00
        -11   -1    0    0    0    0  0.00000000000E+00  0.00000000000E+00  0.45593999997E+02  0.45594000000E+02  0.51100000000E-03 0.  1.
         11   -1    0    0    0    0 -0.00000000000E+00 -0.00000000000E+00 -0.45593999997E+02  0.45594000000E+02  0.51100000000E-03 0. -1.
    9900012    2    1    2    0    0  0.20046524281E+02  0.34502520285E+02  0.17068570732E+02  0.47787272487E+02  0.20000006579E+02 0.  0.
         12    1    1    2    0    0 -0.20046524281E+02 -0.34502520285E+02 -0.17068570732E+02  0.43400727513E+02  0.00000000000E+00 0. -1.
         11    1    3    3    0    0 -0.20166928342E+00  0.32844596317E+01  0.50590531922E+01  0.60350944512E+01  0.51100000000E-03 0. -1.
        -11    1    3    3    0    0 -0.20181273132E+00  0.13502755374E+01  0.46071124764E+01  0.48051491171E+01  0.51100000000E-03 0.  1.
        -12    1    3    3    0    0  0.20450006296E+02  0.29867785116E+02  0.74024050638E+01  0.36947028919E+02  0.00000000000E+00 0.  1.
</event>
<event>
 7    1  0.2647566E-010  0.4778727E+02  0.7816164E-02  0.1312668E+00
        -11   -1    0    0    0    0  0.00000000000E+00  0.00000000000E+00  0.45593999997E+02  0.45594000000E+02  0.51100000000E-03 0.  1.
         11   -1    0    0    0    0 -0.00000000000E+00 -0.00000000000E+00 -0.45593999997E+02  0.45594000000E+02  0.51100000000E-03 0. -1.
    9900012    2    1    2    0    0 -0.57761172760E+01  0.41851132738E+02  0.99369431858E+01  0.47787266341E+02  0.19999978556E+02 0.  0.
         12    1    1    2    0    0  0.57761172760E+01 -0.41851132738E+02 -0.99369431858E+01  0.43400733659E+02  0.00000000000E+00 0. -1.
         11    1    3    3    0    0 -0.37675490043E+01  0.18673886600E+01  0.47154780612E+00  0.42313028138E+01  0.51100000000E-03 0. -1.
        -11    1    3    3    0    0 -0.75557005686E+01  0.14184553643E+02  0.25130892760E+01  0.16266708060E+02  0.51100000000E-03 0.  1.
        -12    1    3    3    0    0  0.55471322969E+01  0.25799190435E+02  0.69523061036E+01  0.27289255468E+02  0.00000000000E+00 0.  1.
</event>
<event>
 7    1  0.2647566E-010  0.4778727E+02  0.7816164E-02  0.1312668E+00
        -11   -1    0    0    0    0  0.00000000000E+00  0.00000000000E+00  0.45593999997E+02  0.45594000000E+02  0.51100000000E-03 0. -1.
         11   -1    0    0    0    0 -0.00000000000E+00 -0.00000000000E+00 -0.45593999997E+02  0.45594000000E+02  0.51100000000E-03 0.  1.
    9900012    2    1    2    0    0 -0.23275263182E+02  0.35919148469E+02 -0.71902931962E+01  0.47787269370E+02  0.19999992367E+02 0.  0.
         12    1    1    2    0    0  0.23275263182E+02 -0.35919148469E+02  0.71902931962E+01  0.43400730630E+02  0.00000000000E+00 0. -1.
         11    1    3    3    0    0 -0.70304788815E+01  0.19160573114E+01 -0.16758957944E+01  0.74771342036E+01  0.51100000000E-03 0. -1.
        -11    1    3    3    0    0  0.93015024479E-01  0.62148510144E+01 -0.51515149084E+01  0.80728638685E+01  0.51100000000E-03 0.  1.
         12    1    3    3    0    0 -0.16337799325E+02  0.27788240144E+02 -0.36288249334E+00  0.32237271298E+02  0.00000000000E+00 0. -1.
</event>
<event>
 7    1  0.2647566E-010  0.4778727E+02  0.7816164E-02  0.1312668E+00
        -11   -1    0    0    0    0  0.00000000000E+00  0.00000000000E+00  0.45593999997E+02  0.45594000000E+02  0.51100000000E-03 0.  1.
         11   -1    0    0    0    0 -0.00000000000E+00 -0.00000000000E+00 -0.45593999997E+02  0.45594000000E+02  0.51100000000E-03 0. -1.
    9900012    2    1    2    0    0 -0.60928959774E+01 -0.34766050344E+01  0.42830050948E+02  0.47787269266E+02  0.19999991893E+02 0.  0.
         12    1    1    2    0    0  0.60928959774E+01  0.34766050344E+01 -0.42830050948E+02  0.43400730734E+02  0.00000000000E+00 0. -1.
         11    1    3    3    0    0  0.86566433462E+00 -0.18739935782E+01  0.14381655972E+02  0.14529048676E+02  0.51100000000E-03 0.  1.
        -11    1    3    3    0    0 -0.83658426275E+01 -0.64290902858E+01  0.25073714557E+02  0.27203155823E+02  0.51100000000E-03 0. -1.
         12    1    3    3    0    0  0.14072823155E+01  0.48264788296E+01  0.33746804197E+01  0.60550647679E+01  0.00000000000E+00 0. -1.
</event>
<event>
 7    1  0.2647566E-010  0.4778726E+02  0.7816164E-02  0.1312668E+00
        -11   -1    0    0    0    0  0.00000000000E+00  0.00000000000E+00  0.45593999997E+02  0.45594000000E+02  0.51100000000E-03 0.  1.
         11   -1    0    0    0    0 -0.00000000000E+00 -0.00000000000E+00 -0.45593999997E+02  0.45594000000E+02  0.51100000000E-03 0. -1.
    9900012    2    1    2    0    0 -0.27338742220E+02 -0.32125382000E+02  0.10206713915E+02  0.47787262636E+02  0.19999961664E+02 0.  0.
         12    1    1    2    0    0  0.27338742220E+02  0.32125382000E+02 -0.10206713915E+02  0.43400737364E+02  0.00000000000E+00 0. -1.
         11    1    3    3    0    0 -0.47467263008E+01 -0.94409622180E+01  0.25343649528E+01  0.10866746714E+02  0.51100000000E-03 0. -1.
        -11    1    3    3    0    0 -0.19140773001E+02 -0.25078983721E+02  0.84219888471E+01  0.32653552823E+02  0.51100000000E-03 0.  1.
         12    1    3    3    0    0 -0.34512429175E+01  0.23945639390E+01 -0.74963988509E+00  0.42669630993E+01  0.00000000000E+00 0. -1.
</event>
<event>
 7    1  0.2647566E-010  0.4778727E+02  0.7816164E-02  0.1312668E+00
        -11   -1    0    0    0    0  0.00000000000E+00  0.00000000000E+00  0.45593999997E+02  0.45594000000E+02  0.51100000000E-03 0.  1.
         11   -1    0    0    0    0 -0.00000000000E+00 -0.00000000000E+00 -0.45593999997E+02  0.45594000000E+02  0.51100000000E-03 0. -1.
    9900012    2    1    2    0    0 -0.21476625981E+02 -0.79871332330E+01  0.36858965333E+02  0.47787273206E+02  0.20000009856E+02 0.  0.
         12    1    1    2    0    0  0.21476625981E+02  0.79871332330E+01 -0.36858965333E+02  0.43400726794E+02  0.00000000000E+00 0. -1.
         11    1    3    3    0    0 -0.64203756079E+01 -0.25765475188E+01  0.35135444115E+01  0.77591761583E+01  0.51100000000E-03 0. -1.
        -11    1    3    3    0    0 -0.16982875137E+02 -0.78261266687E+01  0.30766931145E+02  0.36003754789E+02  0.51100000000E-03 0.  1.
         12    1    3    3    0    0  0.19266247645E+01  0.24155409545E+01  0.25784897766E+01  0.40243422586E+01  0.00000000000E+00 0. -1.
</event>
<event>
 7    1  0.2647566E-010  0.4778727E+02  0.7816164E-02  0.1312668E+00
        -11   -1    0    0    0    0  0.00000000000E+00  0.00000000000E+00  0.45593999997E+02  0.45594000000E+02  0.51100000000E-03 0. -1.
         11   -1    0    0    0    0 -0.00000000000E+00 -0.00000000000E+00 -0.45593999997E+02  0.45594000000E+02  0.51100000000E-03 0.  1.
    9900012    2    1    2    0    0  0.19196453664E+02 -0.38896490816E+02  0.14773919391E+01  0.47787268232E+02  0.19999987175E+02 0.  0.
         12    1    1    2    0    0 -0.19196453664E+02  0.38896490816E+02 -0.14773919391E+01  0.43400731768E+02  0.00000000000E+00 0. -1.
         11    1    3    3    0    0  0.22963398424E+00 -0.92494641215E+01  0.69224773675E+01  0.11555345580E+02  0.51100000000E-03 0. -1.
        -11    1    3    3    0    0  0.89650755744E+01 -0.11140970542E+02  0.69872224359E+00  0.14317193081E+02  0.51100000000E-03 0.  1.
        -12    1    3    3    0    0  0.10001744106E+02 -0.18506056152E+02 -0.61438076719E+01  0.21914729571E+02  0.00000000000E+00 0.  1.
</event>
<event>
 7    1  0.2647566E-010  0.4778727E+02  0.7816164E-02  0.1312668E+00
        -11   -1    0    0    0    0  0.00000000000E+00  0.00000000000E+00  0.45593999997E+02  0.45594000000E+02  0.51100000000E-03 0.  1.
         11   -1    0    0    0    0 -0.00000000000E+00 -0.00000000000E+00 -0.45593999997E+02  0.45594000000E+02  0.51100000000E-03 0. -1.
    9900012    2    1    2    0    0  0.40248839581E+00 -0.89984810731E+01  0.42455727330E+02  0.47787269112E+02  0.19999991189E+02 0.  0.
         12    1    1    2    0    0 -0.40248839581E+00  0.89984810731E+01 -0.42455727330E+02  0.43400730888E+02  0.00000000000E+00 0. -1.
         11    1    3    3    0    0 -0.26709040219E+01 -0.13420219885E+02  0.23900698172E+02  0.27540504778E+02  0.51100000000E-03 0. -1.
        -11    1    3    3    0    0  0.29178873991E+01 -0.67770882768E+00  0.71972107485E+01  0.77957167053E+01  0.51100000000E-03 0.  1.
         12    1    3    3    0    0  0.15550501860E+00  0.50994476395E+01  0.11357818409E+02  0.12451047629E+02  0.00000000000E+00 0. -1.
</event>
<event>
 7    1  0.2647566E-010  0.4778727E+02  0.7816164E-02  0.1312668E+00
        -11   -1    0    0    0    0  0.00000000000E+00  0.00000000000E+00  0.45593999997E+02  0.45594000000E+02  0.51100000000E-03 0. -1.
         11   -1    0    0    0    0 -0.00000000000E+00 -0.00000000000E+00 -0.45593999997E+02  0.45594000000E+02  0.51100000000E-03 0.  1.
    9900012    2    1    2    0    0 -0.58276069557E+01 -0.33971876068E+02 -0.26373735489E+02  0.47787270858E+02  0.19999999151E+02 0.  0.
         12    1    1    2    0    0  0.58276069557E+01  0.33971876068E+02  0.26373735489E+02  0.43400729142E+02  0.00000000000E+00 0. -1.
         11    1    3    3    0    0  0.51339125751E+01 -0.22880059090E+02 -0.12567242339E+02  0.26604318119E+02  0.51100000000E-03 0. -1.
        -11    1    3    3    0    0 -0.34703228251E+01 -0.55413078995E+01 -0.40657413141E+01  0.76993172711E+01  0.51100000000E-03 0.  1.
        -12    1    3    3    0    0 -0.74911967057E+01 -0.55505090781E+01 -0.97407518364E+01  0.13483635468E+02  0.00000000000E+00 0.  1.
</event>
<event>
 7    1  0.2647566E-010  0.4778727E+02  0.7816164E-02  0.1312668E+00
        -11   -1    0    0    0    0  0.00000000000E+00  0.00000000000E+00  0.45593999997E+02  0.45594000000E+02  0.51100000000E-03 0.  1.
         11   -1    0    0    0    0 -0.00000000000E+00 -0.00000000000E+00 -0.45593999997E+02  0.45594000000E+02  0.51100000000E-03 0. -1.
    9900012    2    1    2    0    0 -0.16260874562E+02  0.34102363039E+02  0.21359683810E+02  0.47787270757E+02  0.19999998691E+02 0.  0.
         12    1    1    2    0    0  0.16260874562E+02 -0.34102363039E+02 -0.21359683810E+02  0.43400729243E+02  0.00000000000E+00 0. -1.
         11    1    3    3    0    0  0.20315543795E+01  0.86352965684E+01  0.65500153798E-01  0.88712936234E+01  0.51100000000E-03 0. -1.
        -11    1    3    3    0    0 -0.88435705362E+01  0.10838920898E+02  0.44286159349E+01  0.14673226824E+02  0.51100000000E-03 0.  1.
         12    1    3    3    0    0 -0.94488584057E+01  0.14628145572E+02  0.16865567721E+02  0.24242750310E+02  0.00000000000E+00 0. -1.
</event>
<event>
 7    1  0.2647566E-010  0.4778727E+02  0.7816164E-02  0.1312668E+00
        -11   -1    0    0    0    0  0.00000000000E+00  0.00000000000E+00  0.45593999997E+02  0.45594000000E+02  0.51100000000E-03 0. -1.
         11   -1    0    0    0    0 -0.00000000000E+00 -0.00000000000E+00 -0.45593999997E+02  0.45594000000E+02  0.51100000000E-03 0.  1.
    9900012    2    1    2    0    0  0.26231289109E+02 -0.34118844166E+02  0.56077871260E+01  0.47787270375E+02  0.19999996948E+02 0.  0.
         12    1    1    2    0    0 -0.26231289109E+02  0.34118844166E+02 -0.56077871260E+01  0.43400729625E+02  0.00000000000E+00 0. -1.
         11    1    3    3    0    0  0.16674107094E+02 -0.12025030416E+02  0.27976654971E+01  0.20747388665E+02  0.51100000000E-03 0. -1.
        -11    1    3    3    0    0  0.12313683797E+02 -0.19087899530E+02  0.32146160135E+01  0.22941413938E+02  0.51100000000E-03 0.  1.
        -12    1    3    3    0    0 -0.27565017822E+01 -0.30059142203E+01 -0.40449438461E+00  0.40984677725E+01  0.00000000000E+00 0.  1.
</event>
<event>
 7    1  0.2647566E-010  0.4778727E+02  0.7816164E-02  0.1312668E+00
        -11   -1    0    0    0    0  0.00000000000E+00  0.00000000000E+00  0.45593999997E+02  0.45594000000E+02  0.51100000000E-03 0.  1.
         11   -1    0    0    0    0 -0.00000000000E+00 -0.00000000000E+00 -0.45593999997E+02  0.45594000000E+02  0.51100000000E-03 0. -1.
    9900012    2    1    2    0    0  0.41159538801E+01  0.16925025857E+02  0.39752051522E+02  0.47787272163E+02  0.20000005100E+02 0.  0.
         12    1    1    2    0    0 -0.41159538801E+01 -0.16925025857E+02 -0.39752051522E+02  0.43400727837E+02  0.00000000000E+00 0. -1.
         11    1    3    3    0    0 -0.43721472921E+01  0.15074780887E+02  0.30846599543E+02  0.34610365418E+02  0.51100000000E-03 0. -1.
        -11    1    3    3    0    0  0.32582210534E+01  0.27148590580E+01  0.51957930409E+01  0.67069165585E+01  0.51100000000E-03 0.  1.
         12    1    3    3    0    0  0.52298801188E+01 -0.86461408792E+00  0.37096589377E+01  0.64699901864E+01  0.00000000000E+00 0. -1.
</event>
<event>
 7    1  0.2647566E-010  0.4778727E+02  0.7816164E-02  0.1312668E+00
        -11   -1    0    0    0    0  0.00000000000E+00  0.00000000000E+00  0.45593999997E+02  0.45594000000E+02  0.51100000000E-03 0.  1.
         11   -1    0    0    0    0 -0.00000000000E+00 -0.00000000000E+00 -0.45593999997E+02  0.45594000000E+02  0.51100000000E-03 0. -1.
    9900012    2    1    2    0    0  0.19857572033E+02  0.30683296464E+02  0.23405884064E+02  0.47787271230E+02  0.20000000848E+02 0.  0.
         12    1    1    2    0    0 -0.19857572033E+02 -0.30683296464E+02 -0.23405884064E+02  0.43400728770E+02  0.00000000000E+00 0. -1.
         11    1    3    3    0    0  0.85973132102E+01  0.53223640365E+01  0.93849850135E+01  0.13795626022E+02  0.51100000000E-03 0. -1.
        -11    1    3    3    0    0 -0.24437926781E+01  0.73838181806E+00  0.24207278045E+01  0.35181321361E+01  0.51100000000E-03 0.  1.
        -12    1    3    3    0    0  0.13704051501E+02  0.24622550609E+02  0.11600171246E+02  0.30473513072E+02  0.00000000000E+00 0.  1.
</event>
<event>
 7    1  0.2647566E-010  0.4778728E+02  0.7816164E-02  0.1312668E+00
        -11   -1    0    0    0    0  0.00000000000E+00  0.00000000000E+00  0.45593999997E+02  0.45594000000E+02  0.51100000000E-03 0.  1.
         11   -1    0    0    0    0 -0.00000000000E+00 -0.00000000000E+00 -0.45593999997E+02  0.45594000000E+02  0.51100000000E-03 0. -1.
    9900012    2    1    2    0    0 -0.13847282625E+02 -0.41081500563E+02  0.20459126797E+01  0.47787277849E+02  0.20000031023E+02 0.  0.
         12    1    1    2    0    0  0.13847282625E+02  0.41081500563E+02 -0.20459126797E+01  0.43400722151E+02  0.00000000000E+00 0. -1.
         11    1    3    3    0    0 -0.13182494256E+01 -0.65736096560E+01  0.38601585050E+01  0.77363395351E+01  0.51100000000E-03 0. -1.
        -11    1    3    3    0    0 -0.12629929090E+01 -0.24279460951E+02  0.19037604208E+01  0.24386711118E+02  0.51100000000E-03 0.  1.
         12    1    3    3    0    0 -0.11266040290E+02 -0.10228429956E+02 -0.37180062460E+01  0.15664227195E+02  0.00000000000E+00 0. -1.
</event>
<event>
 7    1  0.2647566E-010  0.4778727E+02  0.7816164E-02  0.1312668E+00
        -11   -1    0    0    0    0  0.00000000000E+00  0.00000000000E+00  0.45593999997E+02  0.45594000000E+02  0.51100000000E-03 0.  1.
         11   -1    0    0    0    0 -0.00000000000E+00 -0.00000000000E+00 -0.45593999997E+02  0.45594000000E+02  0.51100000000E-03 0. -1.
    9900012    2    1    2    0    0  0.23273191601E+02 -0.19547618371E+02  0.30981808383E+02  0.47787270952E+02  0.19999999577E+02 0.  0.
         12    1    1    2    0    0 -0.23273191601E+02  0.19547618371E+02 -0.30981808383E+02  0.43400729048E+02  0.00000000000E+00 0. -1.
         11    1    3    3    0    0  0.26670915994E+01 -0.88382775826E+01  0.11392097650E+02  0.14663165325E+02  0.51100000000E-03 0. -1.
        -11    1    3    3    0    0  0.34075126407E+01 -0.69724899207E+01  0.11202292157E+02  0.13627843114E+02  0.51100000000E-03 0.  1.
         12    1    3    3    0    0  0.17198587361E+02 -0.37368508679E+01  0.83874185752E+01  0.19496262513E+02  0.00000000000E+00 0. -1.
</event>
<event>
 7    1  0.2647566E-010  0.4778721E+02  0.7816164E-02  0.1312668E+00
        -11   -1    0    0    0    0  0.00000000000E+00  0.00000000000E+00  0.45593999997E+02  0.45594000000E+02  0.51100000000E-03 0.  1.
         11   -1    0    0    0    0 -0.00000000000E+00 -0.00000000000E+00 -0.45593999997E+02  0.45594000000E+02  0.51100000000E-03 0. -1.
    9900012    2    1    2    0    0 -0.29070694599E+02 -0.18644418120E+02 -0.26285144510E+02  0.47787211604E+02  0.19999728984E+02 0.  0.
         12    1    1    2    0    0  0.29070694599E+02  0.18644418120E+02  0.26285144510E+02  0.43400788396E+02  0.00000000000E+00 0. -1.
         11    1    3    3    0    0 -0.13609513697E+01 -0.59254395657E+01 -0.82539060399E+00  0.61354944860E+01  0.51100000000E-03 0. -1.
        -11    1    3    3    0    0  0.56537641651E-01  0.11729898020E+01 -0.33122396863E+01  0.35142614560E+01  0.51100000000E-03 0.  1.
        -12    1    3    3    0    0 -0.27766280871E+02 -0.13891968357E+02 -0.22147514220E+02  0.38137455662E+02  0.00000000000E+00 0.  1.
</event>
<event>
 7    1  0.2647566E-010  0.4778727E+02  0.7816164E-02  0.1312668E+00
        -11   -1    0    0    0    0  0.00000000000E+00  0.00000000000E+00  0.45593999997E+02  0.45594000000E+02  0.51100000000E-03 0. -1.
         11   -1    0    0    0    0 -0.00000000000E+00 -0.00000000000E+00 -0.45593999997E+02  0.45594000000E+02  0.51100000000E-03 0.  1.
    9900012    2    1    2    0    0  0.82667731049E+01  0.28240211556E+02 -0.31902574087E+02  0.47787270517E+02  0.19999997597E+02 0.  0.
         12    1    1    2    0    0 -0.82667731049E+01 -0.28240211556E+02  0.31902574087E+02  0.43400729483E+02  0.00000000000E+00 0. -1.
         11    1    3    3    0    0  0.20139787205E+01  0.49020542752E+01 -0.11790960433E+02  0.12927219137E+02  0.51100000000E-03 0. -1.
        -11    1    3    3    0    0  0.39332730536E+01  0.19113927182E+02 -0.22243581226E+02  0.29590365919E+02  0.51100000000E-03 0.  1.
         12    1    3    3    0    0  0.23195213307E+01  0.42242300987E+01  0.21319675726E+01  0.52696854613E+01  0.00000000000E+00 0. -1.
</event>
<event>
 7    1  0.2647566E-010  0.4778726E+02  0.7816164E-02  0.1312668E+00
        -11   -1    0    0    0    0  0.00000000000E+00  0.00000000000E+00  0.45593999997E+02  0.45594000000E+02  0.51100000000E-03 0. -1.
         11   -1    0    0    0    0 -0.00000000000E+00 -0.00000000000E+00 -0.45593999997E+02  0.45594000000E+02  0.51100000000E-03 0.  1.
    9900012    2    1    2    0    0  0.36269996144E+02 -0.24807698513E+01 -0.23705632986E+02  0.47787264124E+02  0.19999968447E+02 0.  0.
         12    1    1    2    0    0 -0.36269996144E+02  0.24807698513E+01  0.23705632986E+02  0.43400735876E+02  0.00000000000E+00 0. -1.
         11    1    3    3    0    0  0.14153995275E+02 -0.73750806704E+01 -0.10998333875E+02  0.19382743496E+02  0.51100000000E-03 0. -1.
        -11    1    3    3    0    0  0.56609984478E+01 -0.32848338010E+01 -0.10120714491E+01  0.66227883407E+01  0.51100000000E-03 0.  1.
         12    1    3    3    0    0  0.16455002421E+02  0.81791446201E+01 -0.11695227662E+02  0.21781732288E+02  0.00000000000E+00 0. -1.
</event>
<event>
 7    1  0.2647566E-010  0.4778727E+02  0.7816164E-02  0.1312668E+00
        -11   -1    0    0    0    0  0.00000000000E+00  0.00000000000E+00  0.45593999997E+02  0.45594000000E+02  0.51100000000E-03 0. -1.
         11   -1    0    0    0    0 -0.00000000000E+00 -0.00000000000E+00 -0.45593999997E+02  0.45594000000E+02  0.51100000000E-03 0.  1.
    9900012    2    1    2    0    0 -0.38919099653E+02 -0.18422563425E+02  0.54347201300E+01  0.47787270238E+02  0.19999996323E+02 0.  0.
         12    1    1    2    0    0  0.38919099653E+02  0.18422563425E+02 -0.54347201300E+01  0.43400729762E+02  0.00000000000E+00 0. -1.
         11    1    3    3    0    0 -0.16394117556E+02 -0.71807936368E+01  0.24310124043E+01  0.18062134682E+02  0.51100000000E-03 0.  1.
        -11    1    3    3    0    0 -0.20730782231E+02 -0.12046263975E+02 -0.22825585647E+01  0.24085013629E+02  0.51100000000E-03 0. -1.
         12    1    3    3    0    0 -0.17941998664E+01  0.80449418651E+00  0.52862662904E+01  0.56401219268E+01  0.00000000000E+00 0. -1.
</event>
<event>
 7    1  0.2647566E-010  0.4778727E+02  0.7816164E-02  0.1312668E+00
        -11   -1    0    0    0    0  0.00000000000E+00  0.00000000000E+00  0.45593999997E+02  0.45594000000E+02  0.51100000000E-03 0.  1.
         11   -1    0    0    0    0 -0.00000000000E+00 -0.00000000000E+00 -0.45593999997E+02  0.45594000000E+02  0.51100000000E-03 0. -1.
    9900012    2    1    2    0    0 -0.80090395988E+01 -0.10254011443E+02  0.41404510348E+02  0.47787274855E+02  0.20000017374E+02 0.  0.
         12    1    1    2    0    0  0.80090395988E+01  0.10254011443E+02 -0.41404510348E+02  0.43400725145E+02  0.00000000000E+00 0. -1.
         11    1    3    3    0    0 -0.66931458723E+01  0.15453239494E+01  0.10982957707E+02  0.12954211208E+02  0.51100000000E-03 0. -1.
        -11    1    3    3    0    0 -0.31685749282E+01 -0.44957428240E+01  0.24877638802E+02  0.25478392477E+02  0.51100000000E-03 0.  1.
        -12    1    3    3    0    0  0.18526812017E+01 -0.73035925680E+01  0.55439138396E+01  0.93546711698E+01  0.00000000000E+00 0.  1.
</event>
<event>
 7    1  0.2647566E-010  0.4778727E+02  0.7816164E-02  0.1312668E+00
        -11   -1    0    0    0    0  0.00000000000E+00  0.00000000000E+00  0.45593999997E+02  0.45594000000E+02  0.51100000000E-03 0. -1.
         11   -1    0    0    0    0 -0.00000000000E+00 -0.00000000000E+00 -0.45593999997E+02  0.45594000000E+02  0.51100000000E-03 0.  1.
    9900012    2    1    2    0    0 -0.86450410380E+00  0.34792700363E+02 -0.25929594502E+02  0.47787271469E+02  0.20000001938E+02 0.  0.
         12    1    1    2    0    0  0.86450410380E+00 -0.34792700363E+02  0.25929594502E+02  0.43400728531E+02  0.00000000000E+00 0. -1.
         11    1    3    3    0    0  0.47591885022E+01  0.63106311918E+01 -0.10721535877E+02  0.13320107847E+02  0.51100000000E-03 0.  1.
        -11    1    3    3    0    0  0.22947650702E+01  0.13621674862E+01 -0.10739986104E+01  0.28766161134E+01  0.51100000000E-03 0. -1.
        -12    1    3    3    0    0 -0.79184576762E+01  0.27119901685E+02 -0.14134060015E+02  0.31590547509E+02  0.00000000000E+00 0.  1.
</event>
<event>
 7    1  0.2647566E-010  0.4778727E+02  0.7816164E-02  0.1312668E+00
        -11   -1    0    0    0    0  0.00000000000E+00  0.00000000000E+00  0.45593999997E+02  0.45594000000E+02  0.51100000000E-03 0.  1.
         11   -1    0    0    0    0 -0.00000000000E+00 -0.00000000000E+00 -0.45593999997E+02  0.45594000000E+02  0.51100000000E-03 0. -1.
    9900012    2    1    2    0    0 -0.17481910842E+02 -0.19744261127E+02  0.34469848359E+02  0.47787268439E+02  0.19999988121E+02 0.  0.
         12    1    1    2    0    0  0.17481910842E+02  0.19744261127E+02 -0.34469848359E+02  0.43400731561E+02  0.00000000000E+00 0. -1.
         11    1    3    3    0    0  0.10790621070E+01 -0.39644025445E+01  0.11641179803E+01  0.42703669045E+01  0.51100000000E-03 0. -1.
        -11    1    3    3    0    0 -0.61429442750E+01 -0.11362866290E+02  0.24405699780E+02  0.27613197510E+02  0.51100000000E-03 0.  1.
        -12    1    3    3    0    0 -0.12418028674E+02 -0.44169922929E+01  0.89000305983E+01  0.15903704025E+02  0.00000000000E+00 0.  1.
</event>
<event>
 7    1  0.2647566E-010  0.4778725E+02  0.7816164E-02  0.1312668E+00
        -11   -1    0    0    0    0  0.00000000000E+00  0.00000000000E+00  0.45593999997E+02  0.45594000000E+02  0.51100000000E-03 0. -1.
         11   -1    0    0    0    0 -0.00000000000E+00 -0.00000000000E+00 -0.45593999997E+02  0.45594000000E+02  0.51100000000E-03 0.  1.
    9900012    2    1    2    0    0  0.25857117881E+02  0.26578764813E+02 -0.22552248856E+02  0.47787248709E+02  0.19999898165E+02 0.  0.
         12    1    1    2    0    0 -0.25857117881E+02 -0.26578764813E+02  0.22552248856E+02  0.43400751291E+02  0.00000000000E+00 0. -1.
         11    1    3    3    0    0  0.45802115480E+01 -0.24804631117E-01 -0.29865393115E+01  0.54679402351E+01  0.51100000000E-03 0. -1.
        -11    1    3    3    0    0  0.49234193468E+01  0.10883249338E+02 -0.15008964751E+02  0.19182132243E+02  0.51100000000E-03 0.  1.
         12    1    3    3    0    0  0.16353486986E+02  0.15720320106E+02 -0.45567447938E+01  0.23137176231E+02  0.00000000000E+00 0. -1.
</event>
<event>
 7    1  0.2647566E-010  0.4778727E+02  0.7816164E-02  0.1312668E+00
        -11   -1    0    0    0    0  0.00000000000E+00  0.00000000000E+00  0.45593999997E+02  0.45594000000E+02  0.51100000000E-03 0.  1.
         11   -1    0    0    0    0 -0.00000000000E+00 -0.00000000000E+00 -0.45593999997E+02  0.45594000000E+02  0.51100000000E-03 0. -1.
    9900012    2    1    2    0    0  0.35356571113E+02  0.25072615099E+02 -0.22136630442E+01  0.47787268983E+02  0.19999990600E+02 0.  0.
         12    1    1    2    0    0 -0.35356571113E+02 -0.25072615099E+02  0.22136630442E+01  0.43400731017E+02  0.00000000000E+00 0. -1.
         11    1    3    3    0    0  0.11284559208E+02  0.99008518299E+01  0.21273507509E+01  0.15162248018E+02  0.51100000000E-03 0. -1.
        -11    1    3    3    0    0  0.73676562595E+00  0.12765398152E+01  0.39602988720E+01  0.42256768575E+01  0.51100000000E-03 0.  1.
         12    1    3    3    0    0  0.23335246279E+02  0.13895223454E+02 -0.83013126671E+01  0.28399344107E+02  0.00000000000E+00 0. -1.
</event>
<event>
 7    1  0.2647566E-010  0.4778728E+02  0.7816164E-02  0.1312668E+00
        -11   -1    0    0    0    0  0.00000000000E+00  0.00000000000E+00  0.45593999997E+02  0.45594000000E+02  0.51100000000E-03 0.  1.
         11   -1    0    0    0    0 -0.00000000000E+00 -0.00000000000E+00 -0.45593999997E+02  0.45594000000E+02  0.51100000000E-03 0. -1.
    9900012    2    1    2    0    0 -0.24586548736E+02 -0.23471870647E+02 -0.26985100113E+02  0.47787277442E+02  0.20000029171E+02 0.  0.
         12    1    1    2    0    0  0.24586548736E+02  0.23471870647E+02  0.26985100113E+02  0.43400722558E+02  0.00000000000E+00 0. -1.
         11    1    3    3    0    0 -0.20159710778E+02 -0.15243583958E+02 -0.22014970811E+02  0.33517752470E+02  0.51100000000E-03 0. -1.
        -11    1    3    3    0    0 -0.18366955910E+01  0.69733697121E+00 -0.45616249954E+01  0.49667043807E+01  0.51100000000E-03 0.  1.
         12    1    3    3    0    0 -0.25901423663E+01 -0.89256236600E+01 -0.40850430699E+00  0.93028205920E+01  0.00000000000E+00 0. -1.
</event>
<event>
 7    1  0.2647566E-010  0.4778727E+02  0.7816164E-02  0.1312668E+00
        -11   -1    0    0    0    0  0.00000000000E+00  0.00000000000E+00  0.45593999997E+02  0.45594000000E+02  0.51100000000E-03 0.  1.
         11   -1    0    0    0    0 -0.00000000000E+00 -0.00000000000E+00 -0.45593999997E+02  0.45594000000E+02  0.51100000000E-03 0. -1.
    9900012    2    1    2    0    0 -0.22340678853E+02  0.76462595733E+01  0.36414999831E+02  0.47787269248E+02  0.19999991811E+02 0.  0.
         12    1    1    2    0    0  0.22340678853E+02 -0.76462595733E+01 -0.36414999831E+02  0.43400730752E+02  0.00000000000E+00 0. -1.
         11    1    3    3    0    0  0.32465185094E+01  0.10913305783E+01  0.47605953630E+01  0.58646528742E+01  0.51100000000E-03 0. -1.
        -11    1    3    3    0    0 -0.29035587772E+01  0.11061997990E+01  0.85155160007E+01  0.90646756471E+01  0.51100000000E-03 0.  1.
        -12    1    3    3    0    0 -0.22683638585E+02  0.54487291961E+01  0.23138888468E+02  0.32857940727E+02  0.00000000000E+00 0.  1.
</event>
<event>
 7    1  0.2647566E-010  0.4778727E+02  0.7816164E-02  0.1312668E+00
        -11   -1    0    0    0    0  0.00000000000E+00  0.00000000000E+00  0.45593999997E+02  0.45594000000E+02  0.51100000000E-03 0.  1.
         11   -1    0    0    0    0 -0.00000000000E+00 -0.00000000000E+00 -0.45593999997E+02  0.45594000000E+02  0.51100000000E-03 0. -1.
    9900012    2    1    2    0    0  0.40293591570E+02 -0.84348497538E+01  0.13744194156E+02  0.47787273220E+02  0.20000009920E+02 0.  0.
         12    1    1    2    0    0 -0.40293591570E+02  0.84348497538E+01 -0.13744194156E+02  0.43400726780E+02  0.00000000000E+00 0. -1.
         11    1    3    3    0    0  0.19950412633E+01 -0.37239311815E+00  0.36695802735E+01  0.41934098204E+01  0.51100000000E-03 0.  1.
        -11    1    3    3    0    0  0.26066592448E+02 -0.13080601464E+02  0.76626710767E+01  0.30154367923E+02  0.51100000000E-03 0. -1.
        -12    1    3    3    0    0  0.12231957859E+02  0.50181448286E+01  0.24119428057E+01  0.13439495477E+02  0.00000000000E+00 0.  1.
</event>
<event>
 7    1  0.2647566E-010  0.4778732E+02  0.7816164E-02  0.1312668E+00
        -11   -1    0    0    0    0  0.00000000000E+00  0.00000000000E+00  0.45593999997E+02  0.45594000000E+02  0.51100000000E-03 0. -1.
         11   -1    0    0    0    0 -0.00000000000E+00 -0.00000000000E+00 -0.45593999997E+02  0.45594000000E+02  0.51100000000E-03 0.  1.
    9900012    2    1    2    0    0  0.40381877445E+02 -0.14932629018E+02 -0.54716926107E+01  0.47787321948E+02  0.20000232087E+02 0.  0.
         12    1    1    2    0    0 -0.40381877445E+02  0.14932629018E+02  0.54716926107E+01  0.43400678052E+02  0.00000000000E+00 0. -1.
         11    1    3    3    0    0  0.20906328882E+02 -0.10303508004E+02  0.16563859874E+01  0.23366225183E+02  0.51100000000E-03 0. -1.
        -11    1    3    3    0    0  0.10360648231E+02 -0.85369497115E+01 -0.36565896430E+01  0.13913776993E+02  0.51100000000E-03 0.  1.
        -12    1    3    3    0    0  0.91149003322E+01  0.39078286983E+01 -0.34714889552E+01  0.10507319771E+02  0.00000000000E+00 0.  1.
</event>
<event>
 7    1  0.2647566E-010  0.4778727E+02  0.7816164E-02  0.1312668E+00
        -11   -1    0    0    0    0  0.00000000000E+00  0.00000000000E+00  0.45593999997E+02  0.45594000000E+02  0.51100000000E-03 0.  1.
         11   -1    0    0    0    0 -0.00000000000E+00 -0.00000000000E+00 -0.45593999997E+02  0.45594000000E+02  0.51100000000E-03 0. -1.
    9900012    2    1    2    0    0 -0.15350023651E+02  0.40480597668E+02 -0.30530796214E+01  0.47787270642E+02  0.19999998167E+02 0.  0.
         12    1    1    2    0    0  0.15350023651E+02 -0.40480597668E+02  0.30530796214E+01  0.43400729358E+02  0.00000000000E+00 0. -1.
         11    1    3    3    0    0 -0.18173216166E+01  0.45881435747E+01 -0.50956361782E+01  0.70936047001E+01  0.51100000000E-03 0. -1.
        -11    1    3    3    0    0 -0.82150100084E+01  0.67486583971E+01 -0.19241559473E+01  0.10804311916E+02  0.51100000000E-03 0.  1.
        -12    1    3    3    0    0 -0.53176920259E+01  0.29143795696E+02  0.39667125041E+01  0.29889354027E+02  0.00000000000E+00 0.  1.
</event>
<event>
 7    1  0.2647566E-010  0.4778727E+02  0.7816164E-02  0.1312668E+00
        -11   -1    0    0    0    0  0.00000000000E+00  0.00000000000E+00  0.45593999997E+02  0.45594000000E+02  0.51100000000E-03 0.  1.
         11   -1    0    0    0    0 -0.00000000000E+00 -0.00000000000E+00 -0.45593999997E+02  0.45594000000E+02  0.51100000000E-03 0. -1.
    9900012    2    1    2    0    0 -0.11142616219E+02  0.88917927077E+01  0.40992696060E+02  0.47787274153E+02  0.20000014173E+02 0.  0.
         12    1    1    2    0    0  0.11142616219E+02 -0.88917927077E+01 -0.40992696060E+02  0.43400725847E+02  0.00000000000E+00 0. -1.
         11    1    3    3    0    0 -0.56580328279E+01 -0.51625395203E+00  0.28903064537E+01  0.63744588227E+01  0.51100000000E-03 0. -1.
        -11    1    3    3    0    0 -0.33270118457E+01 -0.24624812190E+01  0.10656018970E+02  0.11431691131E+02  0.51100000000E-03 0.  1.
        -12    1    3    3    0    0 -0.21575715456E+01  0.11870527879E+02  0.27446370637E+02  0.29981124199E+02  0.00000000000E+00 0.  1.
</event>
<event>
 7    1  0.2647566E-010  0.4778727E+02  0.7816164E-02  0.1312668E+00
        -11   -1    0    0    0    0  0.00000000000E+00  0.00000000000E+00  0.45593999997E+02  0.45594000000E+02  0.51100000000E-03 0. -1.
         11   -1    0    0    0    0 -0.00000000000E+00 -0.00000000000E+00 -0.45593999997E+02  0.45594000000E+02  0.51100000000E-03 0.  1.
    9900012    2    1    2    0    0  0.35680648705E+02  0.35678822732E+01 -0.24449645805E+02  0.47787266643E+02  0.19999979930E+02 0.  0.
         12    1    1    2    0    0 -0.35680648705E+02 -0.35678822732E+01  0.24449645805E+02  0.43400733357E+02  0.00000000000E+00 0. -1.
         11    1    3    3    0    0  0.70689913235E+01  0.56503042481E+01  0.32733182420E+00  0.90555906937E+01  0.51100000000E-03 0. -1.
        -11    1    3    3    0    0  0.13732152297E+02  0.28823183139E+01 -0.10552909978E+02  0.17556869734E+02  0.51100000000E-03 0.  1.
         12    1    3    3    0    0  0.14879505084E+02 -0.49647402887E+01 -0.14224067651E+02  0.21174806215E+02  0.00000000000E+00 0. -1.
</event>
<event>
 7    1  0.2647566E-010  0.4778727E+02  0.7816164E-02  0.1312668E+00
        -11   -1    0    0    0    0  0.00000000000E+00  0.00000000000E+00  0.45593999997E+02  0.45594000000E+02  0.51100000000E-03 0. -1.
         11   -1    0    0    0    0 -0.00000000000E+00 -0.00000000000E+00 -0.45593999997E+02  0.45594000000E+02  0.51100000000E-03 0.  1.
    9900012    2    1    2    0    0 -0.32559132336E+02 -0.17553040402E+02 -0.22702800977E+02  0.47787268462E+02  0.19999988226E+02 0.  0.
         12    1    1    2    0    0  0.32559132336E+02  0.17553040402E+02  0.22702800977E+02  0.43400731538E+02  0.00000000000E+00 0. -1.
         11    1    3    3    0    0 -0.57829714147E+01 -0.87751674843E+01 -0.32661557788E+01  0.11005184987E+02  0.51100000000E-03 0. -1.
        -11    1    3    3    0    0 -0.16147386067E+01 -0.44524940088E+00 -0.75498156504E+01  0.77333915207E+01  0.51100000000E-03 0.  1.
         12    1    3    3    0    0 -0.25161422315E+02 -0.83326235167E+01 -0.11886829548E+02  0.29048691955E+02  0.00000000000E+00 0. -1.
</event>
<event>
 7    1  0.2647566E-010  0.4778727E+02  0.7816164E-02  0.1312668E+00
        -11   -1    0    0    0    0  0.00000000000E+00  0.00000000000E+00  0.45593999997E+02  0.45594000000E+02  0.51100000000E-03 0.  1.
         11   -1    0    0    0    0 -0.00000000000E+00 -0.00000000000E+00 -0.45593999997E+02  0.45594000000E+02  0.51100000000E-03 0. -1.
    9900012    2    1    2    0    0  0.13132822228E+02 -0.28728509761E+02  0.29762812662E+02  0.47787270625E+02  0.19999998086E+02 0.  0.
         12    1    1    2    0    0 -0.13132822228E+02  0.28728509761E+02 -0.29762812662E+02  0.43400729375E+02  0.00000000000E+00 0. -1.
         11    1    3    3    0    0 -0.19867035299E+01 -0.59898111632E+00  0.15824994112E+00  0.20810604505E+01  0.51100000000E-03 0. -1.
        -11    1    3    3    0    0 -0.16839732127E+00  0.11728281923E+00  0.56119662761E+01  0.56157171103E+01  0.51100000000E-03 0.  1.
        -12    1    3    3    0    0  0.15287923080E+02 -0.28246811464E+02  0.23992596444E+02  0.40090493064E+02  0.00000000000E+00 0.  1.
</event>
<event>
 7    1  0.2647566E-010  0.4778727E+02  0.7816164E-02  0.1312668E+00
        -11   -1    0    0    0    0  0.00000000000E+00  0.00000000000E+00  0.45593999997E+02  0.45594000000E+02  0.51100000000E-03 0.  1.
         11   -1    0    0    0    0 -0.00000000000E+00 -0.00000000000E+00 -0.45593999997E+02  0.45594000000E+02  0.51100000000E-03 0. -1.
    9900012    2    1    2    0    0 -0.25819729623E+02 -0.16170994433E+02 -0.30910577880E+02  0.47787270471E+02  0.19999997384E+02 0.  0.
         12    1    1    2    0    0  0.25819729623E+02  0.16170994433E+02  0.30910577880E+02  0.43400729529E+02  0.00000000000E+00 0. -1.
         11    1    3    3    0    0 -0.56140055252E+01  0.25997805062E+01 -0.19707753751E+01  0.64930634186E+01  0.51100000000E-03 0. -1.
        -11    1    3    3    0    0 -0.93533281020E-01 -0.42354694904E+01 -0.20578312932E+01  0.47098429030E+01  0.51100000000E-03 0.  1.
        -12    1    3    3    0    0 -0.20112190817E+02 -0.14535305449E+02 -0.26881971212E+02  0.36584364149E+02  0.00000000000E+00 0.  1.
</event>
<event>
 7    1  0.2647566E-010  0.4778727E+02  0.7816164E-02  0.1312668E+00
        -11   -1    0    0    0    0  0.00000000000E+00  0.00000000000E+00  0.45593999997E+02  0.45594000000E+02  0.51100000000E-03 0.  1.
         11   -1    0    0    0    0 -0.00000000000E+00 -0.00000000000E+00 -0.45593999997E+02  0.45594000000E+02  0.51100000000E-03 0. -1.
    9900012    2    1    2    0    0  0.85642479247E+01  0.11018811916E+02  0.41095778432E+02  0.47787267708E+02  0.19999984787E+02 0.  0.
         12    1    1    2    0    0 -0.85642479247E+01 -0.11018811916E+02 -0.41095778432E+02  0.43400732292E+02  0.00000000000E+00 0. -1.
         11    1    3    3    0    0  0.97942522060E-01  0.81940316393E+01  0.94285288300E+01  0.12491953546E+02  0.51100000000E-03 0. -1.
        -11    1    3    3    0    0  0.12510873146E+01  0.45506769342E+01  0.24601739300E+02  0.25050338458E+02  0.51100000000E-03 0.  1.
         12    1    3    3    0    0  0.72152180881E+01 -0.17258966580E+01  0.70655103023E+01  0.10244975703E+02  0.00000000000E+00 0. -1.
</event>
<event>
 7    1  0.2647566E-010  0.4778727E+02  0.7816164E-02  0.1312668E+00
        -11   -1    0    0    0    0  0.00000000000E+00  0.00000000000E+00  0.45593999997E+02  0.45594000000E+02  0.51100000000E-03 0.  1.
         11   -1    0    0    0    0 -0.00000000000E+00 -0.00000000000E+00 -0.45593999997E+02  0.45594000000E+02  0.51100000000E-03 0. -1.
    9900012    2    1    2    0    0  0.11164876701E+02 -0.31071868351E+02  0.28169266235E+02  0.47787273799E+02  0.20000012560E+02 0.  0.
         12    1    1    2    0    0 -0.11164876701E+02  0.31071868351E+02 -0.28169266235E+02  0.43400726201E+02  0.00000000000E+00 0. -1.
         11    1    3    3    0    0  0.81365652086E+01 -0.19470523983E+02  0.10695298238E+02  0.23657861319E+02  0.51100000000E-03 0. -1.
        -11    1    3    3    0    0  0.73923232542E+01 -0.85154334581E+01  0.11314457757E+02  0.15974229392E+02  0.51100000000E-03 0.  1.
         12    1    3    3    0    0 -0.43640117615E+01 -0.30859109098E+01  0.61595102397E+01  0.81551830875E+01  0.00000000000E+00 0. -1.
</event>
<event>
 7    1  0.2647566E-010  0.4778728E+02  0.7816164E-02  0.1312668E+00
        -11   -1    0    0    0    0  0.00000000000E+00  0.00000000000E+00  0.45593999997E+02  0.45594000000E+02  0.51100000000E-03 0. -1.
         11   -1    0    0    0    0 -0.00000000000E+00 -0.00000000000E+00 -0.45593999997E+02  0.45594000000E+02  0.51100000000E-03 0.  1.
    9900012    2    1    2    0    0 -0.50860412965E+01 -0.17832335310E+02 -0.39239805975E+02  0.47787281439E+02  0.20000047394E+02 0.  0.
         12    1    1    2    0    0  0.50860412965E+01  0.17832335310E+02  0.39239805975E+02  0.43400718561E+02  0.00000000000E+00 0. -1.
         11    1    3    3    0    0 -0.61850439854E+01 -0.29878421919E+01 -0.36657247161E+01  0.77858530696E+01  0.51100000000E-03 0. -1.
        -11    1    3    3    0    0 -0.17352676439E+01 -0.85461673407E+00 -0.13998170391E+02  0.14131181766E+02  0.51100000000E-03 0.  1.
         12    1    3    3    0    0  0.28342703329E+01 -0.13989876384E+02 -0.21575910867E+02  0.25870246603E+02  0.00000000000E+00 0. -1.
</event>
<event>
 7    1  0.2647566E-010  0.4778727E+02  0.7816164E-02  0.1312668E+00
        -11   -1    0    0    0    0  0.00000000000E+00  0.00000000000E+00  0.45593999997E+02  0.45594000000E+02  0.51100000000E-03 0.  1.
         11   -1    0    0    0    0 -0.00000000000E+00 -0.00000000000E+00 -0.45593999997E+02  0.45594000000E+02  0.51100000000E-03 0. -1.
    9900012    2    1    2    0    0  0.31389342919E+02  0.41519827631E+01  0.29683219786E+02  0.47787270207E+02  0.19999996180E+02 0.  0.
         12    1    1    2    0    0 -0.31389342919E+02 -0.41519827631E+01 -0.29683219786E+02  0.43400729793E+02  0.00000000000E+00 0. -1.
         11    1    3    3    0    0  0.73655783567E+01 -0.13727146990E+01  0.72365947089E+01  0.10416544217E+02  0.51100000000E-03 0. -1.
        -11    1    3    3    0    0  0.24556057671E+02  0.37505011298E+01  0.13575565097E+02  0.28308341439E+02  0.51100000000E-03 0.  1.
         12    1    3    3    0    0 -0.53229310882E+00  0.17741963323E+01  0.88710599801E+01  0.90623845509E+01  0.00000000000E+00 0. -1.
</event>
<event>
 7    1  0.2647566E-010  0.4778729E+02  0.7816164E-02  0.1312668E+00
        -11   -1    0    0    0    0  0.00000000000E+00  0.00000000000E+00  0.45593999997E+02  0.45594000000E+02  0.51100000000E-03 0.  1.
         11   -1    0    0    0    0 -0.00000000000E+00 -0.00000000000E+00 -0.45593999997E+02  0.45594000000E+02  0.51100000000E-03 0. -1.
    9900012    2    1    2    0    0 -0.20485650522E+01 -0.41871343709E+02  0.11234581628E+02  0.47787287251E+02  0.20000073893E+02 0.  0.
         12    1    1    2    0    0  0.20485650522E+01  0.41871343709E+02 -0.11234581628E+02  0.43400712749E+02  0.00000000000E+00 0. -1.
         11    1    3    3    0    0  0.58732061926E+01 -0.82324359091E+01  0.11982663658E+01  0.10183486364E+02  0.51100000000E-03 0. -1.
        -11    1    3    3    0    0  0.21320107494E+00 -0.22122093820E+02  0.66808555074E+01  0.23109874951E+02  0.51100000000E-03 0.  1.
         12    1    3    3    0    0 -0.81349723198E+01 -0.11516813980E+02  0.33554597544E+01  0.14493925937E+02  0.00000000000E+00 0. -1.
</event>
<event>
 7    1  0.2647566E-010  0.4778727E+02  0.7816164E-02  0.1312668E+00
        -11   -1    0    0    0    0  0.00000000000E+00  0.00000000000E+00  0.45593999997E+02  0.45594000000E+02  0.51100000000E-03 0. -1.
         11   -1    0    0    0    0 -0.00000000000E+00 -0.00000000000E+00 -0.45593999997E+02  0.45594000000E+02  0.51100000000E-03 0.  1.
    9900012    2    1    2    0    0  0.25967939198E+02 -0.77424645428E+01 -0.33901974014E+02  0.47787268838E+02  0.19999989940E+02 0.  0.
         12    1    1    2    0    0 -0.25967939198E+02  0.77424645428E+01  0.33901974014E+02  0.43400731162E+02  0.00000000000E+00 0. -1.
         11    1    3    3    0    0  0.20396265967E+02  0.24117330162E+01 -0.20533310104E+02  0.29042054776E+02  0.51100000000E-03 0. -1.
        -11    1    3    3    0    0  0.28826806447E+01 -0.65830966669E+00 -0.15201148043E+01  0.33247509074E+01  0.51100000000E-03 0.  1.
        -12    1    3    3    0    0  0.26889925855E+01 -0.94958878923E+01 -0.11848549106E+02  0.15420463154E+02  0.00000000000E+00 0.  1.
</event>
<event>
 7    1  0.2647566E-010  0.4778727E+02  0.7816164E-02  0.1312668E+00
        -11   -1    0    0    0    0  0.00000000000E+00  0.00000000000E+00  0.45593999997E+02  0.45594000000E+02  0.51100000000E-03 0.  1.
         11   -1    0    0    0    0 -0.00000000000E+00 -0.00000000000E+00 -0.45593999997E+02  0.45594000000E+02  0.51100000000E-03 0. -1.
    9900012    2    1    2    0    0  0.21503064271E+02 -0.18750208183E+02  0.32705829498E+02  0.47787270017E+02  0.19999995314E+02 0.  0.
         12    1    1    2    0    0 -0.21503064271E+02  0.18750208183E+02 -0.32705829498E+02  0.43400729983E+02  0.00000000000E+00 0. -1.
         11    1    3    3    0    0  0.15257243497E+01  0.40327119810E+01  0.47111423548E+01  0.63863497603E+01  0.51100000000E-03 0. -1.
        -11    1    3    3    0    0  0.37103289762E+01 -0.45669162285E+01  0.36881072465E+01  0.69444510419E+01  0.51100000000E-03 0.  1.
         12    1    3    3    0    0  0.16267010945E+02 -0.18216003936E+02  0.24306579897E+02  0.34456469214E+02  0.00000000000E+00 0. -1.
</event>
<event>
 7    1  0.2647566E-010  0.4778727E+02  0.7816164E-02  0.1312668E+00
        -11   -1    0    0    0    0  0.00000000000E+00  0.00000000000E+00  0.45593999997E+02  0.45594000000E+02  0.51100000000E-03 0.  1.
         11   -1    0    0    0    0 -0.00000000000E+00 -0.00000000000E+00 -0.45593999997E+02  0.45594000000E+02  0.51100000000E-03 0. -1.
    9900012    2    1    2    0    0 -0.27899823586E+02  0.13087163059E+02  0.30560591075E+02  0.47787265906E+02  0.19999976572E+02 0.  0.
         12    1    1    2    0    0  0.27899823586E+02 -0.13087163059E+02 -0.30560591075E+02  0.43400734094E+02  0.00000000000E+00 0. -1.
         11    1    3    3    0    0 -0.47314999098E+01  0.89146153601E+01  0.77667338664E+01  0.12734975996E+02  0.51100000000E-03 0. -1.
        -11    1    3    3    0    0 -0.25489498432E+01 -0.37510397730E+01  0.36442097445E+01  0.58178784453E+01  0.51100000000E-03 0.  1.
        -12    1    3    3    0    0 -0.20619373833E+02  0.79235874721E+01  0.19149647464E+02  0.29234411464E+02  0.00000000000E+00 0.  1.
</event>
<event>
 7    1  0.2647566E-010  0.4778727E+02  0.7816164E-02  0.1312668E+00
        -11   -1    0    0    0    0  0.00000000000E+00  0.00000000000E+00  0.45593999997E+02  0.45594000000E+02  0.51100000000E-03 0.  1.
         11   -1    0    0    0    0 -0.00000000000E+00 -0.00000000000E+00 -0.45593999997E+02  0.45594000000E+02  0.51100000000E-03 0. -1.
    9900012    2    1    2    0    0 -0.43556744699E+01  0.13137768163E+02  0.41134544973E+02  0.47787266797E+02  0.19999980633E+02 0.  0.
         12    1    1    2    0    0  0.43556744699E+01 -0.13137768163E+02 -0.41134544973E+02  0.43400733203E+02  0.00000000000E+00 0. -1.
         11    1    3    3    0    0 -0.37986764008E+01  0.36559317838E+01  0.57582835275E+01  0.78072792348E+01  0.51100000000E-03 0. -1.
        -11    1    3    3    0    0 -0.32946307086E+01  0.18215767103E+01  0.87430978155E-01  0.37656842213E+01  0.51100000000E-03 0.  1.
        -12    1    3    3    0    0  0.27376326395E+01  0.76602596693E+01  0.35288830468E+02  0.36214303341E+02  0.00000000000E+00 0.  1.
</event>
<event>
 7    1  0.2647566E-010  0.4778727E+02  0.7816164E-02  0.1312668E+00
        -11   -1    0    0    0    0  0.00000000000E+00  0.00000000000E+00  0.45593999997E+02  0.45594000000E+02  0.51100000000E-03 0.  1.
         11   -1    0    0    0    0 -0.00000000000E+00 -0.00000000000E+00 -0.45593999997E+02  0.45594000000E+02  0.51100000000E-03 0. -1.
    9900012    2    1    2    0    0 -0.24633167535E+02 -0.33969412048E+02  0.11086454315E+02  0.47787269972E+02  0.19999995112E+02 0.  0.
         12    1    1    2    0    0  0.24633167535E+02  0.33969412048E+02 -0.11086454315E+02  0.43400730028E+02  0.00000000000E+00 0. -1.
         11    1    3    3    0    0  0.22745557638E+01 -0.30877168086E+01  0.14709655539E+01  0.41074735464E+01  0.51100000000E-03 0. -1.
        -11    1    3    3    0    0 -0.72361077570E+01 -0.10511065194E+02  0.85128227910E+01  0.15339879371E+02  0.51100000000E-03 0.  1.
         12    1    3    3    0    0 -0.19671615541E+02 -0.20370630045E+02  0.11026659705E+01  0.28339917055E+02  0.00000000000E+00 0. -1.
</event>
<event>
 7    1  0.2647566E-010  0.4778726E+02  0.7816164E-02  0.1312668E+00
        -11   -1    0    0    0    0  0.00000000000E+00  0.00000000000E+00  0.45593999997E+02  0.45594000000E+02  0.51100000000E-03 0.  1.
         11   -1    0    0    0    0 -0.00000000000E+00 -0.00000000000E+00 -0.45593999997E+02  0.45594000000E+02  0.51100000000E-03 0. -1.
    9900012    2    1    2    0    0  0.19207374738E+02 -0.38854984426E+02 -0.22341855201E+01  0.47787255260E+02  0.19999928034E+02 0.  0.
         12    1    1    2    0    0 -0.19207374738E+02  0.38854984426E+02  0.22341855201E+01  0.43400744740E+02  0.00000000000E+00 0. -1.
         11    1    3    3    0    0  0.72409262642E+00 -0.32105707101E+01 -0.23451673140E+01  0.40412726223E+01  0.51100000000E-03 0. -1.
        -11    1    3    3    0    0  0.83075751874E+01 -0.24289908966E+02  0.75812251980E+01  0.26767339405E+02  0.51100000000E-03 0.  1.
        -12    1    3    3    0    0  0.10175706924E+02 -0.11354504749E+02 -0.74702434041E+01  0.16978643233E+02  0.00000000000E+00 0.  1.
</event>
<event>
 7    1  0.2647566E-010  0.4778730E+02  0.7816164E-02  0.1312668E+00
        -11   -1    0    0    0    0  0.00000000000E+00  0.00000000000E+00  0.45593999997E+02  0.45594000000E+02  0.51100000000E-03 0.  1.
         11   -1    0    0    0    0 -0.00000000000E+00 -0.00000000000E+00 -0.45593999997E+02  0.45594000000E+02  0.51100000000E-03 0. -1.
    9900012    2    1    2    0    0 -0.71468157708E+01 -0.18400919723E+02  0.38651645581E+02  0.47787302674E+02  0.20000144209E+02 0.  0.
         12    1    1    2    0    0  0.71468157708E+01  0.18400919723E+02 -0.38651645581E+02  0.43400697326E+02  0.00000000000E+00 0. -1.
         11    1    3    3    0    0 -0.64367269273E+01 -0.15244108914E+01  0.12828592450E+02  0.14433574284E+02  0.51100000000E-03 0. -1.
        -11    1    3    3    0    0 -0.63966404909E+01 -0.57261216403E+01  0.10967705589E+02  0.13928246292E+02  0.51100000000E-03 0.  1.
         12    1    3    3    0    0  0.56865516473E+01 -0.11150387191E+02  0.14855347542E+02  0.19425482098E+02  0.00000000000E+00 0. -1.
</event>
<event>
 7    1  0.2647566E-010  0.4778728E+02  0.7816164E-02  0.1312668E+00
        -11   -1    0    0    0    0  0.00000000000E+00  0.00000000000E+00  0.45593999997E+02  0.45594000000E+02  0.51100000000E-03 0. -1.
         11   -1    0    0    0    0 -0.00000000000E+00 -0.00000000000E+00 -0.45593999997E+02  0.45594000000E+02  0.51100000000E-03 0.  1.
    9900012    2    1    2    0    0 -0.38558544560E+02  0.19003421728E+02 -0.59775159013E+01  0.47787284657E+02  0.20000062066E+02 0.  0.
         12    1    1    2    0    0  0.38558544560E+02 -0.19003421728E+02  0.59775159013E+01  0.43400715343E+02  0.00000000000E+00 0. -1.
         11    1    3    3    0    0 -0.29303391446E+01 -0.14229951631E+01 -0.98380797921E+00  0.34028930541E+01  0.51100000000E-03 0.  1.
        -11    1    3    3    0    0 -0.14797674382E+02 -0.15387423481E+00 -0.23346128348E+01  0.14981497313E+02  0.51100000000E-03 0. -1.
         12    1    3    3    0    0 -0.20830531033E+02  0.20580291126E+02 -0.26590950874E+01  0.29402894290E+02  0.00000000000E+00 0. -1.
</event>
<event>
 7    1  0.2647566E-010  0.4778727E+02  0.7816164E-02  0.1312668E+00
        -11   -1    0    0    0    0  0.00000000000E+00  0.00000000000E+00  0.45593999997E+02  0.45594000000E+02  0.51100000000E-03 0. -1.
         11   -1    0    0    0    0 -0.00000000000E+00 -0.00000000000E+00 -0.45593999997E+02  0.45594000000E+02  0.51100000000E-03 0.  1.
    9900012    2    1    2    0    0  0.61366550077E+01  0.37442354820E+02 -0.21072134890E+02  0.47787270306E+02  0.19999996633E+02 0.  0.
         12    1    1    2    0    0 -0.61366550077E+01 -0.37442354820E+02  0.21072134890E+02  0.43400729694E+02  0.00000000000E+00 0. -1.
         11    1    3    3    0    0  0.11436001843E+02  0.19579806210E+02 -0.14343140691E+02  0.26830516852E+02  0.51100000000E-03 0. -1.
        -11    1    3    3    0    0  0.77171395365E+00  0.93130803657E+01 -0.35952718503E+01  0.10012741296E+02  0.51100000000E-03 0.  1.
         12    1    3    3    0    0 -0.60710607887E+01  0.85494682444E+01 -0.31337223479E+01  0.10944012158E+02  0.00000000000E+00 0. -1.
</event>
<event>
 7    1  0.2647566E-010  0.4778725E+02  0.7816164E-02  0.1312668E+00
        -11   -1    0    0    0    0  0.00000000000E+00  0.00000000000E+00  0.45593999997E+02  0.45594000000E+02  0.51100000000E-03 0. -1.
         11   -1    0    0    0    0 -0.00000000000E+00 -0.00000000000E+00 -0.45593999997E+02  0.45594000000E+02  0.51100000000E-03 0.  1.
    9900012    2    1    2    0    0 -0.15749642595E+02 -0.30422102436E+02 -0.26647129372E+02  0.47787250442E+02  0.19999906063E+02 0.  0.
         12    1    1    2    0    0  0.15749642595E+02  0.30422102436E+02  0.26647129372E+02  0.43400749558E+02  0.00000000000E+00 0. -1.
         11    1    3    3    0    0 -0.35211469617E+01 -0.31730898516E+01  0.38896563132E+00  0.47558668670E+01  0.51100000000E-03 0. -1.
        -11    1    3    3    0    0 -0.36761001138E+01 -0.25023673152E+01 -0.12092433051E+02  0.12884195419E+02  0.51100000000E-03 0.  1.
         12    1    3    3    0    0 -0.85523955197E+01 -0.24746645269E+02 -0.14943661952E+02  0.30147188156E+02  0.00000000000E+00 0. -1.
</event>
<event>
 7    1  0.2647566E-010  0.4778726E+02  0.7816164E-02  0.1312668E+00
        -11   -1    0    0    0    0  0.00000000000E+00  0.00000000000E+00  0.45593999997E+02  0.45594000000E+02  0.51100000000E-03 0. -1.
         11   -1    0    0    0    0 -0.00000000000E+00 -0.00000000000E+00 -0.45593999997E+02  0.45594000000E+02  0.51100000000E-03 0.  1.
    9900012    2    1    2    0    0  0.35359135115E+02 -0.14955385410E+02 -0.20240846256E+02  0.47787264454E+02  0.19999969950E+02 0.  0.
         12    1    1    2    0    0 -0.35359135115E+02  0.14955385410E+02  0.20240846256E+02  0.43400735546E+02  0.00000000000E+00 0. -1.
         11    1    3    3    0    0  0.12734807568E+02 -0.96996043558E+01 -0.81157314733E+01  0.17947778305E+02  0.51100000000E-03 0.  1.
        -11    1    3    3    0    0  0.13433163843E+02 -0.62349468983E+01 -0.27676933698E+00  0.14812192788E+02  0.51100000000E-03 0. -1.
        -12    1    3    3    0    0  0.91911637034E+01  0.97916584403E+00 -0.11848345446E+02  0.15027293361E+02  0.00000000000E+00 0.  1.
</event>
<event>
 7    1  0.2647566E-010  0.4778727E+02  0.7816164E-02  0.1312668E+00
        -11   -1    0    0    0    0  0.00000000000E+00  0.00000000000E+00  0.45593999997E+02  0.45594000000E+02  0.51100000000E-03 0.  1.
         11   -1    0    0    0    0 -0.00000000000E+00 -0.00000000000E+00 -0.45593999997E+02  0.45594000000E+02  0.51100000000E-03 0. -1.
    9900012    2    1    2    0    0  0.35614754194E+02 -0.23675523141E+02  0.73947404528E+01  0.47787270759E+02  0.19999998698E+02 0.  0.
         12    1    1    2    0    0 -0.35614754194E+02  0.23675523141E+02 -0.73947404528E+01  0.43400729241E+02  0.00000000000E+00 0. -1.
         11    1    3    3    0    0  0.26568960454E+01 -0.53345636215E+01  0.36237765238E+01  0.69748420902E+01  0.51100000000E-03 0. -1.
        -11    1    3    3    0    0  0.24101730510E+02 -0.18019764948E+02  0.77847494608E+01  0.31083881141E+02  0.51100000000E-03 0.  1.
         12    1    3    3    0    0  0.88561276386E+01 -0.32119457167E+00 -0.40137855318E+01  0.97285475277E+01  0.00000000000E+00 0. -1.
</event>
<event>
 7    1  0.2647566E-010  0.4778726E+02  0.7816164E-02  0.1312668E+00
        -11   -1    0    0    0    0  0.00000000000E+00  0.00000000000E+00  0.45593999997E+02  0.45594000000E+02  0.51100000000E-03 0.  1.
         11   -1    0    0    0    0 -0.00000000000E+00 -0.00000000000E+00 -0.45593999997E+02  0.45594000000E+02  0.51100000000E-03 0. -1.
    9900012    2    1    2    0    0  0.63098548946E+01  0.42231551533E+02  0.77656684072E+01  0.47787264758E+02  0.19999971340E+02 0.  0.
         12    1    1    2    0    0 -0.63098548946E+01 -0.42231551533E+02 -0.77656684072E+01  0.43400735242E+02  0.00000000000E+00 0. -1.
         11    1    3    3    0    0  0.46954517410E+01  0.13991600376E+02 -0.35255619976E+01  0.15173718589E+02  0.51100000000E-03 0. -1.
        -11    1    3    3    0    0  0.29671499073E+01  0.23595008132E+02  0.43855676737E+01  0.24181844252E+02  0.51100000000E-03 0.  1.
        -12    1    3    3    0    0 -0.13527467537E+01  0.46449430247E+01  0.69056627311E+01  0.84317019183E+01  0.00000000000E+00 0.  1.
</event>
<event>
 7    1  0.2647566E-010  0.4778727E+02  0.7816164E-02  0.1312668E+00
        -11   -1    0    0    0    0  0.00000000000E+00  0.00000000000E+00  0.45593999997E+02  0.45594000000E+02  0.51100000000E-03 0.  1.
         11   -1    0    0    0    0 -0.00000000000E+00 -0.00000000000E+00 -0.45593999997E+02  0.45594000000E+02  0.51100000000E-03 0. -1.
    9900012    2    1    2    0    0  0.10041198362E+02 -0.99932227203E+01  0.41023573455E+02  0.47787265630E+02  0.19999975311E+02 0.  0.
         12    1    1    2    0    0 -0.10041198362E+02  0.99932227203E+01 -0.41023573455E+02  0.43400734370E+02  0.00000000000E+00 0. -1.
         11    1    3    3    0    0  0.72229543000E+01 -0.59251901982E+01  0.26106690750E+02  0.27727932665E+02  0.51100000000E-03 0. -1.
        -11    1    3    3    0    0  0.31606750839E+01  0.26209646197E+01  0.12127883665E+02  0.12804096413E+02  0.51100000000E-03 0.  1.
         12    1    3    3    0    0 -0.34243102179E+00 -0.66889971417E+01  0.27889990408E+01  0.72552365514E+01  0.00000000000E+00 0. -1.
</event>
<event>
 7    1  0.2647566E-010  0.4778731E+02  0.7816164E-02  0.1312668E+00
        -11   -1    0    0    0    0  0.00000000000E+00  0.00000000000E+00  0.45593999997E+02  0.45594000000E+02  0.51100000000E-03 0.  1.
         11   -1    0    0    0    0 -0.00000000000E+00 -0.00000000000E+00 -0.45593999997E+02  0.45594000000E+02  0.51100000000E-03 0. -1.
    9900012    2    1    2    0    0 -0.13172069389E+01  0.42755756903E+02 -0.73369020598E+01  0.47787309749E+02  0.20000176468E+02 0.  0.
         12    1    1    2    0    0  0.13172069389E+01 -0.42755756903E+02  0.73369020598E+01  0.43400690251E+02  0.00000000000E+00 0. -1.
         11    1    3    3    0    0 -0.75995704134E+01  0.68459504611E+01 -0.33380813461E+01  0.10759335273E+02  0.51100000000E-03 0. -1.
        -11    1    3    3    0    0 -0.37678936375E+00  0.11596887071E+02 -0.12383514199E+01  0.11668902025E+02  0.51100000000E-03 0.  1.
        -12    1    3    3    0    0  0.66591528383E+01  0.24312919371E+02 -0.27604692939E+01  0.25359072451E+02  0.00000000000E+00 0.  1.
</event>
<event>
 7    1  0.2647566E-010  0.4778727E+02  0.7816164E-02  0.1312668E+00
        -11   -1    0    0    0    0  0.00000000000E+00  0.00000000000E+00  0.45593999997E+02  0.45594000000E+02  0.51100000000E-03 0. -1.
         11   -1    0    0    0    0 -0.00000000000E+00 -0.00000000000E+00 -0.45593999997E+02  0.45594000000E+02  0.51100000000E-03 0.  1.
    9900012    2    1    2    0    0  0.30430895405E+02 -0.26286851646E+02 -0.16327436186E+02  0.47787272621E+02  0.20000007190E+02 0.  0.
         12    1    1    2    0    0 -0.30430895405E+02  0.26286851646E+02  0.16327436186E+02  0.43400727379E+02  0.00000000000E+00 0. -1.
         11    1    3    3    0    0  0.72649750553E+01 -0.21665676104E+01  0.32215226784E+01  0.82372377891E+01  0.51100000000E-03 0. -1.
        -11    1    3    3    0    0  0.28881363046E+01 -0.63845673882E+01 -0.16277856880E+01  0.71940057378E+01  0.51100000000E-03 0.  1.
        -12    1    3    3    0    0  0.20277784045E+02 -0.17735716647E+02 -0.17921173176E+02  0.32356029095E+02  0.00000000000E+00 0.  1.
</event>
<event>
 7    1  0.2647566E-010  0.4778727E+02  0.7816164E-02  0.1312668E+00
        -11   -1    0    0    0    0  0.00000000000E+00  0.00000000000E+00  0.45593999997E+02  0.45594000000E+02  0.51100000000E-03 0.  1.
         11   -1    0    0    0    0 -0.00000000000E+00 -0.00000000000E+00 -0.45593999997E+02  0.45594000000E+02  0.51100000000E-03 0. -1.
    9900012    2    1    2    0    0 -0.61726855573E+01 -0.20610325366E+02  0.37692647163E+02  0.47787271794E+02  0.20000003417E+02 0.  0.
         12    1    1    2    0    0  0.61726855573E+01  0.20610325366E+02 -0.37692647163E+02  0.43400728206E+02  0.00000000000E+00 0. -1.
         11    1    3    3    0    0 -0.18111353999E+01 -0.39538080313E+01  0.23185445431E+01  0.49283322174E+01  0.51100000000E-03 0. -1.
        -11    1    3    3    0    0 -0.79642215260E+01 -0.18376915570E+02  0.27381734547E+02  0.33924905857E+02  0.51100000000E-03 0.  1.
         12    1    3    3    0    0  0.36026713686E+01  0.17203982354E+01  0.79923680731E+01  0.89340337191E+01  0.00000000000E+00 0. -1.
</event>
<event>
 7    1  0.2647566E-010  0.4778727E+02  0.7816164E-02  0.1312668E+00
        -11   -1    0    0    0    0  0.00000000000E+00  0.00000000000E+00  0.45593999997E+02  0.45594000000E+02  0.51100000000E-03 0. -1.
         11   -1    0    0    0    0 -0.00000000000E+00 -0.00000000000E+00 -0.45593999997E+02  0.45594000000E+02  0.51100000000E-03 0.  1.
    9900012    2    1    2    0    0  0.31233222482E+02 -0.27963842138E+02 -0.11230867365E+02  0.47787273790E+02  0.20000012519E+02 0.  0.
         12    1    1    2    0    0 -0.31233222482E+02  0.27963842138E+02  0.11230867365E+02  0.43400726210E+02  0.00000000000E+00 0. -1.
         11    1    3    3    0    0  0.12380700753E+02 -0.10275889537E+02 -0.10282253910E+02  0.19094512370E+02  0.51100000000E-03 0. -1.
        -11    1    3    3    0    0 -0.12745773683E+01 -0.40881466494E+01 -0.10182062711E+01  0.44016172899E+01  0.51100000000E-03 0.  1.
         12    1    3    3    0    0  0.20127099097E+02 -0.13599805952E+02  0.69592815673E-01  0.24291144130E+02  0.00000000000E+00 0. -1.
</event>
<event>
 7    1  0.2647566E-010  0.4778728E+02  0.7816164E-02  0.1312668E+00
        -11   -1    0    0    0    0  0.00000000000E+00  0.00000000000E+00  0.45593999997E+02  0.45594000000E+02  0.51100000000E-03 0.  1.
         11   -1    0    0    0    0 -0.00000000000E+00 -0.00000000000E+00 -0.45593999997E+02  0.45594000000E+02  0.51100000000E-03 0. -1.
    9900012    2    1    2    0    0 -0.10310749567E+02 -0.20031036428E+02  0.37095403024E+02  0.47787275323E+02  0.20000019507E+02 0.  0.
         12    1    1    2    0    0  0.10310749567E+02  0.20031036428E+02 -0.37095403024E+02  0.43400724677E+02  0.00000000000E+00 0. -1.
         11    1    3    3    0    0 -0.33115035882E+01  0.14212729944E+01  0.75253324291E+00  0.36813556582E+01  0.51100000000E-03 0. -1.
        -11    1    3    3    0    0  0.22110786758E+01 -0.13013900215E+01  0.60830568352E+01  0.66019743728E+01  0.51100000000E-03 0.  1.
         12    1    3    3    0    0 -0.92103246548E+01 -0.20150919401E+02  0.30259812946E+02  0.37503945292E+02  0.00000000000E+00 0. -1.
</event>
<event>
 7    1  0.2647566E-010  0.4778727E+02  0.7816164E-02  0.1312668E+00
        -11   -1    0    0    0    0  0.00000000000E+00  0.00000000000E+00  0.45593999997E+02  0.45594000000E+02  0.51100000000E-03 0.  1.
         11   -1    0    0    0    0 -0.00000000000E+00 -0.00000000000E+00 -0.45593999997E+02  0.45594000000E+02  0.51100000000E-03 0. -1.
    9900012    2    1    2    0    0  0.37546926852E+02 -0.46306943909E+01  0.21269884629E+02  0.47787273754E+02  0.20000012353E+02 0.  0.
         12    1    1    2    0    0 -0.37546926852E+02  0.46306943909E+01 -0.21269884629E+02  0.43400726246E+02  0.00000000000E+00 0. -1.
         11    1    3    3    0    0  0.13157607939E+02  0.41709619830E+01  0.10333822539E+02  0.17242605925E+02  0.51100000000E-03 0. -1.
        -11    1    3    3    0    0  0.37924943543E+01  0.82227785821E+00  0.62123600243E+01  0.73247915763E+01  0.51100000000E-03 0.  1.
        -12    1    3    3    0    0  0.20596824558E+02 -0.96239342321E+01  0.47237020659E+01  0.23219876253E+02  0.00000000000E+00 0.  1.
</event>
<event>
 7    1  0.2647566E-010  0.4778730E+02  0.7816164E-02  0.1312668E+00
        -11   -1    0    0    0    0  0.00000000000E+00  0.00000000000E+00  0.45593999997E+02  0.45594000000E+02  0.51100000000E-03 0.  1.
         11   -1    0    0    0    0 -0.00000000000E+00 -0.00000000000E+00 -0.45593999997E+02  0.45594000000E+02  0.51100000000E-03 0. -1.
    9900012    2    1    2    0    0  0.86492425498E+01  0.67151710875E+01  0.41996644556E+02  0.47787296396E+02  0.20000115586E+02 0.  0.
         12    1    1    2    0    0 -0.86492425498E+01 -0.67151710875E+01 -0.41996644556E+02  0.43400703604E+02  0.00000000000E+00 0. -1.
         11    1    3    3    0    0  0.79086568078E+01  0.14881928483E+01  0.12802357108E+02  0.15121571289E+02  0.51100000000E-03 0. -1.
        -11    1    3    3    0    0  0.50694163862E+01  0.79338664138E+00  0.24111269379E+02  0.24651201922E+02  0.51100000000E-03 0.  1.
         12    1    3    3    0    0 -0.43288306442E+01  0.44335915977E+01  0.50830180686E+01  0.80145231853E+01  0.00000000000E+00 0. -1.
</event>
<event>
 7    1  0.2647566E-010  0.4778727E+02  0.7816164E-02  0.1312668E+00
        -11   -1    0    0    0    0  0.00000000000E+00  0.00000000000E+00  0.45593999997E+02  0.45594000000E+02  0.51100000000E-03 0.  1.
         11   -1    0    0    0    0 -0.00000000000E+00 -0.00000000000E+00 -0.45593999997E+02  0.45594000000E+02  0.51100000000E-03 0. -1.
    9900012    2    1    2    0    0 -0.37583140348E+01  0.34962256798E+01  0.43096111331E+02  0.47787270395E+02  0.19999997040E+02 0.  0.
         12    1    1    2    0    0  0.37583140348E+01 -0.34962256798E+01 -0.43096111331E+02  0.43400729605E+02  0.00000000000E+00 0. -1.
         11    1    3    3    0    0  0.39319585349E+00  0.56375058968E+00 -0.21486896076E+00  0.72012959805E+00  0.51100000000E-03 0. -1.
        -11    1    3    3    0    0  0.15672749540E+01  0.41636059089E+00  0.39930492083E+02  0.39963407076E+02  0.51100000000E-03 0.  1.
         12    1    3    3    0    0 -0.57187848423E+01  0.25161144993E+01  0.33804882087E+01  0.71037337207E+01  0.00000000000E+00 0. -1.
</event>
<event>
 7    1  0.2647566E-010  0.4778727E+02  0.7816164E-02  0.1312668E+00
        -11   -1    0    0    0    0  0.00000000000E+00  0.00000000000E+00  0.45593999997E+02  0.45594000000E+02  0.51100000000E-03 0.  1.
         11   -1    0    0    0    0 -0.00000000000E+00 -0.00000000000E+00 -0.45593999997E+02  0.45594000000E+02  0.51100000000E-03 0. -1.
    9900012    2    1    2    0    0 -0.36328721857E+02 -0.73867553921E+01  0.22567302419E+02  0.47787270450E+02  0.19999997289E+02 0.  0.
         12    1    1    2    0    0  0.36328721857E+02  0.73867553921E+01 -0.22567302419E+02  0.43400729550E+02  0.00000000000E+00 0. -1.
         11    1    3    3    0    0  0.13926786120E+01 -0.29425077808E-01  0.14099981397E+01  0.19820480737E+01  0.51100000000E-03 0. -1.
        -11    1    3    3    0    0 -0.10041482955E+02  0.15534583039E+01  0.11070346910E+02  0.15026549624E+02  0.51100000000E-03 0.  1.
        -12    1    3    3    0    0 -0.27679917515E+02 -0.89107886181E+01  0.10086957370E+02  0.30778672752E+02  0.00000000000E+00 0.  1.
</event>
<event>
 7    1  0.2647566E-010  0.4778727E+02  0.7816164E-02  0.1312668E+00
        -11   -1    0    0    0    0  0.00000000000E+00  0.00000000000E+00  0.45593999997E+02  0.45594000000E+02  0.51100000000E-03 0.  1.
         11   -1    0    0    0    0 -0.00000000000E+00 -0.00000000000E+00 -0.45593999997E+02  0.45594000000E+02  0.51100000000E-03 0. -1.
    9900012    2    1    2    0    0 -0.33317215401E+02  0.65895000891E+01  0.27021558838E+02  0.47787274251E+02  0.20000014621E+02 0.  0.
         12    1    1    2    0    0  0.33317215401E+02 -0.65895000891E+01 -0.27021558838E+02  0.43400725749E+02  0.00000000000E+00 0. -1.
         11    1    3    3    0    0 -0.46780034090E+01  0.33560130113E+01  0.12172911336E+02  0.13465745797E+02  0.51100000000E-03 0. -1.
        -11    1    3    3    0    0 -0.16963538548E+02  0.47189342792E+01  0.14047145645E+02  0.22524481833E+02  0.51100000000E-03 0.  1.
         12    1    3    3    0    0 -0.11675673444E+02 -0.14854472013E+01  0.80150185666E+00  0.11797046621E+02  0.00000000000E+00 0. -1.
</event>
<event>
 7    1  0.2647566E-010  0.4778727E+02  0.7816164E-02  0.1312668E+00
        -11   -1    0    0    0    0  0.00000000000E+00  0.00000000000E+00  0.45593999997E+02  0.45594000000E+02  0.51100000000E-03 0.  1.
         11   -1    0    0    0    0 -0.00000000000E+00 -0.00000000000E+00 -0.45593999997E+02  0.45594000000E+02  0.51100000000E-03 0. -1.
    9900012    2    1    2    0    0 -0.30860880646E+02 -0.80182536744E+01  0.29443800156E+02  0.47787265975E+02  0.19999976886E+02 0.  0.
         12    1    1    2    0    0  0.30860880646E+02  0.80182536744E+01 -0.29443800156E+02  0.43400734025E+02  0.00000000000E+00 0. -1.
         11    1    3    3    0    0 -0.36914674835E+01  0.29582682012E+01  0.38052935620E+01  0.60711236428E+01  0.51100000000E-03 0. -1.
        -11    1    3    3    0    0 -0.23821373733E+02 -0.28785754390E+01  0.20489554336E+02  0.31552589121E+02  0.51100000000E-03 0.  1.
         12    1    3    3    0    0 -0.33480394299E+01 -0.80979464367E+01  0.51489522582E+01  0.10163553211E+02  0.00000000000E+00 0. -1.
</event>
<event>
 7    1  0.2647566E-010  0.4778727E+02  0.7816164E-02  0.1312668E+00
        -11   -1    0    0    0    0  0.00000000000E+00  0.00000000000E+00  0.45593999997E+02  0.45594000000E+02  0.51100000000E-03 0.  1.
         11   -1    0    0    0    0 -0.00000000000E+00 -0.00000000000E+00 -0.45593999997E+02  0.45594000000E+02  0.51100000000E-03 0. -1.
    9900012    2    1    2    0    0  0.12723859038E+02 -0.41417494420E+02 -0.25135035255E+01  0.47787272669E+02  0.20000007408E+02 0.  0.
         12    1    1    2    0    0 -0.12723859038E+02  0.41417494420E+02  0.25135035255E+01  0.43400727331E+02  0.00000000000E+00 0. -1.
         11    1    3    3    0    0  0.73525779543E+01 -0.17106329685E+02  0.22474153481E+01  0.18754673920E+02  0.51100000000E-03 0. -1.
        -11    1    3    3    0    0  0.98885650490E+01 -0.12185021866E+02 -0.22957905392E+01  0.15859669955E+02  0.51100000000E-03 0.  1.
        -12    1    3    3    0    0 -0.45172839651E+01 -0.12126142870E+02 -0.24651283345E+01  0.13172928794E+02  0.00000000000E+00 0.  1.
</event>
<event>
 7    1  0.2647566E-010  0.4778727E+02  0.7816164E-02  0.1312668E+00
        -11   -1    0    0    0    0  0.00000000000E+00  0.00000000000E+00  0.45593999997E+02  0.45594000000E+02  0.51100000000E-03 0.  1.
         11   -1    0    0    0    0 -0.00000000000E+00 -0.00000000000E+00 -0.45593999997E+02  0.45594000000E+02  0.51100000000E-03 0. -1.
    9900012    2    1    2    0    0 -0.10646490997E+02 -0.36473551723E+02 -0.20975115711E+02  0.47787271608E+02  0.20000002572E+02 0.  0.
         12    1    1    2    0    0  0.10646490997E+02  0.36473551723E+02  0.20975115711E+02  0.43400728392E+02  0.00000000000E+00 0. -1.
         11    1    3    3    0    0  0.35024632255E+00 -0.47495013992E+01 -0.69990108788E+01  0.84656121793E+01  0.51100000000E-03 0. -1.
        -11    1    3    3    0    0 -0.11512698377E+02 -0.10821932996E+02 -0.50542445941E+01  0.16589208732E+02  0.51100000000E-03 0.  1.
        -12    1    3    3    0    0  0.51596105735E+00 -0.20902117327E+02 -0.89218602386E+01  0.22732450697E+02  0.00000000000E+00 0.  1.
</event>
<event>
 7    1  0.2647566E-010  0.4778727E+02  0.7816164E-02  0.1312668E+00
        -11   -1    0    0    0    0  0.00000000000E+00  0.00000000000E+00  0.45593999997E+02  0.45594000000E+02  0.51100000000E-03 0.  1.
         11   -1    0    0    0    0 -0.00000000000E+00 -0.00000000000E+00 -0.45593999997E+02  0.45594000000E+02  0.51100000000E-03 0. -1.
    9900012    2    1    2    0    0  0.11173305088E+02  0.30627037534E+01  0.41825829854E+02  0.47787274846E+02  0.20000017333E+02 0.  0.
         12    1    1    2    0    0 -0.11173305088E+02 -0.30627037534E+01 -0.41825829854E+02  0.43400725154E+02  0.00000000000E+00 0. -1.
         11    1    3    3    0    0  0.42109704339E+00 -0.27275318846E+01 -0.87245064675E+00  0.28944642498E+01  0.51100000000E-03 0. -1.
        -11    1    3    3    0    0  0.50430387903E+01  0.16083961051E+01  0.88464728603E+01  0.10309183314E+02  0.51100000000E-03 0.  1.
        -12    1    3    3    0    0  0.57091692546E+01  0.41818395329E+01  0.33851807641E+02  0.34583627282E+02  0.00000000000E+00 0.  1.
</event>
<event>
 7    1  0.2647566E-010  0.4778728E+02  0.7816164E-02  0.1312668E+00
        -11   -1    0    0    0    0  0.00000000000E+00  0.00000000000E+00  0.45593999997E+02  0.45594000000E+02  0.51100000000E-03 0.  1.
         11   -1    0    0    0    0 -0.00000000000E+00 -0.00000000000E+00 -0.45593999997E+02  0.45594000000E+02  0.51100000000E-03 0. -1.
    9900012    2    1    2    0    0 -0.15647082528E+02 -0.40431532065E+02 -0.20204273328E+01  0.47787284529E+02  0.20000061481E+02 0.  0.
         12    1    1    2    0    0  0.15647082528E+02  0.40431532065E+02  0.20204273328E+01  0.43400715471E+02  0.00000000000E+00 0. -1.
         11    1    3    3    0    0 -0.92652631388E+01 -0.10622686238E+02  0.36225129130E+01  0.14553664968E+02  0.51100000000E-03 0. -1.
        -11    1    3    3    0    0  0.29367630310E+00  0.66494810940E+00 -0.16242082775E+01  0.17794534411E+01  0.51100000000E-03 0.  1.
        -12    1    3    3    0    0 -0.66754956923E+01 -0.30473793937E+02 -0.40187319683E+01  0.31454166120E+02  0.00000000000E+00 0.  1.
</event>
<event>
 7    1  0.2647566E-010  0.4778727E+02  0.7816164E-02  0.1312668E+00
        -11   -1    0    0    0    0  0.00000000000E+00  0.00000000000E+00  0.45593999997E+02  0.45594000000E+02  0.51100000000E-03 0. -1.
         11   -1    0    0    0    0 -0.00000000000E+00 -0.00000000000E+00 -0.45593999997E+02  0.45594000000E+02  0.51100000000E-03 0.  1.
    9900012    2    1    2    0    0 -0.19788473831E+02 -0.37389539398E+02  0.96985673336E+01  0.47787267734E+02  0.19999984905E+02 0.  0.
         12    1    1    2    0    0  0.19788473831E+02  0.37389539398E+02 -0.96985673336E+01  0.43400732266E+02  0.00000000000E+00 0. -1.
         11    1    3    3    0    0 -0.98244142332E+01 -0.40816751357E+01  0.34983975914E+01  0.11199016605E+02  0.51100000000E-03 0. -1.
        -11    1    3    3    0    0 -0.10430822119E+02 -0.18468633149E+02  0.34647015228E+01  0.21491780228E+02  0.51100000000E-03 0.  1.
         12    1    3    3    0    0  0.46676252181E+00 -0.14839231113E+02  0.27354682194E+01  0.15096470901E+02  0.00000000000E+00 0. -1.
</event>
<event>
 7    1  0.2647566E-010  0.4778727E+02  0.7816164E-02  0.1312668E+00
        -11   -1    0    0    0    0  0.00000000000E+00  0.00000000000E+00  0.45593999997E+02  0.45594000000E+02  0.51100000000E-03 0.  1.
         11   -1    0    0    0    0 -0.00000000000E+00 -0.00000000000E+00 -0.45593999997E+02  0.45594000000E+02  0.51100000000E-03 0. -1.
    9900012    2    1    2    0    0  0.26287849033E+02  0.32832118641E+02 -0.10706264378E+02  0.47787272838E+02  0.20000008178E+02 0.  0.
         12    1    1    2    0    0 -0.26287849033E+02 -0.32832118641E+02  0.10706264378E+02  0.43400727162E+02  0.00000000000E+00 0. -1.
         11    1    3    3    0    0  0.67905520839E+01  0.50293110956E+01 -0.10420300315E+02  0.13415969090E+02  0.51100000000E-03 0. -1.
        -11    1    3    3    0    0  0.25879842164E+01  0.51844303113E+01 -0.18640426357E+01  0.60869232922E+01  0.51100000000E-03 0.  1.
         12    1    3    3    0    0  0.16909312733E+02  0.22618377234E+02  0.15780785722E+01  0.28284380456E+02  0.00000000000E+00 0. -1.
</event>
<event>
 7    1  0.2647566E-010  0.4778727E+02  0.7816164E-02  0.1312668E+00
        -11   -1    0    0    0    0  0.00000000000E+00  0.00000000000E+00  0.45593999997E+02  0.45594000000E+02  0.51100000000E-03 0. -1.
         11   -1    0    0    0    0 -0.00000000000E+00 -0.00000000000E+00 -0.45593999997E+02  0.45594000000E+02  0.51100000000E-03 0.  1.
    9900012    2    1    2    0    0  0.13334467436E+02  0.22553235541E+02 -0.34600094883E+02  0.47787273957E+02  0.20000013280E+02 0.  0.
         12    1    1    2    0    0 -0.13334467436E+02 -0.22553235541E+02  0.34600094883E+02  0.43400726043E+02  0.00000000000E+00 0. -1.
         11    1    3    3    0    0  0.11439958468E+01 -0.25191147778E+01  0.15462578473E+00  0.27710242070E+01  0.51100000000E-03 0. -1.
        -11    1    3    3    0    0 -0.32142441750E+00  0.53325443951E+00  0.56886930074E-01  0.62522822821E+00  0.51100000000E-03 0.  1.
        -12    1    3    3    0    0  0.12511896007E+02  0.24539095879E+02 -0.34811607597E+02  0.44391021522E+02  0.00000000000E+00 0.  1.
</event>
<event>
 7    1  0.2647566E-010  0.4778729E+02  0.7816164E-02  0.1312668E+00
        -11   -1    0    0    0    0  0.00000000000E+00  0.00000000000E+00  0.45593999997E+02  0.45594000000E+02  0.51100000000E-03 0. -1.
         11   -1    0    0    0    0 -0.00000000000E+00 -0.00000000000E+00 -0.45593999997E+02  0.45594000000E+02  0.51100000000E-03 0.  1.
    9900012    2    1    2    0    0 -0.14907157140E+02 -0.17860505055E+02 -0.36638787043E+02  0.47787289283E+02  0.20000083155E+02 0.  0.
         12    1    1    2    0    0  0.14907157140E+02  0.17860505055E+02  0.36638787043E+02  0.43400710717E+02  0.00000000000E+00 0. -1.
         11    1    3    3    0    0 -0.50320083468E+01  0.91586181777E+00 -0.35097788630E+01  0.62031007408E+01  0.51100000000E-03 0. -1.
        -11    1    3    3    0    0 -0.11062022557E+02 -0.68754584982E+01 -0.15000630609E+02  0.19866031097E+02  0.51100000000E-03 0.  1.
         12    1    3    3    0    0  0.11868737631E+01 -0.11900908375E+02 -0.18128377571E+02  0.21718157445E+02  0.00000000000E+00 0. -1.
</event>
<event>
 7    1  0.2647566E-010  0.4778727E+02  0.7816164E-02  0.1312668E+00
        -11   -1    0    0    0    0  0.00000000000E+00  0.00000000000E+00  0.45593999997E+02  0.45594000000E+02  0.51100000000E-03 0.  1.
         11   -1    0    0    0    0 -0.00000000000E+00 -0.00000000000E+00 -0.45593999997E+02  0.45594000000E+02  0.51100000000E-03 0. -1.
    9900012    2    1    2    0    0  0.18479914657E+02  0.83356394941E+01  0.38374903771E+02  0.47787269927E+02  0.19999994903E+02 0.  0.
         12    1    1    2    0    0 -0.18479914657E+02 -0.83356394941E+01 -0.38374903771E+02  0.43400730073E+02  0.00000000000E+00 0. -1.
         11    1    3    3    0    0  0.13490875332E+02 -0.10197213418E+01  0.22871005122E+02  0.26573039427E+02  0.51100000000E-03 0. -1.
        -11    1    3    3    0    0  0.32992824334E+01  0.97082119795E+00 -0.77082328764E-01  0.34400145814E+01  0.51100000000E-03 0.  1.
         12    1    3    3    0    0  0.16897568917E+01  0.83845396379E+01  0.15580980978E+02  0.17774215919E+02  0.00000000000E+00 0. -1.
</event>
<event>
 7    1  0.2647566E-010  0.4778725E+02  0.7816164E-02  0.1312668E+00
        -11   -1    0    0    0    0  0.00000000000E+00  0.00000000000E+00  0.45593999997E+02  0.45594000000E+02  0.51100000000E-03 0.  1.
         11   -1    0    0    0    0 -0.00000000000E+00 -0.00000000000E+00 -0.45593999997E+02  0.45594000000E+02  0.51100000000E-03 0. -1.
    9900012    2    1    2    0    0  0.13085923106E+02 -0.81629263595E+01  0.40567845245E+02  0.47787253254E+02  0.19999918887E+02 0.  0.
         12    1    1    2    0    0 -0.13085923106E+02  0.81629263595E+01 -0.40567845245E+02  0.43400746746E+02  0.00000000000E+00 0. -1.
         11    1    3    3    0    0  0.66260295467E+00 -0.66945067809E+01  0.98913350819E+01  0.11962189335E+02  0.51100000000E-03 0. -1.
        -11    1    3    3    0    0  0.15105016263E+01 -0.62602652959E+01  0.12972090337E+02  0.14482667734E+02  0.51100000000E-03 0.  1.
        -12    1    3    3    0    0  0.10912818525E+02  0.47918457174E+01  0.17704419826E+02  0.21342396185E+02  0.00000000000E+00 0.  1.
</event>
<event>
 7    1  0.2647566E-010  0.4778726E+02  0.7816164E-02  0.1312668E+00
        -11   -1    0    0    0    0  0.00000000000E+00  0.00000000000E+00  0.45593999997E+02  0.45594000000E+02  0.51100000000E-03 0.  1.
         11   -1    0    0    0    0 -0.00000000000E+00 -0.00000000000E+00 -0.45593999997E+02  0.45594000000E+02  0.51100000000E-03 0. -1.
    9900012    2    1    2    0    0 -0.14768941822E+02 -0.26398562513E+02  0.31122630738E+02  0.47787263954E+02  0.19999967670E+02 0.  0.
         12    1    1    2    0    0  0.14768941822E+02  0.26398562513E+02 -0.31122630738E+02  0.43400736046E+02  0.00000000000E+00 0. -1.
         11    1    3    3    0    0 -0.35226676325E+01 -0.27976350547E+01  0.10689927679E-01  0.44984512539E+01  0.51100000000E-03 0. -1.
        -11    1    3    3    0    0 -0.74275425532E+00 -0.44417574392E+01 -0.83952158204E+00  0.45810140559E+01  0.51100000000E-03 0.  1.
        -12    1    3    3    0    0 -0.10503519934E+02 -0.19159170019E+02  0.31951462393E+02  0.38707798644E+02  0.00000000000E+00 0.  1.
</event>
<event>
 7    1  0.2647566E-010  0.4778727E+02  0.7816164E-02  0.1312668E+00
        -11   -1    0    0    0    0  0.00000000000E+00  0.00000000000E+00  0.45593999997E+02  0.45594000000E+02  0.51100000000E-03 0.  1.
         11   -1    0    0    0    0 -0.00000000000E+00 -0.00000000000E+00 -0.45593999997E+02  0.45594000000E+02  0.51100000000E-03 0. -1.
    9900012    2    1    2    0    0 -0.23477508548E+02  0.33859824304E+01  0.36345087202E+02  0.47787266730E+02  0.19999980327E+02 0.  0.
         12    1    1    2    0    0  0.23477508548E+02 -0.33859824304E+01 -0.36345087202E+02  0.43400733270E+02  0.00000000000E+00 0. -1.
         11    1    3    3    0    0  0.75637079034E+00 -0.12661458703E+01  0.85970658469E+00  0.17071373144E+01  0.51100000000E-03 0. -1.
        -11    1    3    3    0    0 -0.93155277642E+01 -0.55062276649E+01  0.92489166629E+01  0.14235169838E+02  0.51100000000E-03 0.  1.
        -12    1    3    3    0    0 -0.14918351574E+02  0.10158355966E+02  0.26236463955E+02  0.31844959577E+02  0.00000000000E+00 0.  1.
</event>
<event>
 7    1  0.2647566E-010  0.4778728E+02  0.7816164E-02  0.1312668E+00
        -11   -1    0    0    0    0  0.00000000000E+00  0.00000000000E+00  0.45593999997E+02  0.45594000000E+02  0.51100000000E-03 0.  1.
         11   -1    0    0    0    0 -0.00000000000E+00 -0.00000000000E+00 -0.45593999997E+02  0.45594000000E+02  0.51100000000E-03 0. -1.
    9900012    2    1    2    0    0  0.12203799124E+02 -0.40284428164E+02 -0.10576151847E+02  0.47787275888E+02  0.20000022083E+02 0.  0.
         12    1    1    2    0    0 -0.12203799124E+02  0.40284428164E+02  0.10576151847E+02  0.43400724112E+02  0.00000000000E+00 0. -1.
         11    1    3    3    0    0  0.15071785950E+01 -0.15008291918E+00  0.29363406836E-01  0.15149173808E+01  0.51100000000E-03 0. -1.
        -11    1    3    3    0    0  0.11418104945E+02 -0.11154206045E+02 -0.23778373723E+01  0.16138263347E+02  0.51100000000E-03 0.  1.
         12    1    3    3    0    0 -0.72148441544E+00 -0.28980139200E+02 -0.82276778811E+01  0.30134095160E+02  0.00000000000E+00 0. -1.
</event>
<event>
 7    1  0.2647566E-010  0.4778727E+02  0.7816164E-02  0.1312668E+00
        -11   -1    0    0    0    0  0.00000000000E+00  0.00000000000E+00  0.45593999997E+02  0.45594000000E+02  0.51100000000E-03 0.  1.
         11   -1    0    0    0    0 -0.00000000000E+00 -0.00000000000E+00 -0.45593999997E+02  0.45594000000E+02  0.51100000000E-03 0. -1.
    9900012    2    1    2    0    0  0.13646721124E+02  0.23263333920E+02  0.34003057314E+02  0.47787267181E+02  0.19999982384E+02 0.  0.
         12    1    1    2    0    0 -0.13646721124E+02 -0.23263333920E+02 -0.34003057314E+02  0.43400732819E+02  0.00000000000E+00 0. -1.
         11    1    3    3    0    0  0.93826123027E+01  0.63174618192E+01  0.17972206247E+02  0.21235440544E+02  0.51100000000E-03 0. -1.
        -11    1    3    3    0    0  0.66939321371E+01  0.56885380612E+01  0.10748515452E+02  0.13881598518E+02  0.51100000000E-03 0.  1.
        -12    1    3    3    0    0 -0.24298233156E+01  0.11257334040E+02  0.52823356152E+01  0.12670228119E+02  0.00000000000E+00 0.  1.
</event>
<event>
 7    1  0.2647566E-010  0.4778727E+02  0.7816164E-02  0.1312668E+00
        -11   -1    0    0    0    0  0.00000000000E+00  0.00000000000E+00  0.45593999997E+02  0.45594000000E+02  0.51100000000E-03 0.  1.
         11   -1    0    0    0    0 -0.00000000000E+00 -0.00000000000E+00 -0.45593999997E+02  0.45594000000E+02  0.51100000000E-03 0. -1.
    9900012    2    1    2    0    0 -0.12090544156E+02 -0.26840129734E+02  0.31891217924E+02  0.47787267255E+02  0.19999982723E+02 0.  0.
         12    1    1    2    0    0  0.12090544156E+02  0.26840129734E+02 -0.31891217924E+02  0.43400732745E+02  0.00000000000E+00 0. -1.
         11    1    3    3    0    0 -0.46776829684E+01 -0.11623096587E+02  0.10439929247E+02  0.16308562633E+02  0.51100000000E-03 0.  1.
        -11    1    3    3    0    0 -0.11426591091E+02 -0.15075478850E+02  0.16484981239E+02  0.25091665015E+02  0.51100000000E-03 0. -1.
         12    1    3    3    0    0  0.40137299040E+01 -0.14155429672E+00  0.49663074382E+01  0.63870396063E+01  0.00000000000E+00 0. -1.
</event>
<event>
 7    1  0.2647566E-010  0.4778727E+02  0.7816164E-02  0.1312668E+00
        -11   -1    0    0    0    0  0.00000000000E+00  0.00000000000E+00  0.45593999997E+02  0.45594000000E+02  0.51100000000E-03 0.  1.
         11   -1    0    0    0    0 -0.00000000000E+00 -0.00000000000E+00 -0.45593999997E+02  0.45594000000E+02  0.51100000000E-03 0. -1.
    9900012    2    1    2    0    0 -0.48329720289E+01  0.19952490615E+02  0.38238252765E+02  0.47787268729E+02  0.19999989443E+02 0.  0.
         12    1    1    2    0    0  0.48329720289E+01 -0.19952490615E+02 -0.38238252765E+02  0.43400731271E+02  0.00000000000E+00 0. -1.
         11    1    3    3    0    0 -0.12187237805E+01  0.29601861688E+01  0.67757591630E+01  0.74939243593E+01  0.51100000000E-03 0. -1.
        -11    1    3    3    0    0 -0.64370656486E+01  0.19940435709E+02  0.24657641347E+02  0.32358245742E+02  0.51100000000E-03 0.  1.
         12    1    3    3    0    0  0.28228174002E+01 -0.29481312634E+01  0.68048522544E+01  0.79350986273E+01  0.00000000000E+00 0. -1.
</event>
<event>
 7    1  0.2647566E-010  0.4778727E+02  0.7816164E-02  0.1312668E+00
        -11   -1    0    0    0    0  0.00000000000E+00  0.00000000000E+00  0.45593999997E+02  0.45594000000E+02  0.51100000000E-03 0.  1.
         11   -1    0    0    0    0 -0.00000000000E+00 -0.00000000000E+00 -0.45593999997E+02  0.45594000000E+02  0.51100000000E-03 0. -1.
    9900012    2    1    2    0    0  0.29526948574E+02  0.10424199867E+02  0.30051928829E+02  0.47787273493E+02  0.20000011166E+02 0.  0.
         12    1    1    2    0    0 -0.29526948574E+02 -0.10424199867E+02 -0.30051928829E+02  0.43400726507E+02  0.00000000000E+00 0. -1.
         11    1    3    3    0    0  0.76879751196E+01 -0.21187153535E+01  0.31079273988E+01  0.85588041902E+01  0.51100000000E-03 0. -1.
        -11    1    3    3    0    0 -0.15652259820E+01  0.71348697121E+00  0.41142639211E+01  0.44593905308E+01  0.51100000000E-03 0.  1.
        -12    1    3    3    0    0  0.23404199436E+02  0.11829428249E+02  0.22829737510E+02  0.34769078772E+02  0.00000000000E+00 0.  1.
</event>
<event>
 7    1  0.2647566E-010  0.4778727E+02  0.7816164E-02  0.1312668E+00
        -11   -1    0    0    0    0  0.00000000000E+00  0.00000000000E+00  0.45593999997E+02  0.45594000000E+02  0.51100000000E-03 0.  1.
         11   -1    0    0    0    0 -0.00000000000E+00 -0.00000000000E+00 -0.45593999997E+02  0.45594000000E+02  0.51100000000E-03 0. -1.
    9900012    2    1    2    0    0 -0.22397776709E+02 -0.32447071919E+02  0.18142506051E+02  0.47787269552E+02  0.19999993197E+02 0.  0.
         12    1    1    2    0    0  0.22397776709E+02  0.32447071919E+02 -0.18142506051E+02  0.43400730448E+02  0.00000000000E+00 0. -1.
         11    1    3    3    0    0 -0.28377989083E+01 -0.93252831807E+01  0.36364446836E+01  0.10403736792E+02  0.51100000000E-03 0. -1.
        -11    1    3    3    0    0 -0.18524878013E+01 -0.14695067339E+02  0.70495053174E+01  0.16403421614E+02  0.51100000000E-03 0.  1.
        -12    1    3    3    0    0 -0.17707489999E+02 -0.84267213988E+01  0.74565560500E+01  0.20980111147E+02  0.00000000000E+00 0.  1.
</event>
<event>
 7    1  0.2647566E-010  0.4778726E+02  0.7816164E-02  0.1312668E+00
        -11   -1    0    0    0    0  0.00000000000E+00  0.00000000000E+00  0.45593999997E+02  0.45594000000E+02  0.51100000000E-03 0.  1.
         11   -1    0    0    0    0 -0.00000000000E+00 -0.00000000000E+00 -0.45593999997E+02  0.45594000000E+02  0.51100000000E-03 0. -1.
    9900012    2    1    2    0    0  0.40558185693E+02 -0.41690408068E+01 -0.14875368114E+02  0.47787263779E+02  0.19999966874E+02 0.  0.
         12    1    1    2    0    0 -0.40558185693E+02  0.41690408068E+01  0.14875368114E+02  0.43400736221E+02  0.00000000000E+00 0. -1.
         11    1    3    3    0    0 -0.93031353172E+00  0.27379382412E+00 -0.78695499761E+00  0.12488974156E+01  0.51100000000E-03 0. -1.
        -11    1    3    3    0    0  0.65847108378E+01  0.47637320232E+01 -0.12341144649E+01  0.82203770218E+01  0.51100000000E-03 0.  1.
        -12    1    3    3    0    0  0.34903788387E+02 -0.92065666541E+01 -0.12854298652E+02  0.38317989342E+02  0.00000000000E+00 0.  1.
</event>
<event>
 7    1  0.2647566E-010  0.4778727E+02  0.7816164E-02  0.1312668E+00
        -11   -1    0    0    0    0  0.00000000000E+00  0.00000000000E+00  0.45593999997E+02  0.45594000000E+02  0.51100000000E-03 0.  1.
         11   -1    0    0    0    0 -0.00000000000E+00 -0.00000000000E+00 -0.45593999997E+02  0.45594000000E+02  0.51100000000E-03 0. -1.
    9900012    2    1    2    0    0  0.35446102816E+02  0.26253297508E+01  0.24905919784E+02  0.47787269575E+02  0.19999993298E+02 0.  0.
         12    1    1    2    0    0 -0.35446102816E+02 -0.26253297508E+01 -0.24905919784E+02  0.43400730425E+02  0.00000000000E+00 0. -1.
         11    1    3    3    0    0  0.10570345826E+01  0.10765727072E+00 -0.14962872503E+01  0.18351533977E+01  0.51100000000E-03 0. -1.
        -11    1    3    3    0    0 -0.12457566335E+00  0.14601723733E+01 -0.10802115876E+01  0.18205712814E+01  0.51100000000E-03 0.  1.
        -12    1    3    3    0    0  0.34513643897E+02  0.10575001068E+01  0.27482418622E+02  0.44131544895E+02  0.00000000000E+00 0.  1.
</event>
<event>
 7    1  0.2647566E-010  0.4778731E+02  0.7816164E-02  0.1312668E+00
        -11   -1    0    0    0    0  0.00000000000E+00  0.00000000000E+00  0.45593999997E+02  0.45594000000E+02  0.51100000000E-03 0.  1.
         11   -1    0    0    0    0 -0.00000000000E+00 -0.00000000000E+00 -0.45593999997E+02  0.45594000000E+02  0.51100000000E-03 0. -1.
    9900012    2    1    2    0    0 -0.38614507560E+02 -0.15220686702E+02  0.12683472712E+02  0.47787309017E+02  0.20000173132E+02 0.  0.
         12    1    1    2    0    0  0.38614507560E+02  0.15220686702E+02 -0.12683472712E+02  0.43400690983E+02  0.00000000000E+00 0. -1.
         11    1    3    3    0    0 -0.20420368829E+02 -0.95426223124E+01  0.10093609209E+02  0.24696842933E+02  0.51100000000E-03 0. -1.
        -11    1    3    3    0    0 -0.17043241439E+02 -0.30864609559E+01  0.62913117525E+01  0.18427667346E+02  0.51100000000E-03 0.  1.
         12    1    3    3    0    0 -0.11508972915E+01 -0.25916034335E+01 -0.37014482497E+01  0.46627987387E+01  0.00000000000E+00 0. -1.
</event>
<event>
 7    1  0.2647566E-010  0.4778727E+02  0.7816164E-02  0.1312668E+00
        -11   -1    0    0    0    0  0.00000000000E+00  0.00000000000E+00  0.45593999997E+02  0.45594000000E+02  0.51100000000E-03 0.  1.
         11   -1    0    0    0    0 -0.00000000000E+00 -0.00000000000E+00 -0.45593999997E+02  0.45594000000E+02  0.51100000000E-03 0. -1.
    9900012    2    1    2    0    0 -0.15553038738E+02  0.18766760439E+02  0.35910094678E+02  0.47787271767E+02  0.20000003294E+02 0.  0.
         12    1    1    2    0    0  0.15553038738E+02 -0.18766760439E+02 -0.35910094678E+02  0.43400728233E+02  0.00000000000E+00 0. -1.
         11    1    3    3    0    0 -0.29537960893E+01  0.64221053172E+01  0.14858948138E+02  0.16454685900E+02  0.51100000000E-03 0. -1.
        -11    1    3    3    0    0 -0.82833651414E+01  0.12217751540E+02  0.22384808155E+02  0.26813564238E+02  0.51100000000E-03 0.  1.
         12    1    3    3    0    0 -0.43158775078E+01  0.12690358172E+00 -0.13336616145E+01  0.45190216290E+01  0.00000000000E+00 0. -1.
</event>
<event>
 7    1  0.2647566E-010  0.4778728E+02  0.7816164E-02  0.1312668E+00
        -11   -1    0    0    0    0  0.00000000000E+00  0.00000000000E+00  0.45593999997E+02  0.45594000000E+02  0.51100000000E-03 0. -1.
         11   -1    0    0    0    0 -0.00000000000E+00 -0.00000000000E+00 -0.45593999997E+02  0.45594000000E+02  0.51100000000E-03 0.  1.
    9900012    2    1    2    0    0 -0.41034666267E+02 -0.17044462613E+01 -0.14031176354E+02  0.47787275552E+02  0.20000020552E+02 0.  0.
         12    1    1    2    0    0  0.41034666267E+02  0.17044462613E+01  0.14031176354E+02  0.43400724448E+02  0.00000000000E+00 0. -1.
         11    1    3    3    0    0 -0.19633821602E+02 -0.59559077269E+01 -0.11451469247E+02  0.23496721808E+02  0.51100000000E-03 0. -1.
        -11    1    3    3    0    0 -0.51399053592E+01  0.73092329395E+00 -0.53146776428E+01  0.74295810562E+01  0.51100000000E-03 0.  1.
        -12    1    3    3    0    0 -0.16260939306E+02  0.35205381716E+01  0.27349705358E+01  0.16860972688E+02  0.00000000000E+00 0.  1.
</event>
<event>
 7    1  0.2647566E-010  0.4778729E+02  0.7816164E-02  0.1312668E+00
        -11   -1    0    0    0    0  0.00000000000E+00  0.00000000000E+00  0.45593999997E+02  0.45594000000E+02  0.51100000000E-03 0.  1.
         11   -1    0    0    0    0 -0.00000000000E+00 -0.00000000000E+00 -0.45593999997E+02  0.45594000000E+02  0.51100000000E-03 0. -1.
    9900012    2    1    2    0    0  0.32565226695E+02 -0.55234003457E+01  0.28153496818E+02  0.47787293506E+02  0.20000102413E+02 0.  0.
         12    1    1    2    0    0 -0.32565226695E+02  0.55234003457E+01 -0.28153496818E+02  0.43400706494E+02  0.00000000000E+00 0. -1.
         11    1    3    3    0    0  0.36209664738E+01  0.40331229741E+01 -0.90584786105E+00  0.54952743096E+01  0.51100000000E-03 0. -1.
        -11    1    3    3    0    0  0.10068070859E+02 -0.23333730989E+01  0.77145636462E+01  0.12896711726E+02  0.51100000000E-03 0.  1.
         12    1    3    3    0    0  0.18876189362E+02 -0.72231502209E+01  0.21344781033E+02  0.29395307470E+02  0.00000000000E+00 0. -1.
</event>
<event>
 7    1  0.2647566E-010  0.4778722E+02  0.7816164E-02  0.1312668E+00
        -11   -1    0    0    0    0  0.00000000000E+00  0.00000000000E+00  0.45593999997E+02  0.45594000000E+02  0.51100000000E-03 0. -1.
         11   -1    0    0    0    0 -0.00000000000E+00 -0.00000000000E+00 -0.45593999997E+02  0.45594000000E+02  0.51100000000E-03 0.  1.
    9900012    2    1    2    0    0 -0.11423444981E+02  0.35791433064E+01 -0.41717171588E+02  0.47787219278E+02  0.19999763973E+02 0.  0.
         12    1    1    2    0    0  0.11423444981E+02 -0.35791433064E+01  0.41717171588E+02  0.43400780722E+02  0.00000000000E+00 0. -1.
         11    1    3    3    0    0 -0.54138976393E+01 -0.23566514309E+00 -0.37968115305E+01  0.66167668667E+01  0.51100000000E-03 0. -1.
        -11    1    3    3    0    0  0.26543144563E+01 -0.33404608030E+01 -0.62642743331E+01  0.75792609660E+01  0.51100000000E-03 0.  1.
        -12    1    3    3    0    0 -0.86638617979E+01  0.71552692525E+01 -0.31656085724E+02  0.33591191445E+02  0.00000000000E+00 0.  1.
</event>
<event>
 7    1  0.2647566E-010  0.4778728E+02  0.7816164E-02  0.1312668E+00
        -11   -1    0    0    0    0  0.00000000000E+00  0.00000000000E+00  0.45593999997E+02  0.45594000000E+02  0.51100000000E-03 0. -1.
         11   -1    0    0    0    0 -0.00000000000E+00 -0.00000000000E+00 -0.45593999997E+02  0.45594000000E+02  0.51100000000E-03 0.  1.
    9900012    2    1    2    0    0  0.25258624702E+02 -0.24515157620E+02 -0.25389598145E+02  0.47787276862E+02  0.20000026524E+02 0.  0.
         12    1    1    2    0    0 -0.25258624702E+02  0.24515157620E+02  0.25389598145E+02  0.43400723138E+02  0.00000000000E+00 0. -1.
         11    1    3    3    0    0 -0.10897346897E+01 -0.31482639668E+01 -0.10870393880E+01  0.35043890467E+01  0.51100000000E-03 0. -1.
        -11    1    3    3    0    0  0.41370268532E+01 -0.10451311339E+02 -0.12668233163E+02  0.16936027622E+02  0.51100000000E-03 0.  1.
         12    1    3    3    0    0  0.22211332538E+02 -0.10915582314E+02 -0.11634325594E+02  0.27346860193E+02  0.00000000000E+00 0. -1.
</event>
<event>
 7    1  0.2647566E-010  0.4778727E+02  0.7816164E-02  0.1312668E+00
        -11   -1    0    0    0    0  0.00000000000E+00  0.00000000000E+00  0.45593999997E+02  0.45594000000E+02  0.51100000000E-03 0.  1.
         11   -1    0    0    0    0 -0.00000000000E+00 -0.00000000000E+00 -0.45593999997E+02  0.45594000000E+02  0.51100000000E-03 0. -1.
    9900012    2    1    2    0    0 -0.23229325597E+02  0.63455644200E+01  0.36107555884E+02  0.47787270198E+02  0.19999996139E+02 0.  0.
         12    1    1    2    0    0  0.23229325597E+02 -0.63455644200E+01 -0.36107555884E+02  0.43400729802E+02  0.00000000000E+00 0. -1.
         11    1    3    3    0    0 -0.18139565547E+01 -0.33469559834E+01  0.39043589543E+01  0.54531249612E+01  0.51100000000E-03 0. -1.
        -11    1    3    3    0    0  0.41733131251E+00  0.51657639634E+01  0.61078381975E+01  0.80103040179E+01  0.51100000000E-03 0.  1.
        -12    1    3    3    0    0 -0.21832700355E+02  0.45267564400E+01  0.26095358732E+02  0.34323841218E+02  0.00000000000E+00 0.  1.
</event>
<event>
 7    1  0.2647566E-010  0.4778727E+02  0.7816164E-02  0.1312668E+00
        -11   -1    0    0    0    0  0.00000000000E+00  0.00000000000E+00  0.45593999997E+02  0.45594000000E+02  0.51100000000E-03 0.  1.
         11   -1    0    0    0    0 -0.00000000000E+00 -0.00000000000E+00 -0.45593999997E+02  0.45594000000E+02  0.51100000000E-03 0. -1.
    9900012    2    1    2    0    0  0.35689889892E+01 -0.36257078294E+02  0.23586224430E+02  0.47787269687E+02  0.19999993810E+02 0.  0.
         12    1    1    2    0    0 -0.35689889892E+01  0.36257078294E+02 -0.23586224430E+02  0.43400730313E+02  0.00000000000E+00 0. -1.
         11    1    3    3    0    0  0.31626215073E+01 -0.43111321362E+01  0.64896938854E+01  0.84085766977E+01  0.51100000000E-03 0. -1.
        -11    1    3    3    0    0  0.46621143815E+01 -0.15161296501E+02  0.12578571524E+01  0.15911707230E+02  0.51100000000E-03 0.  1.
        -12    1    3    3    0    0 -0.42557468995E+01 -0.16784649657E+02  0.15838673392E+02  0.23466985759E+02  0.00000000000E+00 0.  1.
</event>
<event>
 7    1  0.2647566E-010  0.4778727E+02  0.7816164E-02  0.1312668E+00
        -11   -1    0    0    0    0  0.00000000000E+00  0.00000000000E+00  0.45593999997E+02  0.45594000000E+02  0.51100000000E-03 0. -1.
         11   -1    0    0    0    0 -0.00000000000E+00 -0.00000000000E+00 -0.45593999997E+02  0.45594000000E+02  0.51100000000E-03 0.  1.
    9900012    2    1    2    0    0  0.15084685538E+02  0.16555698421E+02 -0.37175052769E+02  0.47787269173E+02  0.19999991466E+02 0.  0.
         12    1    1    2    0    0 -0.15084685538E+02 -0.16555698421E+02  0.37175052769E+02  0.43400730827E+02  0.00000000000E+00 0. -1.
         11    1    3    3    0    0 -0.27275647048E+00  0.28069752320E+01 -0.21300672573E+01  0.35342174278E+01  0.51100000000E-03 0.  1.
        -11    1    3    3    0    0  0.39372713726E+01  0.50574067291E+00  0.10836310747E+01  0.41148676840E+01  0.51100000000E-03 0. -1.
         12    1    3    3    0    0  0.11420170635E+02  0.13242982516E+02 -0.36128616586E+02  0.40138184061E+02  0.00000000000E+00 0. -1.
</event>
<event>
 7    1  0.2647566E-010  0.4778727E+02  0.7816164E-02  0.1312668E+00
        -11   -1    0    0    0    0  0.00000000000E+00  0.00000000000E+00  0.45593999997E+02  0.45594000000E+02  0.51100000000E-03 0.  1.
         11   -1    0    0    0    0 -0.00000000000E+00 -0.00000000000E+00 -0.45593999997E+02  0.45594000000E+02  0.51100000000E-03 0. -1.
    9900012    2    1    2    0    0 -0.39243206853E+02  0.17042622158E+02  0.72899270792E+01  0.47787270848E+02  0.19999999106E+02 0.  0.
         12    1    1    2    0    0  0.39243206853E+02 -0.17042622158E+02 -0.72899270792E+01  0.43400729152E+02  0.00000000000E+00 0. -1.
         11    1    3    3    0    0 -0.62919148099E+01 -0.21190146807E+00 -0.51326553011E+01  0.81226378049E+01  0.51100000000E-03 0. -1.
        -11    1    3    3    0    0 -0.11813289620E+02  0.30602485198E+01  0.43056552828E+01  0.12940540960E+02  0.51100000000E-03 0.  1.
        -12    1    3    3    0    0 -0.21138002422E+02  0.14194275106E+02  0.81169270975E+01  0.26724092084E+02  0.00000000000E+00 0.  1.
</event>
<event>
 7    1  0.2647566E-010  0.4778727E+02  0.7816164E-02  0.1312668E+00
        -11   -1    0    0    0    0  0.00000000000E+00  0.00000000000E+00  0.45593999997E+02  0.45594000000E+02  0.51100000000E-03 0. -1.
         11   -1    0    0    0    0 -0.00000000000E+00 -0.00000000000E+00 -0.45593999997E+02  0.45594000000E+02  0.51100000000E-03 0.  1.
    9900012    2    1    2    0    0 -0.34223104110E+02  0.26636429788E+02  0.17038299435E+01  0.47787270937E+02  0.19999999508E+02 0.  0.
         12    1    1    2    0    0  0.34223104110E+02 -0.26636429788E+02 -0.17038299435E+01  0.43400729063E+02  0.00000000000E+00 0. -1.
         11    1    3    3    0    0 -0.42469038002E+01  0.90977255492E+01 -0.22214961096E+01  0.10282988247E+02  0.51100000000E-03 0. -1.
        -11    1    3    3    0    0 -0.17336926889E+02  0.13124770747E+02 -0.37600871648E+01  0.22067326455E+02  0.51100000000E-03 0.  1.
         12    1    3    3    0    0 -0.12639273420E+02  0.44139334916E+01  0.76854132179E+01  0.15436956235E+02  0.00000000000E+00 0. -1.
</event>
<event>
 7    1  0.2647566E-010  0.4778727E+02  0.7816164E-02  0.1312668E+00
        -11   -1    0    0    0    0  0.00000000000E+00  0.00000000000E+00  0.45593999997E+02  0.45594000000E+02  0.51100000000E-03 0.  1.
         11   -1    0    0    0    0 -0.00000000000E+00 -0.00000000000E+00 -0.45593999997E+02  0.45594000000E+02  0.51100000000E-03 0. -1.
    9900012    2    1    2    0    0  0.12151315436E+02 -0.79687518009E+00  0.41657341887E+02  0.47787267172E+02  0.19999982346E+02 0.  0.
         12    1    1    2    0    0 -0.12151315436E+02  0.79687518009E+00 -0.41657341887E+02  0.43400732828E+02  0.00000000000E+00 0. -1.
         11    1    3    3    0    0  0.70251433905E+01  0.24159537462E+01  0.17125950052E+02  0.18667823591E+02  0.51100000000E-03 0. -1.
        -11    1    3    3    0    0  0.19125463521E+01  0.57276276726E+01  0.11545830566E+02  0.13029572365E+02  0.51100000000E-03 0.  1.
         12    1    3    3    0    0  0.32136256934E+01 -0.89404565988E+01  0.12985561269E+02  0.16089871216E+02  0.00000000000E+00 0. -1.
</event>
<event>
 7    1  0.2647566E-010  0.4778727E+02  0.7816164E-02  0.1312668E+00
        -11   -1    0    0    0    0  0.00000000000E+00  0.00000000000E+00  0.45593999997E+02  0.45594000000E+02  0.51100000000E-03 0.  1.
         11   -1    0    0    0    0 -0.00000000000E+00 -0.00000000000E+00 -0.45593999997E+02  0.45594000000E+02  0.51100000000E-03 0. -1.
    9900012    2    1    2    0    0  0.38481379632E+02 -0.19217906649E+02  0.57861158260E+01  0.47787266703E+02  0.19999980206E+02 0.  0.
         12    1    1    2    0    0 -0.38481379632E+02  0.19217906649E+02 -0.57861158260E+01  0.43400733297E+02  0.00000000000E+00 0. -1.
         11    1    3    3    0    0  0.31290818154E+02 -0.91883226536E+01  0.57990086302E+01  0.33123542614E+02  0.51100000000E-03 0.  1.
        -11    1    3    3    0    0  0.87183409225E+01 -0.79652586762E+01  0.11092691339E+01  0.11861083108E+02  0.51100000000E-03 0. -1.
         12    1    3    3    0    0 -0.15277794446E+01 -0.20643253194E+01 -0.11221619381E+01  0.28026409814E+01  0.00000000000E+00 0. -1.
</event>
<event>
 7    1  0.2647566E-010  0.4778727E+02  0.7816164E-02  0.1312668E+00
        -11   -1    0    0    0    0  0.00000000000E+00  0.00000000000E+00  0.45593999997E+02  0.45594000000E+02  0.51100000000E-03 0.  1.
         11   -1    0    0    0    0 -0.00000000000E+00 -0.00000000000E+00 -0.45593999997E+02  0.45594000000E+02  0.51100000000E-03 0. -1.
    9900012    2    1    2    0    0  0.94280192465E+01 -0.40117555964E+02  0.13613144351E+02  0.47787267949E+02  0.19999985887E+02 0.  0.
         12    1    1    2    0    0 -0.94280192465E+01  0.40117555964E+02 -0.13613144351E+02  0.43400732051E+02  0.00000000000E+00 0. -1.
         11    1    3    3    0    0 -0.18630585264E+01 -0.70492563112E+01  0.39433920207E+01  0.82893511510E+01  0.51100000000E-03 0. -1.
        -11    1    3    3    0    0 -0.11740622050E+01 -0.10037155969E+02  0.86302628865E+01  0.13289257307E+02  0.51100000000E-03 0.  1.
        -12    1    3    3    0    0  0.12465139978E+02 -0.23031143683E+02  0.10394894439E+01  0.26208659491E+02  0.00000000000E+00 0.  1.
</event>
<event>
 7    1  0.2647566E-010  0.4778727E+02  0.7816164E-02  0.1312668E+00
        -11   -1    0    0    0    0  0.00000000000E+00  0.00000000000E+00  0.45593999997E+02  0.45594000000E+02  0.51100000000E-03 0.  1.
         11   -1    0    0    0    0 -0.00000000000E+00 -0.00000000000E+00 -0.45593999997E+02  0.45594000000E+02  0.51100000000E-03 0. -1.
    9900012    2    1    2    0    0  0.50427302711E+01 -0.22561172708E+02  0.36731290709E+02  0.47787270056E+02  0.19999995493E+02 0.  0.
         12    1    1    2    0    0 -0.50427302711E+01  0.22561172708E+02 -0.36731290709E+02  0.43400729944E+02  0.00000000000E+00 0. -1.
         11    1    3    3    0    0 -0.34654097897E+01 -0.13040166896E+02  0.86325610063E+01  0.16017993866E+02  0.51100000000E-03 0. -1.
        -11    1    3    3    0    0 -0.67162611979E+00 -0.28447952704E+01  0.98853669488E+01  0.10308463598E+02  0.51100000000E-03 0.  1.
         12    1    3    3    0    0  0.91797661806E+01 -0.66762105415E+01  0.18213362754E+02  0.21460812592E+02  0.00000000000E+00 0. -1.
</event>
<event>
 7    1  0.2647566E-010  0.4778727E+02  0.7816164E-02  0.1312668E+00
        -11   -1    0    0    0    0  0.00000000000E+00  0.00000000000E+00  0.45593999997E+02  0.45594000000E+02  0.51100000000E-03 0. -1.
         11   -1    0    0    0    0 -0.00000000000E+00 -0.00000000000E+00 -0.45593999997E+02  0.45594000000E+02  0.51100000000E-03 0.  1.
    9900012    2    1    2    0    0 -0.21372211356E+02 -0.58844414778E+01 -0.37312535060E+02  0.47787270256E+02  0.19999996404E+02 0.  0.
         12    1    1    2    0    0  0.21372211356E+02  0.58844414778E+01  0.37312535060E+02  0.43400729744E+02  0.00000000000E+00 0. -1.
         11    1    3    3    0    0  0.47911373548E+00  0.32910369504E+01 -0.95379556230E+00  0.34597977421E+01  0.51100000000E-03 0. -1.
        -11    1    3    3    0    0 -0.86864621451E+01 -0.28708376575E+01 -0.69278339544E+01  0.11475679370E+02  0.51100000000E-03 0.  1.
         12    1    3    3    0    0 -0.13164862946E+02 -0.63046407708E+01 -0.29430905543E+02  0.32851793143E+02  0.00000000000E+00 0. -1.
</event>
<event>
 7    1  0.2647566E-010  0.4778727E+02  0.7816164E-02  0.1312668E+00
        -11   -1    0    0    0    0  0.00000000000E+00  0.00000000000E+00  0.45593999997E+02  0.45594000000E+02  0.51100000000E-03 0.  1.
         11   -1    0    0    0    0 -0.00000000000E+00 -0.00000000000E+00 -0.45593999997E+02  0.45594000000E+02  0.51100000000E-03 0. -1.
    9900012    2    1    2    0    0 -0.37031056493E+02 -0.22384547105E+02 -0.33550724547E+01  0.47787267227E+02  0.19999982593E+02 0.  0.
         12    1    1    2    0    0  0.37031056493E+02  0.22384547105E+02  0.33550724547E+01  0.43400732773E+02  0.00000000000E+00 0. -1.
         11    1    3    3    0    0 -0.34566163629E+01  0.15719924980E+01  0.21970578255E+01  0.43870742464E+01  0.51100000000E-03 0. -1.
        -11    1    3    3    0    0 -0.19494462364E+02 -0.99994454732E+01  0.23977862898E+01  0.22040243918E+02  0.51100000000E-03 0.  1.
        -12    1    3    3    0    0 -0.14079977766E+02 -0.13957094130E+02 -0.79499165700E+01  0.21359949062E+02  0.00000000000E+00 0.  1.
</event>
<event>
 7    1  0.2647566E-010  0.4778727E+02  0.7816164E-02  0.1312668E+00
        -11   -1    0    0    0    0  0.00000000000E+00  0.00000000000E+00  0.45593999997E+02  0.45594000000E+02  0.51100000000E-03 0.  1.
         11   -1    0    0    0    0 -0.00000000000E+00 -0.00000000000E+00 -0.45593999997E+02  0.45594000000E+02  0.51100000000E-03 0. -1.
    9900012    2    1    2    0    0  0.11435399549E+02 -0.14168718856E+02  0.39396730626E+02  0.47787270272E+02  0.19999996477E+02 0.  0.
         12    1    1    2    0    0 -0.11435399549E+02  0.14168718856E+02 -0.39396730626E+02  0.43400729728E+02  0.00000000000E+00 0. -1.
         11    1    3    3    0    0 -0.11594394662E+01 -0.48355432148E+01  0.91120996777E+01  0.10380613607E+02  0.51100000000E-03 0. -1.
        -11    1    3    3    0    0  0.77632468678E+01 -0.45029008556E+01  0.29125746085E+02  0.30477093092E+02  0.51100000000E-03 0.  1.
         12    1    3    3    0    0  0.48315921476E+01 -0.48302747860E+01  0.11588848638E+01  0.69295635733E+01  0.00000000000E+00 0. -1.
</event>
<event>
 7    1  0.2647566E-010  0.4778734E+02  0.7816164E-02  0.1312667E+00
        -11   -1    0    0    0    0  0.00000000000E+00  0.00000000000E+00  0.45593999997E+02  0.45594000000E+02  0.51100000000E-03 0.  1.
         11   -1    0    0    0    0 -0.00000000000E+00 -0.00000000000E+00 -0.45593999997E+02  0.45594000000E+02  0.51100000000E-03 0. -1.
    9900012    2    1    2    0    0 -0.14526471924E+02  0.18439939668E+02  0.36504354852E+02  0.47787335435E+02  0.20000293580E+02 0.  0.
         12    1    1    2    0    0  0.14526471924E+02 -0.18439939668E+02 -0.36504354852E+02  0.43400664565E+02  0.00000000000E+00 0. -1.
         11    1    3    3    0    0 -0.15226277817E+01 -0.20059998766E+01  0.12318192385E+01  0.28035352261E+01  0.51100000000E-03 0. -1.
        -11    1    3    3    0    0  0.53401270017E+00  0.64068157175E+01  0.26039207104E+01  0.69363434552E+01  0.51100000000E-03 0.  1.
        -12    1    3    3    0    0 -0.13537856842E+02  0.14039123827E+02  0.32668614904E+02  0.38047456754E+02  0.00000000000E+00 0.  1.
</event>
<event>
 7    1  0.2647566E-010  0.4778728E+02  0.7816164E-02  0.1312668E+00
        -11   -1    0    0    0    0  0.00000000000E+00  0.00000000000E+00  0.45593999997E+02  0.45594000000E+02  0.51100000000E-03 0.  1.
         11   -1    0    0    0    0 -0.00000000000E+00 -0.00000000000E+00 -0.45593999997E+02  0.45594000000E+02  0.51100000000E-03 0. -1.
    9900012    2    1    2    0    0  0.14101370643E+02  0.11984796119E+02  0.39257338372E+02  0.47787278715E+02  0.20000034972E+02 0.  0.
         12    1    1    2    0    0 -0.14101370643E+02 -0.11984796119E+02 -0.39257338372E+02  0.43400721285E+02  0.00000000000E+00 0. -1.
         11    1    3    3    0    0  0.56672907192E+01  0.43444058809E+01  0.44391877181E+01  0.84082361059E+01  0.51100000000E-03 0. -1.
        -11    1    3    3    0    0  0.26388858924E+01 -0.17882119610E+01  0.38479259822E+00  0.32108388896E+01  0.51100000000E-03 0.  1.
        -12    1    3    3    0    0  0.57951940318E+01  0.94286021986E+01  0.34433358056E+02  0.36168203719E+02  0.00000000000E+00 0.  1.
</event>
<event>
 7    1  0.2647566E-010  0.4778727E+02  0.7816164E-02  0.1312668E+00
        -11   -1    0    0    0    0  0.00000000000E+00  0.00000000000E+00  0.45593999997E+02  0.45594000000E+02  0.51100000000E-03 0. -1.
         11   -1    0    0    0    0 -0.00000000000E+00 -0.00000000000E+00 -0.45593999997E+02  0.45594000000E+02  0.51100000000E-03 0.  1.
    9900012    2    1    2    0    0  0.45176232128E+01 -0.20639034194E+02 -0.37911010451E+02  0.47787269991E+02  0.19999995195E+02 0.  0.
         12    1    1    2    0    0 -0.45176232128E+01  0.20639034194E+02  0.37911010451E+02  0.43400730009E+02  0.00000000000E+00 0. -1.
         11    1    3    3    0    0 -0.14893926396E+01 -0.13811023814E+01 -0.13016011595E+02  0.13173545169E+02  0.51100000000E-03 0. -1.
        -11    1    3    3    0    0  0.53250897872E+01 -0.15031463903E+02 -0.25711633232E+02  0.30255405666E+02  0.51100000000E-03 0.  1.
        -12    1    3    3    0    0  0.68192606515E+00 -0.42264679102E+01  0.81663437653E+00  0.43583191553E+01  0.00000000000E+00 0.  1.
</event>
<event>
 7    1  0.2647566E-010  0.4778727E+02  0.7816164E-02  0.1312668E+00
        -11   -1    0    0    0    0  0.00000000000E+00  0.00000000000E+00  0.45593999997E+02  0.45594000000E+02  0.51100000000E-03 0.  1.
         11   -1    0    0    0    0 -0.00000000000E+00 -0.00000000000E+00 -0.45593999997E+02  0.45594000000E+02  0.51100000000E-03 0. -1.
    9900012    2    1    2    0    0 -0.21339152657E+02 -0.20157866778E+02  0.31967549626E+02  0.47787271225E+02  0.20000000822E+02 0.  0.
         12    1    1    2    0    0  0.21339152657E+02  0.20157866778E+02 -0.31967549626E+02  0.43400728775E+02  0.00000000000E+00 0. -1.
         11    1    3    3    0    0 -0.36015332316E+01 -0.30451496433E+00  0.11273804002E+02  0.11839021409E+02  0.51100000000E-03 0.  1.
        -11    1    3    3    0    0 -0.46701523308E+01 -0.95745473383E+01  0.14952553245E+02  0.18359224612E+02  0.51100000000E-03 0. -1.
         12    1    3    3    0    0 -0.13067467095E+02 -0.10278804475E+02  0.57411923781E+01  0.17589025204E+02  0.00000000000E+00 0. -1.
</event>
<event>
 7    1  0.2647566E-010  0.4778729E+02  0.7816164E-02  0.1312668E+00
        -11   -1    0    0    0    0  0.00000000000E+00  0.00000000000E+00  0.45593999997E+02  0.45594000000E+02  0.51100000000E-03 0. -1.
         11   -1    0    0    0    0 -0.00000000000E+00 -0.00000000000E+00 -0.45593999997E+02  0.45594000000E+02  0.51100000000E-03 0.  1.
    9900012    2    1    2    0    0  0.24821157346E+02  0.35033570545E+02 -0.63387916259E+01  0.47787294978E+02  0.20000109122E+02 0.  0.
         12    1    1    2    0    0 -0.24821157346E+02 -0.35033570545E+02  0.63387916259E+01  0.43400705022E+02  0.00000000000E+00 0. -1.
         11    1    3    3    0    0  0.27177956246E+01  0.35809409441E+01 -0.71088108346E+00  0.45513627935E+01  0.51100000000E-03 0. -1.
        -11    1    3    3    0    0  0.23836228937E+02  0.23914316362E+02 -0.16290428350E+00  0.33765172516E+02  0.51100000000E-03 0.  1.
         12    1    3    3    0    0 -0.17328672154E+01  0.75383132390E+01 -0.54650062590E+01  0.94707596678E+01  0.00000000000E+00 0. -1.
</event>
<event>
 7    1  0.2647566E-010  0.4778731E+02  0.7816164E-02  0.1312668E+00
        -11   -1    0    0    0    0  0.00000000000E+00  0.00000000000E+00  0.45593999997E+02  0.45594000000E+02  0.51100000000E-03 0. -1.
         11   -1    0    0    0    0 -0.00000000000E+00 -0.00000000000E+00 -0.45593999997E+02  0.45594000000E+02  0.51100000000E-03 0.  1.
    9900012    2    1    2    0    0 -0.33854242968E+02 -0.12640586535E+02 -0.24035922249E+02  0.47787311604E+02  0.20000184925E+02 0.  0.
         12    1    1    2    0    0  0.33854242968E+02  0.12640586535E+02  0.24035922249E+02  0.43400688396E+02  0.00000000000E+00 0. -1.
         11    1    3    3    0    0 -0.10966860770E+02 -0.81913597656E+01 -0.89738079858E+01  0.16367640025E+02  0.51100000000E-03 0. -1.
        -11    1    3    3    0    0 -0.11072672707E+02 -0.95992182928E+01 -0.72651309256E+01  0.16356381028E+02  0.51100000000E-03 0.  1.
        -12    1    3    3    0    0 -0.11814709491E+02  0.51499915229E+01 -0.77969833373E+01  0.15063290551E+02  0.00000000000E+00 0.  1.
</event>
<event>
 7    1  0.2647566E-010  0.4778729E+02  0.7816164E-02  0.1312668E+00
        -11   -1    0    0    0    0  0.00000000000E+00  0.00000000000E+00  0.45593999997E+02  0.45594000000E+02  0.51100000000E-03 0.  1.
         11   -1    0    0    0    0 -0.00000000000E+00 -0.00000000000E+00 -0.45593999997E+02  0.45594000000E+02  0.51100000000E-03 0. -1.
    9900012    2    1    2    0    0  0.21023746800E+02  0.15832542802E+02  0.34510210373E+02  0.47787286168E+02  0.20000068954E+02 0.  0.
         12    1    1    2    0    0 -0.21023746800E+02 -0.15832542802E+02 -0.34510210373E+02  0.43400713832E+02  0.00000000000E+00 0. -1.
         11    1    3    3    0    0  0.17982122794E+02  0.98749347703E+01  0.20609072530E+02  0.29079287262E+02  0.51100000000E-03 0.  1.
        -11    1    3    3    0    0  0.65115942203E+01  0.41386458118E+01  0.12204009886E+02  0.14438390007E+02  0.51100000000E-03 0. -1.
         12    1    3    3    0    0 -0.34699702135E+01  0.18189622200E+01  0.16971279576E+01  0.42696088984E+01  0.00000000000E+00 0. -1.
</event>
<event>
 7    1  0.2647566E-010  0.4778727E+02  0.7816164E-02  0.1312668E+00
        -11   -1    0    0    0    0  0.00000000000E+00  0.00000000000E+00  0.45593999997E+02  0.45594000000E+02  0.51100000000E-03 0. -1.
         11   -1    0    0    0    0 -0.00000000000E+00 -0.00000000000E+00 -0.45593999997E+02  0.45594000000E+02  0.51100000000E-03 0.  1.
    9900012    2    1    2    0    0 -0.19476684019E+02 -0.59471506550E+01 -0.38326408635E+02  0.47787269360E+02  0.19999992320E+02 0.  0.
         12    1    1    2    0    0  0.19476684019E+02  0.59471506550E+01  0.38326408635E+02  0.43400730640E+02  0.00000000000E+00 0. -1.
         11    1    3    3    0    0  0.19154676563E+01 -0.57471392541E+00 -0.33737429891E+01  0.39219197411E+01  0.51100000000E-03 0.  1.
        -11    1    3    3    0    0 -0.68523511175E+01  0.17206034607E+01 -0.22105326685E+02  0.23206909751E+02  0.51100000000E-03 0. -1.
        -12    1    3    3    0    0 -0.14539800557E+02 -0.70930401903E+01 -0.12847338961E+02  0.20658439868E+02  0.00000000000E+00 0.  1.
</event>
<event>
 7    1  0.2647566E-010  0.4778728E+02  0.7816164E-02  0.1312668E+00
        -11   -1    0    0    0    0  0.00000000000E+00  0.00000000000E+00  0.45593999997E+02  0.45594000000E+02  0.51100000000E-03 0. -1.
         11   -1    0    0    0    0 -0.00000000000E+00 -0.00000000000E+00 -0.45593999997E+02  0.45594000000E+02  0.51100000000E-03 0.  1.
    9900012    2    1    2    0    0 -0.39891761699E+02  0.15708261801E+01 -0.17023591714E+02  0.47787276260E+02  0.20000023779E+02 0.  0.
         12    1    1    2    0    0  0.39891761699E+02 -0.15708261801E+01  0.17023591714E+02  0.43400723740E+02  0.00000000000E+00 0. -1.
         11    1    3    3    0    0 -0.56503818177E+01 -0.21384213959E+01  0.37573524424E+01  0.71145877175E+01  0.51100000000E-03 0. -1.
        -11    1    3    3    0    0 -0.50042462275E+01 -0.14942850996E+01 -0.23982705204E+01  0.57469183058E+01  0.51100000000E-03 0.  1.
        -12    1    3    3    0    0 -0.29237133654E+02  0.52035326756E+01 -0.18382673636E+02  0.34925770236E+02  0.00000000000E+00 0.  1.
</event>
<event>
 7    1  0.2647566E-010  0.4778727E+02  0.7816164E-02  0.1312668E+00
        -11   -1    0    0    0    0  0.00000000000E+00  0.00000000000E+00  0.45593999997E+02  0.45594000000E+02  0.51100000000E-03 0.  1.
         11   -1    0    0    0    0 -0.00000000000E+00 -0.00000000000E+00 -0.45593999997E+02  0.45594000000E+02  0.51100000000E-03 0. -1.
    9900012    2    1    2    0    0 -0.41415800719E+02  0.87195642356E+01  0.96085352434E+01  0.47787270753E+02  0.19999998672E+02 0.  0.
         12    1    1    2    0    0  0.41415800719E+02 -0.87195642356E+01 -0.96085352434E+01  0.43400729247E+02  0.00000000000E+00 0. -1.
         11    1    3    3    0    0 -0.17566393296E+01  0.42761873734E+01 -0.21372697729E+01  0.50930818303E+01  0.51100000000E-03 0. -1.
        -11    1    3    3    0    0 -0.78755183642E+01  0.36353559094E+00  0.65111592643E+01  0.10225025323E+02  0.51100000000E-03 0.  1.
        -12    1    3    3    0    0 -0.31783643025E+02  0.40798412712E+01  0.52346457520E+01  0.32469163600E+02  0.00000000000E+00 0.  1.
</event>
<event>
 7    1  0.2647566E-010  0.4778725E+02  0.7816164E-02  0.1312668E+00
        -11   -1    0    0    0    0  0.00000000000E+00  0.00000000000E+00  0.45593999997E+02  0.45594000000E+02  0.51100000000E-03 0. -1.
         11   -1    0    0    0    0 -0.00000000000E+00 -0.00000000000E+00 -0.45593999997E+02  0.45594000000E+02  0.51100000000E-03 0.  1.
    9900012    2    1    2    0    0 -0.35578071632E+02  0.82001766019E+01 -0.23464499334E+02  0.47787253390E+02  0.19999919505E+02 0.  0.
         12    1    1    2    0    0  0.35578071632E+02 -0.82001766019E+01  0.23464499334E+02  0.43400746610E+02  0.00000000000E+00 0. -1.
         11    1    3    3    0    0 -0.19325583798E+02  0.42598024256E+01 -0.89303730288E+01  0.21711187635E+02  0.51100000000E-03 0.  1.
        -11    1    3    3    0    0 -0.77263907241E+01  0.63069708093E+01 -0.11616188716E+01  0.10041133057E+02  0.51100000000E-03 0. -1.
         12    1    3    3    0    0 -0.85260971098E+01 -0.23665966330E+01 -0.13372507433E+02  0.16034932697E+02  0.00000000000E+00 0. -1.
</event>
<event>
 7    1  0.2647566E-010  0.4778727E+02  0.7816164E-02  0.1312668E+00
        -11   -1    0    0    0    0  0.00000000000E+00  0.00000000000E+00  0.45593999997E+02  0.45594000000E+02  0.51100000000E-03 0.  1.
         11   -1    0    0    0    0 -0.00000000000E+00 -0.00000000000E+00 -0.45593999997E+02  0.45594000000E+02  0.51100000000E-03 0. -1.
    9900012    2    1    2    0    0 -0.32068001414E+02 -0.29014211362E+01  0.29100659476E+02  0.47787270269E+02  0.19999996464E+02 0.  0.
         12    1    1    2    0    0  0.32068001414E+02  0.29014211362E+01 -0.29100659476E+02  0.43400729731E+02  0.00000000000E+00 0. -1.
         11    1    3    3    0    0 -0.59139411257E+01  0.42149860647E+01  0.71346399789E+01  0.10180564574E+02  0.51100000000E-03 0. -1.
        -11    1    3    3    0    0 -0.13189107488E+02 -0.52590056454E+00  0.27091513850E+01  0.13474740414E+02  0.51100000000E-03 0.  1.
         12    1    3    3    0    0 -0.12964952800E+02 -0.65905066364E+01  0.19256868112E+02  0.24131965281E+02  0.00000000000E+00 0. -1.
</event>
<event>
 7    1  0.2647566E-010  0.4778724E+02  0.7816164E-02  0.1312668E+00
        -11   -1    0    0    0    0  0.00000000000E+00  0.00000000000E+00  0.45593999997E+02  0.45594000000E+02  0.51100000000E-03 0.  1.
         11   -1    0    0    0    0 -0.00000000000E+00 -0.00000000000E+00 -0.45593999997E+02  0.45594000000E+02  0.51100000000E-03 0. -1.
    9900012    2    1    2    0    0  0.34056260546E+02  0.20953292007E+02 -0.16874742955E+02  0.47787236434E+02  0.19999842196E+02 0.  0.
         12    1    1    2    0    0 -0.34056260546E+02 -0.20953292007E+02  0.16874742955E+02  0.43400763566E+02  0.00000000000E+00 0. -1.
         11    1    3    3    0    0  0.13316119785E+01  0.30612234318E+01 -0.62427610980E+00  0.33961743600E+01  0.51100000000E-03 0. -1.
        -11    1    3    3    0    0  0.24393286000E+02  0.98652797305E+01 -0.25148740643E+01  0.26432569641E+02  0.51100000000E-03 0.  1.
         12    1    3    3    0    0  0.83313625679E+01  0.80267888450E+01 -0.13735592781E+02  0.17958492433E+02  0.00000000000E+00 0. -1.
</event>
<event>
 7    1  0.2647566E-010  0.4778727E+02  0.7816164E-02  0.1312668E+00
        -11   -1    0    0    0    0  0.00000000000E+00  0.00000000000E+00  0.45593999997E+02  0.45594000000E+02  0.51100000000E-03 0.  1.
         11   -1    0    0    0    0 -0.00000000000E+00 -0.00000000000E+00 -0.45593999997E+02  0.45594000000E+02  0.51100000000E-03 0. -1.
    9900012    2    1    2    0    0 -0.13458012747E+02  0.63835082036E+01  0.40764639099E+02  0.47787273221E+02  0.20000009924E+02 0.  0.
         12    1    1    2    0    0  0.13458012747E+02 -0.63835082036E+01 -0.40764639099E+02  0.43400726779E+02  0.00000000000E+00 0. -1.
         11    1    3    3    0    0  0.10869058770E+01 -0.23384157006E+00  0.20380038558E+01  0.23215310127E+01  0.51100000000E-03 0. -1.
        -11    1    3    3    0    0 -0.82254507743E+01  0.12312136427E+02  0.19881418361E+02  0.24789464297E+02  0.51100000000E-03 0.  1.
         12    1    3    3    0    0 -0.63194678501E+01 -0.56947866531E+01  0.18845216882E+02  0.20676277911E+02  0.00000000000E+00 0. -1.
</event>
<event>
 7    1  0.2647566E-010  0.4778727E+02  0.7816164E-02  0.1312668E+00
        -11   -1    0    0    0    0  0.00000000000E+00  0.00000000000E+00  0.45593999997E+02  0.45594000000E+02  0.51100000000E-03 0.  1.
         11   -1    0    0    0    0 -0.00000000000E+00 -0.00000000000E+00 -0.45593999997E+02  0.45594000000E+02  0.51100000000E-03 0. -1.
    9900012    2    1    2    0    0  0.36595722501E+02  0.20111590457E+01  0.23245043318E+02  0.47787266078E+02  0.19999977356E+02 0.  0.
         12    1    1    2    0    0 -0.36595722501E+02 -0.20111590457E+01 -0.23245043318E+02  0.43400733922E+02  0.00000000000E+00 0. -1.
         11    1    3    3    0    0  0.40961228020E+01  0.24394689686E+01  0.16256344598E+01  0.50370545476E+01  0.51100000000E-03 0. -1.
        -11    1    3    3    0    0  0.31725801017E+02  0.36472323916E+01  0.21684903257E+02  0.38601344327E+02  0.51100000000E-03 0.  1.
         12    1    3    3    0    0  0.77379868206E+00 -0.40755423144E+01 -0.65494398601E-01  0.41488672036E+01  0.00000000000E+00 0. -1.
</event>
<event>
 7    1  0.2647566E-010  0.4778727E+02  0.7816164E-02  0.1312668E+00
        -11   -1    0    0    0    0  0.00000000000E+00  0.00000000000E+00  0.45593999997E+02  0.45594000000E+02  0.51100000000E-03 0.  1.
         11   -1    0    0    0    0 -0.00000000000E+00 -0.00000000000E+00 -0.45593999997E+02  0.45594000000E+02  0.51100000000E-03 0. -1.
    9900012    2    1    2    0    0 -0.41918996817E+02  0.67488568764E+01 -0.89929869745E+01  0.47787272149E+02  0.20000005037E+02 0.  0.
         12    1    1    2    0    0  0.41918996817E+02 -0.67488568764E+01  0.89929869745E+01  0.43400727851E+02  0.00000000000E+00 0. -1.
         11    1    3    3    0    0 -0.17049264806E+02  0.10265603878E+02 -0.26948992689E+01  0.20082891618E+02  0.51100000000E-03 0. -1.
        -11    1    3    3    0    0 -0.26195318997E+01  0.16040534087E+01 -0.35708805446E+01  0.47102147336E+01  0.51100000000E-03 0.  1.
        -12    1    3    3    0    0 -0.22250200111E+02 -0.51208004106E+01 -0.27272071609E+01  0.22994165798E+02  0.00000000000E+00 0.  1.
</event>
<event>
 7    1  0.2647566E-010  0.4778727E+02  0.7816164E-02  0.1312668E+00
        -11   -1    0    0    0    0  0.00000000000E+00  0.00000000000E+00  0.45593999997E+02  0.45594000000E+02  0.51100000000E-03 0.  1.
         11   -1    0    0    0    0 -0.00000000000E+00 -0.00000000000E+00 -0.45593999997E+02  0.45594000000E+02  0.51100000000E-03 0. -1.
    9900012    2    1    2    0    0 -0.32178353047E+02  0.22369335099E+02  0.18649124026E+02  0.47787269770E+02  0.19999994188E+02 0.  0.
         12    1    1    2    0    0  0.32178353047E+02 -0.22369335099E+02 -0.18649124026E+02  0.43400730230E+02  0.00000000000E+00 0. -1.
         11    1    3    3    0    0 -0.37976219257E+01 -0.12798506241E+01 -0.67305056826E+00  0.40636125848E+01  0.51100000000E-03 0. -1.
        -11    1    3    3    0    0 -0.23276449709E+02  0.12669008654E+02  0.95689246400E+01  0.28175542769E+02  0.51100000000E-03 0.  1.
        -12    1    3    3    0    0 -0.51042814125E+01  0.10980177070E+02  0.97532499539E+01  0.15548114416E+02  0.00000000000E+00 0.  1.
</event>
<event>
 7    1  0.2647566E-010  0.4778727E+02  0.7816164E-02  0.1312668E+00
        -11   -1    0    0    0    0  0.00000000000E+00  0.00000000000E+00  0.45593999997E+02  0.45594000000E+02  0.51100000000E-03 0.  1.
         11   -1    0    0    0    0 -0.00000000000E+00 -0.00000000000E+00 -0.45593999997E+02  0.45594000000E+02  0.51100000000E-03 0. -1.
    9900012    2    1    2    0    0  0.37627955092E+02 -0.11248974421E+02  0.18472174770E+02  0.47787266473E+02  0.19999979155E+02 0.  0.
         12    1    1    2    0    0 -0.37627955092E+02  0.11248974421E+02 -0.18472174770E+02  0.43400733527E+02  0.00000000000E+00 0. -1.
         11    1    3    3    0    0  0.10377305662E+02 -0.59436783881E+01  0.50739599402E+01  0.12990798871E+02  0.51100000000E-03 0.  1.
        -11    1    3    3    0    0  0.11991991029E+02 -0.90974356864E+01  0.15955437844E+01  0.15136609433E+02  0.51100000000E-03 0. -1.
         12    1    3    3    0    0  0.15258658401E+02  0.37921396533E+01  0.11802671046E+02  0.19659858168E+02  0.00000000000E+00 0. -1.
</event>
<event>
 7    1  0.2647566E-010  0.4778727E+02  0.7816164E-02  0.1312668E+00
        -11   -1    0    0    0    0  0.00000000000E+00  0.00000000000E+00  0.45593999997E+02  0.45594000000E+02  0.51100000000E-03 0.  1.
         11   -1    0    0    0    0 -0.00000000000E+00 -0.00000000000E+00 -0.45593999997E+02  0.45594000000E+02  0.51100000000E-03 0. -1.
    9900012    2    1    2    0    0  0.42453032301E+02 -0.88954836663E+01  0.14944487360E+01  0.47787274681E+02  0.20000016581E+02 0.  0.
         12    1    1    2    0    0 -0.42453032301E+02  0.88954836663E+01 -0.14944487360E+01  0.43400725319E+02  0.00000000000E+00 0. -1.
         11    1    3    3    0    0  0.38002471918E+01  0.17213595394E+01  0.18536824845E+01  0.45652049677E+01  0.51100000000E-03 0. -1.
        -11    1    3    3    0    0  0.15723812532E+02 -0.46540766553E+01  0.78080967180E+01  0.18162188323E+02  0.51100000000E-03 0.  1.
         12    1    3    3    0    0  0.22928972576E+02 -0.59627665504E+01 -0.81673304665E+01  0.25059881390E+02  0.00000000000E+00 0. -1.
</event>
<event>
 7    1  0.2647566E-010  0.4778727E+02  0.7816164E-02  0.1312668E+00
        -11   -1    0    0    0    0  0.00000000000E+00  0.00000000000E+00  0.45593999997E+02  0.45594000000E+02  0.51100000000E-03 0. -1.
         11   -1    0    0    0    0 -0.00000000000E+00 -0.00000000000E+00 -0.45593999997E+02  0.45594000000E+02  0.51100000000E-03 0.  1.
    9900012    2    1    2    0    0  0.14904452048E+02  0.39716582904E+02 -0.91691687134E+01  0.47787270705E+02  0.19999998452E+02 0.  0.
         12    1    1    2    0    0 -0.14904452048E+02 -0.39716582904E+02  0.91691687134E+01  0.43400729295E+02  0.00000000000E+00 0. -1.
         11    1    3    3    0    0  0.11018689823E+01 -0.30810177485E+00 -0.35421525278E+01  0.37223496275E+01  0.51100000000E-03 0. -1.
        -11    1    3    3    0    0  0.98170026659E+01  0.12525064029E+02 -0.23125478044E+01  0.16081002701E+02  0.51100000000E-03 0.  1.
         12    1    3    3    0    0  0.39855803994E+01  0.27499620650E+02 -0.33144683811E+01  0.27983918376E+02  0.00000000000E+00 0. -1.
</event>
<event>
 7    1  0.2647566E-010  0.4778727E+02  0.7816164E-02  0.1312668E+00
        -11   -1    0    0    0    0  0.00000000000E+00  0.00000000000E+00  0.45593999997E+02  0.45594000000E+02  0.51100000000E-03 0.  1.
         11   -1    0    0    0    0 -0.00000000000E+00 -0.00000000000E+00 -0.45593999997E+02  0.45594000000E+02  0.51100000000E-03 0. -1.
    9900012    2    1    2    0    0  0.32341889580E+01  0.29560021825E+02  0.31612786538E+02  0.47787272573E+02  0.20000006967E+02 0.  0.
         12    1    1    2    0    0 -0.32341889580E+01 -0.29560021825E+02 -0.31612786538E+02  0.43400727427E+02  0.00000000000E+00 0. -1.
         11    1    3    3    0    0 -0.38738428455E+01  0.63323973689E+01  0.24963567356E+01  0.78318396333E+01  0.51100000000E-03 0.  1.
        -11    1    3    3    0    0 -0.22649131044E+01  0.63643605656E+00  0.68297339327E+00  0.24497622623E+01  0.51100000000E-03 0. -1.
        -12    1    3    3    0    0  0.93729449079E+01  0.22591188400E+02  0.28433456409E+02  0.37505670677E+02  0.00000000000E+00 0.  1.
</event>
<event>
 7    1  0.2647566E-010  0.4778727E+02  0.7816164E-02  0.1312668E+00
        -11   -1    0    0    0    0  0.00000000000E+00  0.00000000000E+00  0.45593999997E+02  0.45594000000E+02  0.51100000000E-03 0. -1.
         11   -1    0    0    0    0 -0.00000000000E+00 -0.00000000000E+00 -0.45593999997E+02  0.45594000000E+02  0.51100000000E-03 0.  1.
    9900012    2    1    2    0    0  0.43087417947E+02  0.16768327640E+01 -0.49280542607E+01  0.47787273367E+02  0.20000010591E+02 0.  0.
         12    1    1    2    0    0 -0.43087417947E+02 -0.16768327640E+01  0.49280542607E+01  0.43400726633E+02  0.00000000000E+00 0. -1.
         11    1    3    3    0    0  0.20693755443E+01  0.22580993482E+01  0.11713831008E+01  0.32792478466E+01  0.51100000000E-03 0. -1.
        -11    1    3    3    0    0  0.10041477169E+02 -0.30543667197E+01  0.48475335768E+01  0.11561098643E+02  0.51100000000E-03 0.  1.
        -12    1    3    3    0    0  0.30976565234E+02  0.24731001354E+01 -0.10946970938E+02  0.32946926878E+02  0.00000000000E+00 0.  1.
</event>
<event>
 7    1  0.2647566E-010  0.4778727E+02  0.7816164E-02  0.1312668E+00
        -11   -1    0    0    0    0  0.00000000000E+00  0.00000000000E+00  0.45593999997E+02  0.45594000000E+02  0.51100000000E-03 0.  1.
         11   -1    0    0    0    0 -0.00000000000E+00 -0.00000000000E+00 -0.45593999997E+02  0.45594000000E+02  0.51100000000E-03 0. -1.
    9900012    2    1    2    0    0  0.87735903158E+01  0.24148554584E+02  0.34978484732E+02  0.47787274549E+02  0.20000015980E+02 0.  0.
         12    1    1    2    0    0 -0.87735903158E+01 -0.24148554584E+02 -0.34978484732E+02  0.43400725451E+02  0.00000000000E+00 0. -1.
         11    1    3    3    0    0  0.32876792180E+01  0.51221868490E+01  0.12692267854E+01  0.62174407637E+01  0.51100000000E-03 0. -1.
        -11    1    3    3    0    0 -0.17356311699E+01 -0.48511254483E+00 -0.17238635707E+00  0.18103776005E+01  0.51100000000E-03 0.  1.
        -12    1    3    3    0    0  0.72215422678E+01  0.19511480280E+02  0.33881644303E+02  0.39759456185E+02  0.00000000000E+00 0.  1.
</event>
<event>
 7    1  0.2647566E-010  0.4778727E+02  0.7816164E-02  0.1312668E+00
        -11   -1    0    0    0    0  0.00000000000E+00  0.00000000000E+00  0.45593999997E+02  0.45594000000E+02  0.51100000000E-03 0.  1.
         11   -1    0    0    0    0 -0.00000000000E+00 -0.00000000000E+00 -0.45593999997E+02  0.45594000000E+02  0.51100000000E-03 0. -1.
    9900012    2    1    2    0    0  0.20508906607E+02  0.31080329245E+02  0.22293975325E+02  0.47787268992E+02  0.19999990643E+02 0.  0.
         12    1    1    2    0    0 -0.20508906607E+02 -0.31080329245E+02 -0.22293975325E+02  0.43400731008E+02  0.00000000000E+00 0. -1.
         11    1    3    3    0    0  0.57017286932E+01  0.18843888847E+02  0.56968290502E+01  0.20495260878E+02  0.51100000000E-03 0. -1.
        -11    1    3    3    0    0  0.92509578303E+01  0.81212355115E+01  0.40378651038E+01  0.12955270814E+02  0.51100000000E-03 0.  1.
        -12    1    3    3    0    0  0.55562200835E+01  0.41152048869E+01  0.12559281171E+02  0.14336737300E+02  0.00000000000E+00 0.  1.
</event>
<event>
 7    1  0.2647566E-010  0.4778727E+02  0.7816164E-02  0.1312668E+00
        -11   -1    0    0    0    0  0.00000000000E+00  0.00000000000E+00  0.45593999997E+02  0.45594000000E+02  0.51100000000E-03 0. -1.
         11   -1    0    0    0    0 -0.00000000000E+00 -0.00000000000E+00 -0.45593999997E+02  0.45594000000E+02  0.51100000000E-03 0.  1.
    9900012    2    1    2    0    0 -0.36264887425E+02 -0.56333006386E+01 -0.23167808046E+02  0.47787268835E+02  0.19999989926E+02 0.  0.
         12    1    1    2    0    0  0.36264887425E+02  0.56333006386E+01  0.23167808046E+02  0.43400731165E+02  0.00000000000E+00 0. -1.
         11    1    3    3    0    0 -0.10910060021E+02 -0.22289691738E+01 -0.50954745275E+01  0.12245879885E+02  0.51100000000E-03 0. -1.
        -11    1    3    3    0    0 -0.19936268478E+02  0.42834484318E+01 -0.84107361206E+01  0.22057724580E+02  0.51100000000E-03 0.  1.
         12    1    3    3    0    0 -0.54185589262E+01 -0.76877798966E+01 -0.96615973975E+01  0.13483664370E+02  0.00000000000E+00 0. -1.
</event>
<event>
 7    1  0.2647566E-010  0.4778725E+02  0.7816164E-02  0.1312668E+00
        -11   -1    0    0    0    0  0.00000000000E+00  0.00000000000E+00  0.45593999997E+02  0.45594000000E+02  0.51100000000E-03 0. -1.
         11   -1    0    0    0    0 -0.00000000000E+00 -0.00000000000E+00 -0.45593999997E+02  0.45594000000E+02  0.51100000000E-03 0.  1.
    9900012    2    1    2    0    0 -0.42293581464E+02 -0.94590625153E+01 -0.23247731483E+01  0.47787245780E+02  0.19999884808E+02 0.  0.
         12    1    1    2    0    0  0.42293581464E+02  0.94590625153E+01  0.23247731483E+01  0.43400754220E+02  0.00000000000E+00 0. -1.
         11    1    3    3    0    0 -0.11091520327E+02  0.25950887984E+01  0.33939845881E+01  0.11885934573E+02  0.51100000000E-03 0. -1.
        -11    1    3    3    0    0 -0.69873745723E+01  0.21956105926E+01 -0.17006541603E+01  0.75190647106E+01  0.51100000000E-03 0.  1.
        -12    1    3    3    0    0 -0.24214686565E+02 -0.14249761906E+02 -0.40181035761E+01  0.28382246496E+02  0.00000000000E+00 0.  1.
</event>
<event>
 7    1  0.2647566E-010  0.4778727E+02  0.7816164E-02  0.1312668E+00
        -11   -1    0    0    0    0  0.00000000000E+00  0.00000000000E+00  0.45593999997E+02  0.45594000000E+02  0.51100000000E-03 0.  1.
         11   -1    0    0    0    0 -0.00000000000E+00 -0.00000000000E+00 -0.45593999997E+02  0.45594000000E+02  0.51100000000E-03 0. -1.
    9900012    2    1    2    0    0  0.41173277564E+02  0.12464363059E+01  0.13668611015E+02  0.47787270561E+02  0.19999997794E+02 0.  0.
         12    1    1    2    0    0 -0.41173277564E+02 -0.12464363059E+01 -0.13668611015E+02  0.43400729439E+02  0.00000000000E+00 0. -1.
         11    1    3    3    0    0  0.22190752600E+01  0.34090846924E+01 -0.32157768084E+01  0.51853036741E+01  0.51100000000E-03 0. -1.
        -11    1    3    3    0    0  0.15770660468E+02 -0.74248560502E-01  0.80292182539E+01  0.17697106839E+02  0.51100000000E-03 0.  1.
         12    1    3    3    0    0  0.23183541835E+02 -0.20883998260E+01  0.88551695697E+01  0.24904860047E+02  0.00000000000E+00 0. -1.
</event>
<event>
 7    1  0.2647566E-010  0.4778727E+02  0.7816164E-02  0.1312668E+00
        -11   -1    0    0    0    0  0.00000000000E+00  0.00000000000E+00  0.45593999997E+02  0.45594000000E+02  0.51100000000E-03 0. -1.
         11   -1    0    0    0    0 -0.00000000000E+00 -0.00000000000E+00 -0.45593999997E+02  0.45594000000E+02  0.51100000000E-03 0.  1.
    9900012    2    1    2    0    0 -0.36236440249E+02 -0.44031365633E+01 -0.23476722124E+02  0.47787266191E+02  0.19999977870E+02 0.  0.
         12    1    1    2    0    0  0.36236440249E+02  0.44031365633E+01  0.23476722124E+02  0.43400733809E+02  0.00000000000E+00 0. -1.
         11    1    3    3    0    0 -0.57611235520E+01  0.31670371610E+01 -0.13480716435E+01  0.67110331826E+01  0.51100000000E-03 0. -1.
        -11    1    3    3    0    0 -0.24494876244E+02 -0.24928558016E+00 -0.19369162201E+02  0.31228601476E+02  0.51100000000E-03 0.  1.
        -12    1    3    3    0    0 -0.59804404528E+01 -0.73208881442E+01 -0.27594882785E+01  0.98476315319E+01  0.00000000000E+00 0.  1.
</event>
<event>
 7    1  0.2647566E-010  0.4778727E+02  0.7816164E-02  0.1312668E+00
        -11   -1    0    0    0    0  0.00000000000E+00  0.00000000000E+00  0.45593999997E+02  0.45594000000E+02  0.51100000000E-03 0. -1.
         11   -1    0    0    0    0 -0.00000000000E+00 -0.00000000000E+00 -0.45593999997E+02  0.45594000000E+02  0.51100000000E-03 0.  1.
    9900012    2    1    2    0    0  0.29051062271E+02  0.10329726165E+01 -0.32227195270E+02  0.47787269978E+02  0.19999995136E+02 0.  0.
         12    1    1    2    0    0 -0.29051062271E+02 -0.10329726165E+01  0.32227195270E+02  0.43400730022E+02  0.00000000000E+00 0. -1.
         11    1    3    3    0    0  0.45609354562E+01  0.64750708469E+00 -0.81723397710E+01  0.93812864392E+01  0.51100000000E-03 0. -1.
        -11    1    3    3    0    0  0.38058068969E+01  0.37448829383E+01 -0.14352558233E+02  0.15313531351E+02  0.51100000000E-03 0.  1.
         12    1    3    3    0    0  0.20684319918E+02 -0.33594174066E+01 -0.97022972661E+01  0.23092452187E+02  0.00000000000E+00 0. -1.
</event>
<event>
 7    1  0.2647566E-010  0.4778727E+02  0.7816164E-02  0.1312668E+00
        -11   -1    0    0    0    0  0.00000000000E+00  0.00000000000E+00  0.45593999997E+02  0.45594000000E+02  0.51100000000E-03 0.  1.
         11   -1    0    0    0    0 -0.00000000000E+00 -0.00000000000E+00 -0.45593999997E+02  0.45594000000E+02  0.51100000000E-03 0. -1.
    9900012    2    1    2    0    0 -0.26324900763E+02 -0.22016504863E+02  0.26568708402E+02  0.47787272440E+02  0.20000006363E+02 0.  0.
         12    1    1    2    0    0  0.26324900763E+02  0.22016504863E+02 -0.26568708402E+02  0.43400727560E+02  0.00000000000E+00 0. -1.
         11    1    3    3    0    0 -0.86800141720E+01 -0.11234425161E+02  0.18944493246E+02  0.23673799428E+02  0.51100000000E-03 0. -1.
        -11    1    3    3    0    0  0.42527637465E+00 -0.26948416253E+01 -0.38922657594E+00  0.27558172960E+01  0.51100000000E-03 0.  1.
        -12    1    3    3    0    0 -0.18070162966E+02 -0.80872380766E+01  0.80134417322E+01  0.21357655717E+02  0.00000000000E+00 0.  1.
</event>
<event>
 7    1  0.2647566E-010  0.4778727E+02  0.7816164E-02  0.1312668E+00
        -11   -1    0    0    0    0  0.00000000000E+00  0.00000000000E+00  0.45593999997E+02  0.45594000000E+02  0.51100000000E-03 0.  1.
         11   -1    0    0    0    0 -0.00000000000E+00 -0.00000000000E+00 -0.45593999997E+02  0.45594000000E+02  0.51100000000E-03 0. -1.
    9900012    2    1    2    0    0 -0.34588569746E+02  0.25528569169E+02 -0.59620578691E+01  0.47787272645E+02  0.20000007297E+02 0.  0.
         12    1    1    2    0    0  0.34588569746E+02 -0.25528569169E+02  0.59620578691E+01  0.43400727355E+02  0.00000000000E+00 0. -1.
         11    1    3    3    0    0  0.47187906488E+00 -0.12327261270E+01 -0.21006803729E+01  0.24809558332E+01  0.51100000000E-03 0. -1.
        -11    1    3    3    0    0 -0.58938702079E+01  0.94247325599E+01 -0.22281716573E+01  0.11337020731E+02  0.51100000000E-03 0.  1.
         12    1    3    3    0    0 -0.29166578603E+02  0.17336562736E+02 -0.16332058389E+01  0.33969296081E+02  0.00000000000E+00 0. -1.
</event>
<event>
 7    1  0.2647566E-010  0.4778725E+02  0.7816164E-02  0.1312668E+00
        -11   -1    0    0    0    0  0.00000000000E+00  0.00000000000E+00  0.45593999997E+02  0.45594000000E+02  0.51100000000E-03 0.  1.
         11   -1    0    0    0    0 -0.00000000000E+00 -0.00000000000E+00 -0.45593999997E+02  0.45594000000E+02  0.51100000000E-03 0. -1.
    9900012    2    1    2    0    0 -0.39923196966E+02  0.70331523812E+01  0.15501550101E+02  0.47787251805E+02  0.19999912278E+02 0.  0.
         12    1    1    2    0    0  0.39923196966E+02 -0.70331523812E+01 -0.15501550101E+02  0.43400748195E+02  0.00000000000E+00 0. -1.
         11    1    3    3    0    0 -0.20813674858E+01  0.56819543187E+00  0.26354428229E+01  0.34059500574E+01  0.51100000000E-03 0. -1.
        -11    1    3    3    0    0 -0.29926797006E+02 -0.16588283031E+01  0.13807505525E+02  0.33000183325E+02  0.51100000000E-03 0.  1.
         12    1    3    3    0    0 -0.79150324733E+01  0.81237852525E+01 -0.94139824642E+00  0.11381118422E+02  0.00000000000E+00 0. -1.
</event>
<event>
 7    1  0.2647566E-010  0.4778727E+02  0.7816164E-02  0.1312668E+00
        -11   -1    0    0    0    0  0.00000000000E+00  0.00000000000E+00  0.45593999997E+02  0.45594000000E+02  0.51100000000E-03 0. -1.
         11   -1    0    0    0    0 -0.00000000000E+00 -0.00000000000E+00 -0.45593999997E+02  0.45594000000E+02  0.51100000000E-03 0.  1.
    9900012    2    1    2    0    0  0.88034129590E+01  0.41739274849E+02  0.79972613728E+01  0.47787270351E+02  0.19999996838E+02 0.  0.
         12    1    1    2    0    0 -0.88034129590E+01 -0.41739274849E+02 -0.79972613728E+01  0.43400729649E+02  0.00000000000E+00 0. -1.
         11    1    3    3    0    0  0.11783554335E+00  0.20635434445E+02  0.26729645270E+01  0.20808166175E+02  0.51100000000E-03 0. -1.
        -11    1    3    3    0    0  0.51808455448E+01  0.17681114093E+02 -0.16036049915E+01  0.18494174904E+02  0.51100000000E-03 0.  1.
         12    1    3    3    0    0  0.35047318708E+01  0.34227263103E+01  0.69279018373E+01  0.84849292719E+01  0.00000000000E+00 0. -1.
</event>
<event>
 7    1  0.2647566E-010  0.4778727E+02  0.7816164E-02  0.1312668E+00
        -11   -1    0    0    0    0  0.00000000000E+00  0.00000000000E+00  0.45593999997E+02  0.45594000000E+02  0.51100000000E-03 0.  1.
         11   -1    0    0    0    0 -0.00000000000E+00 -0.00000000000E+00 -0.45593999997E+02  0.45594000000E+02  0.51100000000E-03 0. -1.
    9900012    2    1    2    0    0 -0.14844770495E+02 -0.18560224743E+02  0.36314935078E+02  0.47787266559E+02  0.19999979547E+02 0.  0.
         12    1    1    2    0    0  0.14844770495E+02  0.18560224743E+02 -0.36314935078E+02  0.43400733441E+02  0.00000000000E+00 0. -1.
         11    1    3    3    0    0 -0.90905500583E+01 -0.66245180870E+01  0.34294112417E+01  0.11759387823E+02  0.51100000000E-03 0. -1.
        -11    1    3    3    0    0 -0.10922916674E+01 -0.29076158711E-01  0.48498230921E+00  0.11954725472E+01  0.51100000000E-03 0.  1.
        -12    1    3    3    0    0 -0.46619287693E+01 -0.11906630497E+02  0.32400541527E+02  0.34832406188E+02  0.00000000000E+00 0.  1.
</event>
<event>
 7    1  0.2647566E-010  0.4778727E+02  0.7816164E-02  0.1312668E+00
        -11   -1    0    0    0    0  0.00000000000E+00  0.00000000000E+00  0.45593999997E+02  0.45594000000E+02  0.51100000000E-03 0.  1.
         11   -1    0    0    0    0 -0.00000000000E+00 -0.00000000000E+00 -0.45593999997E+02  0.45594000000E+02  0.51100000000E-03 0. -1.
    9900012    2    1    2    0    0  0.35062994368E+02  0.25213372756E+02  0.43006323832E+01  0.47787272141E+02  0.20000005000E+02 0.  0.
         12    1    1    2    0    0 -0.35062994368E+02 -0.25213372756E+02 -0.43006323832E+01  0.43400727859E+02  0.00000000000E+00 0. -1.
         11    1    3    3    0    0  0.62261496728E+01  0.10207438658E+02  0.44510030258E+01  0.12758063015E+02  0.51100000000E-03 0. -1.
        -11    1    3    3    0    0  0.13607641213E+02  0.12553532028E+02  0.42362046007E+01  0.18992221972E+02  0.51100000000E-03 0.  1.
         12    1    3    3    0    0  0.15229203482E+02  0.24524020709E+01 -0.43865752433E+01  0.16036987154E+02  0.00000000000E+00 0. -1.
</event>
<event>
 7    1  0.2647566E-010  0.4778727E+02  0.7816164E-02  0.1312668E+00
        -11   -1    0    0    0    0  0.00000000000E+00  0.00000000000E+00  0.45593999997E+02  0.45594000000E+02  0.51100000000E-03 0.  1.
         11   -1    0    0    0    0 -0.00000000000E+00 -0.00000000000E+00 -0.45593999997E+02  0.45594000000E+02  0.51100000000E-03 0. -1.
    9900012    2    1    2    0    0 -0.10721001194E+02 -0.88125850737E+01  0.41122039352E+02  0.47787266795E+02  0.19999980624E+02 0.  0.
         12    1    1    2    0    0  0.10721001194E+02  0.88125850737E+01 -0.41122039352E+02  0.43400733205E+02  0.00000000000E+00 0. -1.
         11    1    3    3    0    0 -0.20299257159E+01 -0.47971341886E+00  0.46107527561E+00  0.21361914819E+01  0.51100000000E-03 0. -1.
        -11    1    3    3    0    0 -0.66499453407E+01  0.26913332258E+01  0.27212372738E+02  0.28142108625E+02  0.51100000000E-03 0.  1.
         12    1    3    3    0    0 -0.20411301371E+01 -0.11024204881E+02  0.13448591339E+02  0.17508966688E+02  0.00000000000E+00 0. -1.
</event>
<event>
 7    1  0.2647566E-010  0.4778728E+02  0.7816164E-02  0.1312668E+00
        -11   -1    0    0    0    0  0.00000000000E+00  0.00000000000E+00  0.45593999997E+02  0.45594000000E+02  0.51100000000E-03 0.  1.
         11   -1    0    0    0    0 -0.00000000000E+00 -0.00000000000E+00 -0.45593999997E+02  0.45594000000E+02  0.51100000000E-03 0. -1.
    9900012    2    1    2    0    0 -0.30410890285E+02  0.18591515505E+02  0.24761991272E+02  0.47787275255E+02  0.20000019196E+02 0.  0.
         12    1    1    2    0    0  0.30410890285E+02 -0.18591515505E+02 -0.24761991272E+02  0.43400724745E+02  0.00000000000E+00 0. -1.
         11    1    3    3    0    0  0.92157715551E+00  0.60147177794E+01  0.91946992731E+00  0.61539872951E+01  0.51100000000E-03 0. -1.
        -11    1    3    3    0    0 -0.80143141754E+01  0.51287962256E+01  0.83867408437E+01  0.12683501278E+02  0.51100000000E-03 0.  1.
         12    1    3    3    0    0 -0.23318153265E+02  0.74480014999E+01  0.15455780501E+02  0.28949786682E+02  0.00000000000E+00 0. -1.
</event>
<event>
 7    1  0.2647566E-010  0.4778728E+02  0.7816164E-02  0.1312668E+00
        -11   -1    0    0    0    0  0.00000000000E+00  0.00000000000E+00  0.45593999997E+02  0.45594000000E+02  0.51100000000E-03 0.  1.
         11   -1    0    0    0    0 -0.00000000000E+00 -0.00000000000E+00 -0.45593999997E+02  0.45594000000E+02  0.51100000000E-03 0. -1.
    9900012    2    1    2    0    0  0.30562158928E+02 -0.27310233482E+02  0.14273338505E+02  0.47787278770E+02  0.20000035224E+02 0.  0.
         12    1    1    2    0    0 -0.30562158928E+02  0.27310233482E+02 -0.14273338505E+02  0.43400721230E+02  0.00000000000E+00 0. -1.
         11    1    3    3    0    0  0.18289922489E+02 -0.12777533356E+02  0.57973093125E+01  0.23052015505E+02  0.51100000000E-03 0. -1.
        -11    1    3    3    0    0  0.13597914545E+02 -0.64589011757E+01  0.53420209297E+01  0.15973661829E+02  0.51100000000E-03 0.  1.
         12    1    3    3    0    0 -0.13256781053E+01 -0.80737989501E+01  0.31340082626E+01  0.87616014355E+01  0.00000000000E+00 0. -1.
</event>
<event>
 7    1  0.2647566E-010  0.4778727E+02  0.7816164E-02  0.1312668E+00
        -11   -1    0    0    0    0  0.00000000000E+00  0.00000000000E+00  0.45593999997E+02  0.45594000000E+02  0.51100000000E-03 0.  1.
         11   -1    0    0    0    0 -0.00000000000E+00 -0.00000000000E+00 -0.45593999997E+02  0.45594000000E+02  0.51100000000E-03 0. -1.
    9900012    2    1    2    0    0  0.39552071045E+02 -0.13338027878E+02  0.11889237526E+02  0.47787270968E+02  0.19999999649E+02 0.  0.
         12    1    1    2    0    0 -0.39552071045E+02  0.13338027878E+02 -0.11889237526E+02  0.43400729032E+02  0.00000000000E+00 0. -1.
         11    1    3    3    0    0  0.47348733613E-02 -0.13521705103E+01  0.82070065228E-01  0.13546672155E+01  0.51100000000E-03 0. -1.
        -11    1    3    3    0    0  0.12088088071E+02 -0.12389295328E+02  0.28227060073E+01  0.17538078042E+02  0.51100000000E-03 0.  1.
         12    1    3    3    0    0  0.27459248100E+02  0.40343795972E+00  0.89844614537E+01  0.28894525710E+02  0.00000000000E+00 0. -1.
</event>
<event>
 7    1  0.2647566E-010  0.4778727E+02  0.7816164E-02  0.1312668E+00
        -11   -1    0    0    0    0  0.00000000000E+00  0.00000000000E+00  0.45593999997E+02  0.45594000000E+02  0.51100000000E-03 0.  1.
         11   -1    0    0    0    0 -0.00000000000E+00 -0.00000000000E+00 -0.45593999997E+02  0.45594000000E+02  0.51100000000E-03 0. -1.
    9900012    2    1    2    0    0  0.14115957367E+01 -0.63478951065E+01  0.42910780211E+02  0.47787269210E+02  0.19999991634E+02 0.  0.
         12    1    1    2    0    0 -0.14115957367E+01  0.63478951065E+01 -0.42910780211E+02  0.43400730790E+02  0.00000000000E+00 0. -1.
         11    1    3    3    0    0  0.45092201177E+01 -0.54932395916E+01  0.88307353164E+01  0.11335370915E+02  0.51100000000E-03 0. -1.
        -11    1    3    3    0    0 -0.55899312777E+01  0.18562625116E+01  0.71155198583E+01  0.92370809954E+01  0.51100000000E-03 0.  1.
         12    1    3    3    0    0  0.24923068966E+01 -0.27109180265E+01  0.26964525036E+02  0.27214817300E+02  0.00000000000E+00 0. -1.
</event>
<event>
 7    1  0.2647566E-010  0.4778727E+02  0.7816164E-02  0.1312668E+00
        -11   -1    0    0    0    0  0.00000000000E+00  0.00000000000E+00  0.45593999997E+02  0.45594000000E+02  0.51100000000E-03 0.  1.
         11   -1    0    0    0    0 -0.00000000000E+00 -0.00000000000E+00 -0.45593999997E+02  0.45594000000E+02  0.51100000000E-03 0. -1.
    9900012    2    1    2    0    0  0.53009284357E+01 -0.32027816523E+02  0.28805253998E+02  0.47787268078E+02  0.19999986474E+02 0.  0.
         12    1    1    2    0    0 -0.53009284357E+01  0.32027816523E+02 -0.28805253998E+02  0.43400731922E+02  0.00000000000E+00 0. -1.
         11    1    3    3    0    0 -0.82035281158E-01 -0.98853227116E+01  0.87738840861E+01  0.13217691823E+02  0.51100000000E-03 0. -1.
        -11    1    3    3    0    0  0.68118708422E+01 -0.23475416701E+02  0.21145037652E+02  0.32320417560E+02  0.51100000000E-03 0.  1.
         12    1    3    3    0    0 -0.14289071253E+01  0.13329228897E+01 -0.11136677403E+01  0.22491586957E+01  0.00000000000E+00 0. -1.
</event>
<event>
 7    1  0.2647566E-010  0.4778727E+02  0.7816164E-02  0.1312668E+00
        -11   -1    0    0    0    0  0.00000000000E+00  0.00000000000E+00  0.45593999997E+02  0.45594000000E+02  0.51100000000E-03 0.  1.
         11   -1    0    0    0    0 -0.00000000000E+00 -0.00000000000E+00 -0.45593999997E+02  0.45594000000E+02  0.51100000000E-03 0. -1.
    9900012    2    1    2    0    0  0.34857769412E+01 -0.25971175428E+02  0.34597266316E+02  0.47787269240E+02  0.19999991774E+02 0.  0.
         12    1    1    2    0    0 -0.34857769412E+01  0.25971175428E+02 -0.34597266316E+02  0.43400730760E+02  0.00000000000E+00 0. -1.
         11    1    3    3    0    0  0.34720548801E+01 -0.54245277973E+01  0.33265449078E+01  0.72489011718E+01  0.51100000000E-03 0. -1.
        -11    1    3    3    0    0  0.43796085375E+01 -0.18486075639E+01  0.13736959798E+02  0.14536243862E+02  0.51100000000E-03 0.  1.
        -12    1    3    3    0    0 -0.43658864764E+01 -0.18698040066E+02  0.17533761610E+02  0.26002124206E+02  0.00000000000E+00 0.  1.
</event>
<event>
 7    1  0.2647566E-010  0.4778729E+02  0.7816164E-02  0.1312668E+00
        -11   -1    0    0    0    0  0.00000000000E+00  0.00000000000E+00  0.45593999997E+02  0.45594000000E+02  0.51100000000E-03 0.  1.
         11   -1    0    0    0    0 -0.00000000000E+00 -0.00000000000E+00 -0.45593999997E+02  0.45594000000E+02  0.51100000000E-03 0. -1.
    9900012    2    1    2    0    0 -0.12117192879E+02  0.37658652070E+02  0.17849974598E+02  0.47787285350E+02  0.20000065226E+02 0.  0.
         12    1    1    2    0    0  0.12117192879E+02 -0.37658652070E+02 -0.17849974598E+02  0.43400714650E+02  0.00000000000E+00 0. -1.
         11    1    3    3    0    0 -0.78542034439E+01  0.21834200389E+02  0.77719199008E+01  0.24470871614E+02  0.51100000000E-03 0.  1.
        -11    1    3    3    0    0 -0.72064350198E+01  0.16398335358E+02  0.94521190587E+01  0.20252917399E+02  0.51100000000E-03 0. -1.
         12    1    3    3    0    0  0.29434455845E+01 -0.57388367718E+00  0.62593563851E+00  0.30634963370E+01  0.00000000000E+00 0. -1.
</event>
<event>
 7    1  0.2647566E-010  0.4778727E+02  0.7816164E-02  0.1312668E+00
        -11   -1    0    0    0    0  0.00000000000E+00  0.00000000000E+00  0.45593999997E+02  0.45594000000E+02  0.51100000000E-03 0.  1.
         11   -1    0    0    0    0 -0.00000000000E+00 -0.00000000000E+00 -0.45593999997E+02  0.45594000000E+02  0.51100000000E-03 0. -1.
    9900012    2    1    2    0    0 -0.12270709040E+01  0.13338507473E+02  0.41281980663E+02  0.47787269452E+02  0.19999992741E+02 0.  0.
         12    1    1    2    0    0  0.12270709040E+01 -0.13338507473E+02 -0.41281980663E+02  0.43400730548E+02  0.00000000000E+00 0. -1.
         11    1    3    3    0    0  0.13169465235E+01  0.15692511981E+01 -0.14606365994E+01  0.25160200725E+01  0.51100000000E-03 0. -1.
        -11    1    3    3    0    0 -0.12130129540E+01  0.74986425716E+01  0.11981025597E+02  0.14186120522E+02  0.51100000000E-03 0.  1.
        -12    1    3    3    0    0 -0.13310044735E+01  0.42706137031E+01  0.30761591666E+02  0.31085128858E+02  0.00000000000E+00 0.  1.
</event>
<event>
 7    1  0.2647566E-010  0.4778727E+02  0.7816164E-02  0.1312668E+00
        -11   -1    0    0    0    0  0.00000000000E+00  0.00000000000E+00  0.45593999997E+02  0.45594000000E+02  0.51100000000E-03 0.  1.
         11   -1    0    0    0    0 -0.00000000000E+00 -0.00000000000E+00 -0.45593999997E+02  0.45594000000E+02  0.51100000000E-03 0. -1.
    9900012    2    1    2    0    0  0.37970195659E+02 -0.20727525699E+02  0.35010300438E+01  0.47787270843E+02  0.19999999082E+02 0.  0.
         12    1    1    2    0    0 -0.37970195659E+02  0.20727525699E+02 -0.35010300438E+01  0.43400729157E+02  0.00000000000E+00 0. -1.
         11    1    3    3    0    0  0.14415939189E+02  0.23452637943E+00  0.11292956511E+01  0.14462005886E+02  0.51100000000E-03 0. -1.
        -11    1    3    3    0    0  0.93164212054E+01 -0.66723722395E+01  0.58329451637E+01  0.12858440999E+02  0.51100000000E-03 0.  1.
        -12    1    3    3    0    0  0.14237835265E+02 -0.14289679839E+02 -0.34612107709E+01  0.20466823958E+02  0.00000000000E+00 0.  1.
</event>
<event>
 7    1  0.2647566E-010  0.4778727E+02  0.7816164E-02  0.1312668E+00
        -11   -1    0    0    0    0  0.00000000000E+00  0.00000000000E+00  0.45593999997E+02  0.45594000000E+02  0.51100000000E-03 0. -1.
         11   -1    0    0    0    0 -0.00000000000E+00 -0.00000000000E+00 -0.45593999997E+02  0.45594000000E+02  0.51100000000E-03 0.  1.
    9900012    2    1    2    0    0  0.34839567220E+02 -0.93972683994E+00 -0.25863964916E+02  0.47787271759E+02  0.20000003259E+02 0.  0.
         12    1    1    2    0    0 -0.34839567220E+02  0.93972683994E+00  0.25863964916E+02  0.43400728241E+02  0.00000000000E+00 0. -1.
         11    1    3    3    0    0  0.88755696079E+00 -0.32363402117E+01 -0.18248978348E+01  0.38199355614E+01  0.51100000000E-03 0. -1.
        -11    1    3    3    0    0  0.81481752755E+01 -0.25017128101E+01 -0.22329292799E+00  0.85264991232E+01  0.51100000000E-03 0.  1.
        -12    1    3    3    0    0  0.25803834984E+02  0.47983261819E+01 -0.23815774154E+02  0.35440837075E+02  0.00000000000E+00 0.  1.
</event>
<event>
 7    1  0.2647566E-010  0.4778727E+02  0.7816164E-02  0.1312668E+00
        -11   -1    0    0    0    0  0.00000000000E+00  0.00000000000E+00  0.45593999997E+02  0.45594000000E+02  0.51100000000E-03 0. -1.
         11   -1    0    0    0    0 -0.00000000000E+00 -0.00000000000E+00 -0.45593999997E+02  0.45594000000E+02  0.51100000000E-03 0.  1.
    9900012    2    1    2    0    0 -0.34854411288E+02  0.83391459054E+01 -0.24479626236E+02  0.47787269115E+02  0.19999991204E+02 0.  0.
         12    1    1    2    0    0  0.34854411288E+02 -0.83391459054E+01  0.24479626236E+02  0.43400730885E+02  0.00000000000E+00 0. -1.
         11    1    3    3    0    0 -0.25983536953E+02  0.81080969273E+01 -0.11504215647E+02  0.29550506024E+02  0.51100000000E-03 0.  1.
        -11    1    3    3    0    0 -0.34025840024E+01 -0.48821529536E+00  0.68493741784E+00  0.35050066470E+01  0.51100000000E-03 0. -1.
        -12    1    3    3    0    0 -0.54682903327E+01  0.71926427341E+00 -0.13660348007E+02  0.14731756444E+02  0.00000000000E+00 0.  1.
</event>
<event>
 7    1  0.2647566E-010  0.4778727E+02  0.7816164E-02  0.1312668E+00
        -11   -1    0    0    0    0  0.00000000000E+00  0.00000000000E+00  0.45593999997E+02  0.45594000000E+02  0.51100000000E-03 0.  1.
         11   -1    0    0    0    0 -0.00000000000E+00 -0.00000000000E+00 -0.45593999997E+02  0.45594000000E+02  0.51100000000E-03 0. -1.
    9900012    2    1    2    0    0  0.16415896683E+02 -0.10356900895E+02  0.38818503807E+02  0.47787270768E+02  0.19999998741E+02 0.  0.
         12    1    1    2    0    0 -0.16415896683E+02  0.10356900895E+02 -0.38818503807E+02  0.43400729232E+02  0.00000000000E+00 0. -1.
         11    1    3    3    0    0  0.28035129328E+01  0.19254100362E+01  0.17678067013E+01  0.38330183102E+01  0.51100000000E-03 0. -1.
        -11    1    3    3    0    0  0.15469074502E+02 -0.52053452034E+01  0.24985330471E+02  0.29843837281E+02  0.51100000000E-03 0.  1.
         12    1    3    3    0    0 -0.18566907515E+01 -0.70769657275E+01  0.12065366634E+02  0.14110415177E+02  0.00000000000E+00 0. -1.
</event>
<event>
 7    1  0.2647566E-010  0.4778727E+02  0.7816164E-02  0.1312668E+00
        -11   -1    0    0    0    0  0.00000000000E+00  0.00000000000E+00  0.45593999997E+02  0.45594000000E+02  0.51100000000E-03 0.  1.
         11   -1    0    0    0    0 -0.00000000000E+00 -0.00000000000E+00 -0.45593999997E+02  0.45594000000E+02  0.51100000000E-03 0. -1.
    9900012    2    1    2    0    0  0.11756331564E+02 -0.33223687143E+02  0.25329798286E+02  0.47787269586E+02  0.19999993352E+02 0.  0.
         12    1    1    2    0    0 -0.11756331564E+02  0.33223687143E+02 -0.25329798286E+02  0.43400730414E+02  0.00000000000E+00 0. -1.
         11    1    3    3    0    0  0.21847054418E+01 -0.15425757785E+02  0.70891126930E+01  0.17116730416E+02  0.51100000000E-03 0. -1.
        -11    1    3    3    0    0  0.10849724124E+02 -0.19271958267E+02  0.14482440775E+02  0.26436073462E+02  0.51100000000E-03 0.  1.
         12    1    3    3    0    0 -0.12780980017E+01  0.14740289086E+01  0.37582448181E+01  0.42344657087E+01  0.00000000000E+00 0. -1.
</event>
<event>
 7    1  0.2647566E-010  0.4778727E+02  0.7816164E-02  0.1312668E+00
        -11   -1    0    0    0    0  0.00000000000E+00  0.00000000000E+00  0.45593999997E+02  0.45594000000E+02  0.51100000000E-03 0.  1.
         11   -1    0    0    0    0 -0.00000000000E+00 -0.00000000000E+00 -0.45593999997E+02  0.45594000000E+02  0.51100000000E-03 0. -1.
    9900012    2    1    2    0    0 -0.61932914744E+01 -0.36736421065E+02  0.22264357297E+02  0.47787273073E+02  0.20000009249E+02 0.  0.
         12    1    1    2    0    0  0.61932914744E+01  0.36736421065E+02 -0.22264357297E+02  0.43400726927E+02  0.00000000000E+00 0. -1.
         11    1    3    3    0    0  0.38370978820E+01 -0.80590478704E+01  0.58339240132E+01  0.10663312918E+02  0.51100000000E-03 0. -1.
        -11    1    3    3    0    0 -0.57763358790E+01 -0.23989657752E+02  0.18070758489E+02  0.30584670145E+02  0.51100000000E-03 0.  1.
        -12    1    3    3    0    0 -0.42540534774E+01 -0.46877154430E+01 -0.16403252053E+01  0.65392900106E+01  0.00000000000E+00 0.  1.
</event>
<event>
 7    1  0.2647566E-010  0.4778727E+02  0.7816164E-02  0.1312668E+00
        -11   -1    0    0    0    0  0.00000000000E+00  0.00000000000E+00  0.45593999997E+02  0.45594000000E+02  0.51100000000E-03 0.  1.
         11   -1    0    0    0    0 -0.00000000000E+00 -0.00000000000E+00 -0.45593999997E+02  0.45594000000E+02  0.51100000000E-03 0. -1.
    9900012    2    1    2    0    0  0.24845593675E+02  0.30337551986E+02  0.18599811218E+02  0.47787267715E+02  0.19999984820E+02 0.  0.
         12    1    1    2    0    0 -0.24845593675E+02 -0.30337551986E+02 -0.18599811218E+02  0.43400732285E+02  0.00000000000E+00 0. -1.
         11    1    3    3    0    0  0.84638937638E+01  0.16593323867E+02  0.55193284550E+01  0.19427786324E+02  0.51100000000E-03 0. -1.
        -11    1    3    3    0    0  0.15618737150E+02  0.16179673837E+02  0.12548363617E+02  0.25752441153E+02  0.51100000000E-03 0.  1.
        -12    1    3    3    0    0  0.76296276047E+00 -0.24354457174E+01  0.53211914606E+00  0.26070402379E+01  0.00000000000E+00 0.  1.
</event>
<event>
 7    1  0.2647566E-010  0.4778727E+02  0.7816164E-02  0.1312668E+00
        -11   -1    0    0    0    0  0.00000000000E+00  0.00000000000E+00  0.45593999997E+02  0.45594000000E+02  0.51100000000E-03 0. -1.
         11   -1    0    0    0    0 -0.00000000000E+00 -0.00000000000E+00 -0.45593999997E+02  0.45594000000E+02  0.51100000000E-03 0.  1.
    9900012    2    1    2    0    0  0.36255723295E+02 -0.12062096093E+02 -0.20582809056E+02  0.47787266567E+02  0.19999979588E+02 0.  0.
         12    1    1    2    0    0 -0.36255723295E+02  0.12062096093E+02  0.20582809056E+02  0.43400733433E+02  0.00000000000E+00 0. -1.
         11    1    3    3    0    0  0.50421312567E+01  0.28495713695E+01 -0.22737843618E+01  0.62219964790E+01  0.51100000000E-03 0. -1.
        -11    1    3    3    0    0  0.17599305125E+02 -0.15098002650E+02 -0.81546930924E+01  0.24580159572E+02  0.51100000000E-03 0.  1.
         12    1    3    3    0    0  0.13614286914E+02  0.18633518720E+00 -0.10154331602E+02  0.16985110516E+02  0.00000000000E+00 0. -1.
</event>
<event>
 7    1  0.2647566E-010  0.4778728E+02  0.7816164E-02  0.1312668E+00
        -11   -1    0    0    0    0  0.00000000000E+00  0.00000000000E+00  0.45593999997E+02  0.45594000000E+02  0.51100000000E-03 0. -1.
         11   -1    0    0    0    0 -0.00000000000E+00 -0.00000000000E+00 -0.45593999997E+02  0.45594000000E+02  0.51100000000E-03 0.  1.
    9900012    2    1    2    0    0 -0.42439350888E+02 -0.20805987166E+01  0.88428011339E+01  0.47787279652E+02  0.20000039246E+02 0.  0.
         12    1    1    2    0    0  0.42439350888E+02  0.20805987166E+01 -0.88428011339E+01  0.43400720348E+02  0.00000000000E+00 0. -1.
         11    1    3    3    0    0 -0.15171573409E+02  0.57578765159E+01  0.31417124202E+01  0.16528767010E+02  0.51100000000E-03 0. -1.
        -11    1    3    3    0    0 -0.77242458011E+01  0.20349558098E+01 -0.16596729885E+01  0.81584026031E+01  0.51100000000E-03 0.  1.
        -12    1    3    3    0    0 -0.19543531678E+02 -0.98734310423E+01  0.73607617022E+01  0.23100110040E+02  0.00000000000E+00 0.  1.
</event>
<event>
 7    1  0.2647566E-010  0.4778727E+02  0.7816164E-02  0.1312668E+00
        -11   -1    0    0    0    0  0.00000000000E+00  0.00000000000E+00  0.45593999997E+02  0.45594000000E+02  0.51100000000E-03 0. -1.
         11   -1    0    0    0    0 -0.00000000000E+00 -0.00000000000E+00 -0.45593999997E+02  0.45594000000E+02  0.51100000000E-03 0.  1.
    9900012    2    1    2    0    0  0.19883366140E+02  0.13062557476E+02 -0.36299373771E+02  0.47787271976E+02  0.20000004247E+02 0.  0.
         12    1    1    2    0    0 -0.19883366140E+02 -0.13062557476E+02  0.36299373771E+02  0.43400728024E+02  0.00000000000E+00 0. -1.
         11    1    3    3    0    0  0.10626488158E+02  0.73872836539E+01 -0.22956841731E+02  0.26353572678E+02  0.51100000000E-03 0. -1.
        -11    1    3    3    0    0  0.18389549452E+01 -0.28896708183E+01 -0.84008998562E+01  0.90723244752E+01  0.51100000000E-03 0.  1.
         12    1    3    3    0    0  0.74179230377E+01  0.85649446399E+01 -0.49416321832E+01  0.12361374823E+02  0.00000000000E+00 0. -1.
</event>
<event>
 7    1  0.2647566E-010  0.4778727E+02  0.7816164E-02  0.1312668E+00
        -11   -1    0    0    0    0  0.00000000000E+00  0.00000000000E+00  0.45593999997E+02  0.45594000000E+02  0.51100000000E-03 0.  1.
         11   -1    0    0    0    0 -0.00000000000E+00 -0.00000000000E+00 -0.45593999997E+02  0.45594000000E+02  0.51100000000E-03 0. -1.
    9900012    2    1    2    0    0 -0.11686145077E+02 -0.41795707973E+02 -0.41963520267E+00  0.47787270911E+02  0.19999999393E+02 0.  0.
         12    1    1    2    0    0  0.11686145077E+02  0.41795707973E+02  0.41963520267E+00  0.43400729089E+02  0.00000000000E+00 0. -1.
         11    1    3    3    0    0 -0.63705163320E+00 -0.13205256142E+02  0.22488569777E+00  0.13222526173E+02  0.51100000000E-03 0. -1.
        -11    1    3    3    0    0 -0.39817635016E+00 -0.24477669861E+01  0.51781712074E+01  0.57413905056E+01  0.51100000000E-03 0.  1.
        -12    1    3    3    0    0 -0.10650917094E+02 -0.26142684844E+02 -0.58226921078E+01  0.28823354232E+02  0.00000000000E+00 0.  1.
</event>
<event>
 7    1  0.2647566E-010  0.4778727E+02  0.7816164E-02  0.1312668E+00
        -11   -1    0    0    0    0  0.00000000000E+00  0.00000000000E+00  0.45593999997E+02  0.45594000000E+02  0.51100000000E-03 0.  1.
         11   -1    0    0    0    0 -0.00000000000E+00 -0.00000000000E+00 -0.45593999997E+02  0.45594000000E+02  0.51100000000E-03 0. -1.
    9900012    2    1    2    0    0 -0.25623545277E+02 -0.64146534935E+01  0.34437035986E+02  0.47787270749E+02  0.19999998651E+02 0.  0.
         12    1    1    2    0    0  0.25623545277E+02  0.64146534935E+01 -0.34437035986E+02  0.43400729251E+02  0.00000000000E+00 0. -1.
         11    1    3    3    0    0 -0.95066168956E+01 -0.93724292187E+00  0.95223003248E+01  0.13488083364E+02  0.51100000000E-03 0. -1.
        -11    1    3    3    0    0 -0.18044235225E+02 -0.91875610321E+00  0.16149454103E+02  0.24233105573E+02  0.51100000000E-03 0.  1.
         12    1    3    3    0    0  0.19273068435E+01 -0.45586544685E+01  0.87652815589E+01  0.10066081812E+02  0.00000000000E+00 0. -1.
</event>
<event>
 7    1  0.2647566E-010  0.4778727E+02  0.7816164E-02  0.1312668E+00
        -11   -1    0    0    0    0  0.00000000000E+00  0.00000000000E+00  0.45593999997E+02  0.45594000000E+02  0.51100000000E-03 0.  1.
         11   -1    0    0    0    0 -0.00000000000E+00 -0.00000000000E+00 -0.45593999997E+02  0.45594000000E+02  0.51100000000E-03 0. -1.
    9900012    2    1    2    0    0 -0.55772261413E+01 -0.45583238559E+01  0.42798824695E+02  0.47787272321E+02  0.20000005820E+02 0.  0.
         12    1    1    2    0    0  0.55772261413E+01  0.45583238559E+01 -0.42798824695E+02  0.43400727679E+02  0.00000000000E+00 0. -1.
         11    1    3    3    0    0  0.17049684041E+01 -0.42067118908E+00  0.75465667109E+00  0.19113839124E+01  0.51100000000E-03 0. -1.
        -11    1    3    3    0    0 -0.11355730598E+02  0.94952268126E+00  0.21651528584E+02  0.24467180079E+02  0.51100000000E-03 0.  1.
        -12    1    3    3    0    0  0.40735360530E+01 -0.50871753481E+01  0.20392639440E+02  0.21408708329E+02  0.00000000000E+00 0.  1.
</event>
<event>
 7    1  0.2647566E-010  0.4778727E+02  0.7816164E-02  0.1312668E+00
        -11   -1    0    0    0    0  0.00000000000E+00  0.00000000000E+00  0.45593999997E+02  0.45594000000E+02  0.51100000000E-03 0.  1.
         11   -1    0    0    0    0 -0.00000000000E+00 -0.00000000000E+00 -0.45593999997E+02  0.45594000000E+02  0.51100000000E-03 0. -1.
    9900012    2    1    2    0    0  0.40515034742E+02  0.30897989279E+01  0.15251504845E+02  0.47787270771E+02  0.19999998753E+02 0.  0.
         12    1    1    2    0    0 -0.40515034742E+02 -0.30897989279E+01 -0.15251504845E+02  0.43400729229E+02  0.00000000000E+00 0. -1.
         11    1    3    3    0    0 -0.83600589890E+00  0.14738496323E+01  0.79313567978E+00  0.18708829652E+01  0.51100000000E-03 0. -1.
        -11    1    3    3    0    0  0.10400176062E+02 -0.55754499401E+01  0.42215458061E+01  0.12532787137E+02  0.51100000000E-03 0.  1.
        -12    1    3    3    0    0  0.30950864579E+02  0.71913992357E+01  0.10236823360E+02  0.33383600669E+02  0.00000000000E+00 0.  1.
</event>
<event>
 7    1  0.2647566E-010  0.4778727E+02  0.7816164E-02  0.1312668E+00
        -11   -1    0    0    0    0  0.00000000000E+00  0.00000000000E+00  0.45593999997E+02  0.45594000000E+02  0.51100000000E-03 0. -1.
         11   -1    0    0    0    0 -0.00000000000E+00 -0.00000000000E+00 -0.45593999997E+02  0.45594000000E+02  0.51100000000E-03 0.  1.
    9900012    2    1    2    0    0  0.28376599723E+02  0.17107424992E+02  0.28030835275E+02  0.47787272726E+02  0.20000007668E+02 0.  0.
         12    1    1    2    0    0 -0.28376599723E+02 -0.17107424992E+02 -0.28030835275E+02  0.43400727274E+02  0.00000000000E+00 0. -1.
         11    1    3    3    0    0  0.17363897365E+01  0.69914577443E+01  0.92494318004E+01  0.11723801414E+02  0.51100000000E-03 0. -1.
        -11    1    3    3    0    0  0.39089627304E+01 -0.24783553000E+01  0.15435365409E+01  0.48790101388E+01  0.51100000000E-03 0.  1.
         12    1    3    3    0    0  0.22731247256E+02  0.12594322548E+02  0.17237866933E+02  0.31184461173E+02  0.00000000000E+00 0. -1.
</event>
<event>
 7    1  0.2647566E-010  0.4778727E+02  0.7816164E-02  0.1312668E+00
        -11   -1    0    0    0    0  0.00000000000E+00  0.00000000000E+00  0.45593999997E+02  0.45594000000E+02  0.51100000000E-03 0.  1.
         11   -1    0    0    0    0 -0.00000000000E+00 -0.00000000000E+00 -0.45593999997E+02  0.45594000000E+02  0.51100000000E-03 0. -1.
    9900012    2    1    2    0    0  0.11882906585E+02 -0.37510107559E+02  0.18314243616E+02  0.47787272388E+02  0.20000006125E+02 0.  0.
         12    1    1    2    0    0 -0.11882906585E+02  0.37510107559E+02 -0.18314243616E+02  0.43400727612E+02  0.00000000000E+00 0. -1.
         11    1    3    3    0    0  0.80477179518E+01 -0.50845597816E+01 -0.82487452195E+00  0.95550473909E+01  0.51100000000E-03 0. -1.
        -11    1    3    3    0    0  0.31921068935E+01 -0.75299280681E+01  0.52200378057E+01  0.97024820579E+01  0.51100000000E-03 0.  1.
        -12    1    3    3    0    0  0.64308174013E+00 -0.24895619710E+02  0.13919080333E+02  0.28529742939E+02  0.00000000000E+00 0.  1.
</event>
<event>
 7    1  0.2647566E-010  0.4778727E+02  0.7816164E-02  0.1312668E+00
        -11   -1    0    0    0    0  0.00000000000E+00  0.00000000000E+00  0.45593999997E+02  0.45594000000E+02  0.51100000000E-03 0.  1.
         11   -1    0    0    0    0 -0.00000000000E+00 -0.00000000000E+00 -0.45593999997E+02  0.45594000000E+02  0.51100000000E-03 0. -1.
    9900012    2    1    2    0    0 -0.20096097141E+02 -0.26345936457E+02  0.28029658957E+02  0.47787271097E+02  0.20000000240E+02 0.  0.
         12    1    1    2    0    0  0.20096097141E+02  0.26345936457E+02 -0.28029658957E+02  0.43400728903E+02  0.00000000000E+00 0. -1.
         11    1    3    3    0    0 -0.12952356778E+02 -0.16554912438E+02  0.71809250387E+01  0.22212482000E+02  0.51100000000E-03 0. -1.
        -11    1    3    3    0    0 -0.46890959479E+01 -0.10867618698E+02  0.14740680823E+02  0.18904508149E+02  0.51100000000E-03 0.  1.
        -12    1    3    3    0    0 -0.24546444145E+01  0.10765946792E+01  0.61080530957E+01  0.66702809480E+01  0.00000000000E+00 0.  1.
</event>
<event>
 7    1  0.2647566E-010  0.4778727E+02  0.7816164E-02  0.1312668E+00
        -11   -1    0    0    0    0  0.00000000000E+00  0.00000000000E+00  0.45593999997E+02  0.45594000000E+02  0.51100000000E-03 0.  1.
         11   -1    0    0    0    0 -0.00000000000E+00 -0.00000000000E+00 -0.45593999997E+02  0.45594000000E+02  0.51100000000E-03 0. -1.
    9900012    2    1    2    0    0  0.41784490124E+02  0.88532086196E+01  0.77006640648E+01  0.47787272531E+02  0.20000006779E+02 0.  0.
         12    1    1    2    0    0 -0.41784490124E+02 -0.88532086196E+01 -0.77006640648E+01  0.43400727469E+02  0.00000000000E+00 0. -1.
         11    1    3    3    0    0  0.14911661087E+02  0.36407209912E+01  0.43463989479E+00  0.15355826184E+02  0.51100000000E-03 0.  1.
        -11    1    3    3    0    0  0.23930479940E+02  0.86558279681E+01  0.20601412855E+01  0.25531067552E+02  0.51100000000E-03 0. -1.
         12    1    3    3    0    0  0.29423490968E+01 -0.34433403397E+01  0.52058828846E+01  0.69003787946E+01  0.00000000000E+00 0. -1.
</event>
<event>
 7    1  0.2647566E-010  0.4778727E+02  0.7816164E-02  0.1312668E+00
        -11   -1    0    0    0    0  0.00000000000E+00  0.00000000000E+00  0.45593999997E+02  0.45594000000E+02  0.51100000000E-03 0. -1.
         11   -1    0    0    0    0 -0.00000000000E+00 -0.00000000000E+00 -0.45593999997E+02  0.45594000000E+02  0.51100000000E-03 0.  1.
    9900012    2    1    2    0    0 -0.22607338402E+02  0.18348610161E+02  0.32184779474E+02  0.47787271040E+02  0.19999999979E+02 0.  0.
         12    1    1    2    0    0  0.22607338402E+02 -0.18348610161E+02 -0.32184779474E+02  0.43400728960E+02  0.00000000000E+00 0. -1.
         11    1    3    3    0    0 -0.49666662167E+01  0.79929232841E+01  0.62747591077E+01  0.11310490620E+02  0.51100000000E-03 0. -1.
        -11    1    3    3    0    0 -0.11178453826E+02  0.13960048615E+02  0.15266898488E+02  0.23514229245E+02  0.51100000000E-03 0.  1.
         12    1    3    3    0    0 -0.64622183590E+01 -0.36043617376E+01  0.10643121878E+02  0.12962551175E+02  0.00000000000E+00 0. -1.
</event>
<event>
 7    1  0.2647566E-010  0.4778727E+02  0.7816164E-02  0.1312668E+00
        -11   -1    0    0    0    0  0.00000000000E+00  0.00000000000E+00  0.45593999997E+02  0.45594000000E+02  0.51100000000E-03 0.  1.
         11   -1    0    0    0    0 -0.00000000000E+00 -0.00000000000E+00 -0.45593999997E+02  0.45594000000E+02  0.51100000000E-03 0. -1.
    9900012    2    1    2    0    0  0.17617649194E+02 -0.37097992061E+02  0.14034970444E+02  0.47787274505E+02  0.20000015780E+02 0.  0.
         12    1    1    2    0    0 -0.17617649194E+02  0.37097992061E+02 -0.14034970444E+02  0.43400725495E+02  0.00000000000E+00 0. -1.
         11    1    3    3    0    0  0.27636400552E+01 -0.27893764539E+01 -0.32794158375E+01  0.51159452550E+01  0.51100000000E-03 0. -1.
        -11    1    3    3    0    0 -0.12189221163E+00 -0.12601519798E+02  0.48640118970E+01  0.13508211241E+02  0.51100000000E-03 0.  1.
         12    1    3    3    0    0  0.14975901351E+02 -0.21707095809E+02  0.12450374385E+02  0.29163118010E+02  0.00000000000E+00 0. -1.
</event>
<event>
 7    1  0.2647566E-010  0.4778726E+02  0.7816164E-02  0.1312668E+00
        -11   -1    0    0    0    0  0.00000000000E+00  0.00000000000E+00  0.45593999997E+02  0.45594000000E+02  0.51100000000E-03 0.  1.
         11   -1    0    0    0    0 -0.00000000000E+00 -0.00000000000E+00 -0.45593999997E+02  0.45594000000E+02  0.51100000000E-03 0. -1.
    9900012    2    1    2    0    0 -0.59834218207E+00  0.19293200374E+02  0.38872076517E+02  0.47787263522E+02  0.19999965703E+02 0.  0.
         12    1    1    2    0    0  0.59834218207E+00 -0.19293200374E+02 -0.38872076517E+02  0.43400736478E+02  0.00000000000E+00 0. -1.
         11    1    3    3    0    0  0.36649154326E+01  0.14123749184E+02  0.29364050453E+02  0.32789622679E+02  0.51100000000E-03 0. -1.
        -11    1    3    3    0    0 -0.29822636437E+01  0.76356850101E+01  0.89979796399E+01  0.12172149353E+02  0.51100000000E-03 0.  1.
        -12    1    3    3    0    0 -0.12809939709E+01 -0.24662338199E+01  0.51004642448E+00  0.28254914905E+01  0.00000000000E+00 0.  1.
</event>
<event>
 7    1  0.2647566E-010  0.4778727E+02  0.7816164E-02  0.1312668E+00
        -11   -1    0    0    0    0  0.00000000000E+00  0.00000000000E+00  0.45593999997E+02  0.45594000000E+02  0.51100000000E-03 0. -1.
         11   -1    0    0    0    0 -0.00000000000E+00 -0.00000000000E+00 -0.45593999997E+02  0.45594000000E+02  0.51100000000E-03 0.  1.
    9900012    2    1    2    0    0  0.11827427877E+02 -0.38797545166E+02 -0.15442982590E+02  0.47787271062E+02  0.20000000079E+02 0.  0.
         12    1    1    2    0    0 -0.11827427877E+02  0.38797545166E+02  0.15442982590E+02  0.43400728938E+02  0.00000000000E+00 0. -1.
         11    1    3    3    0    0 -0.13885199044E+01  0.35929277335E+00  0.17773421695E+01  0.22838617012E+01  0.51100000000E-03 0. -1.
        -11    1    3    3    0    0  0.74695905829E+00 -0.53313735864E+00  0.68260227561E+00  0.11437348494E+01  0.51100000000E-03 0.  1.
        -12    1    3    3    0    0  0.12468988723E+02 -0.38623700581E+02 -0.17902927035E+02  0.44359674511E+02  0.00000000000E+00 0.  1.
</event>
<event>
 7    1  0.2647566E-010  0.4778723E+02  0.7816164E-02  0.1312668E+00
        -11   -1    0    0    0    0  0.00000000000E+00  0.00000000000E+00  0.45593999997E+02  0.45594000000E+02  0.51100000000E-03 0.  1.
         11   -1    0    0    0    0 -0.00000000000E+00 -0.00000000000E+00 -0.45593999997E+02  0.45594000000E+02  0.51100000000E-03 0. -1.
    9900012    2    1    2    0    0 -0.65381224719E+00  0.39073100387E+02  0.18880994408E+02  0.47787232793E+02  0.19999825597E+02 0.  0.
         12    1    1    2    0    0  0.65381224719E+00 -0.39073100387E+02 -0.18880994408E+02  0.43400767207E+02  0.00000000000E+00 0. -1.
         11    1    3    3    0    0  0.33271159281E+01  0.21779473874E+02  0.91894238144E+01  0.23871755129E+02  0.51100000000E-03 0. -1.
        -11    1    3    3    0    0  0.18611953024E+01  0.15654276574E+02  0.75664360050E+01  0.17486319712E+02  0.51100000000E-03 0.  1.
         12    1    3    3    0    0 -0.58421234778E+01  0.16393499390E+01  0.21251345887E+01  0.64291579520E+01  0.00000000000E+00 0. -1.
</event>
<event>
 7    1  0.2647566E-010  0.4778727E+02  0.7816164E-02  0.1312668E+00
        -11   -1    0    0    0    0  0.00000000000E+00  0.00000000000E+00  0.45593999997E+02  0.45594000000E+02  0.51100000000E-03 0.  1.
         11   -1    0    0    0    0 -0.00000000000E+00 -0.00000000000E+00 -0.45593999997E+02  0.45594000000E+02  0.51100000000E-03 0. -1.
    9900012    2    1    2    0    0 -0.31685492832E+02 -0.20472765496E+02  0.21459704492E+02  0.47787268440E+02  0.19999988124E+02 0.  0.
         12    1    1    2    0    0  0.31685492832E+02  0.20472765496E+02 -0.21459704492E+02  0.43400731560E+02  0.00000000000E+00 0. -1.
         11    1    3    3    0    0  0.23759069558E+01 -0.19919448487E+01  0.98656295256E+00  0.32536264173E+01  0.51100000000E-03 0. -1.
        -11    1    3    3    0    0 -0.27137306967E+01 -0.26998026999E+01 -0.14284404747E+00  0.38306231341E+01  0.51100000000E-03 0.  1.
        -12    1    3    3    0    0 -0.31347669091E+02 -0.15781017948E+02  0.20615985587E+02  0.40703018888E+02  0.00000000000E+00 0.  1.
</event>
<event>
 7    1  0.2647566E-010  0.4778731E+02  0.7816164E-02  0.1312668E+00
        -11   -1    0    0    0    0  0.00000000000E+00  0.00000000000E+00  0.45593999997E+02  0.45594000000E+02  0.51100000000E-03 0.  1.
         11   -1    0    0    0    0 -0.00000000000E+00 -0.00000000000E+00 -0.45593999997E+02  0.45594000000E+02  0.51100000000E-03 0. -1.
    9900012    2    1    2    0    0  0.30349660501E+02  0.29266666263E+02  0.10294661155E+02  0.47787312276E+02  0.20000187990E+02 0.  0.
         12    1    1    2    0    0 -0.30349660501E+02 -0.29266666263E+02 -0.10294661155E+02  0.43400687724E+02  0.00000000000E+00 0. -1.
         11    1    3    3    0    0  0.12707887058E+02  0.80618820678E+01  0.72327828495E+01  0.16697229829E+02  0.51100000000E-03 0. -1.
        -11    1    3    3    0    0  0.84261782256E+01  0.15277395573E+02  0.78508129580E+01  0.19132029671E+02  0.51100000000E-03 0.  1.
         12    1    3    3    0    0  0.92155952168E+01  0.59273886221E+01 -0.47889346524E+01  0.11958052776E+02  0.00000000000E+00 0. -1.
</event>
<event>
 7    1  0.2647566E-010  0.4778727E+02  0.7816164E-02  0.1312668E+00
        -11   -1    0    0    0    0  0.00000000000E+00  0.00000000000E+00  0.45593999997E+02  0.45594000000E+02  0.51100000000E-03 0.  1.
         11   -1    0    0    0    0 -0.00000000000E+00 -0.00000000000E+00 -0.45593999997E+02  0.45594000000E+02  0.51100000000E-03 0. -1.
    9900012    2    1    2    0    0 -0.64973542027E+01  0.15791464345E+02  0.39900340686E+02  0.47787272533E+02  0.20000006786E+02 0.  0.
         12    1    1    2    0    0  0.64973542027E+01 -0.15791464345E+02 -0.39900340686E+02  0.43400727467E+02  0.00000000000E+00 0. -1.
         11    1    3    3    0    0 -0.38147001493E+01  0.29439210317E+01  0.22993297917E+02  0.23492772455E+02  0.51100000000E-03 0. -1.
        -11    1    3    3    0    0 -0.59176270983E+01  0.31580796828E+01  0.96980383443E+01  0.11791680361E+02  0.51100000000E-03 0.  1.
         12    1    3    3    0    0  0.32349730449E+01  0.96894636309E+01  0.72090044250E+01  0.12502819716E+02  0.00000000000E+00 0. -1.
</event>
<event>
 7    1  0.2647566E-010  0.4778729E+02  0.7816164E-02  0.1312668E+00
        -11   -1    0    0    0    0  0.00000000000E+00  0.00000000000E+00  0.45593999997E+02  0.45594000000E+02  0.51100000000E-03 0.  1.
         11   -1    0    0    0    0 -0.00000000000E+00 -0.00000000000E+00 -0.45593999997E+02  0.45594000000E+02  0.51100000000E-03 0. -1.
    9900012    2    1    2    0    0  0.12146634343E+02  0.16944435140E+02  0.38065297365E+02  0.47787291808E+02  0.20000094669E+02 0.  0.
         12    1    1    2    0    0 -0.12146634343E+02 -0.16944435140E+02 -0.38065297365E+02  0.43400708192E+02  0.00000000000E+00 0. -1.
         11    1    3    3    0    0  0.93392325476E+01  0.16083930368E+02  0.18278934532E+02  0.26077452494E+02  0.51100000000E-03 0.  1.
        -11    1    3    3    0    0 -0.89968146448E+00  0.43905874653E+00 -0.47482624632E+00  0.11079979900E+01  0.51100000000E-03 0. -1.
        -12    1    3    3    0    0  0.37070832600E+01  0.42144602551E+00  0.20261189079E+02  0.20601841324E+02  0.00000000000E+00 0.  1.
</event>
<event>
 7    1  0.2647566E-010  0.4778727E+02  0.7816164E-02  0.1312668E+00
        -11   -1    0    0    0    0  0.00000000000E+00  0.00000000000E+00  0.45593999997E+02  0.45594000000E+02  0.51100000000E-03 0. -1.
         11   -1    0    0    0    0 -0.00000000000E+00 -0.00000000000E+00 -0.45593999997E+02  0.45594000000E+02  0.51100000000E-03 0.  1.
    9900012    2    1    2    0    0 -0.12036485758E+02 -0.41698256096E+02  0.44575062737E-01  0.47787268004E+02  0.19999986139E+02 0.  0.
         12    1    1    2    0    0  0.12036485758E+02  0.41698256096E+02 -0.44575062737E-01  0.43400731996E+02  0.00000000000E+00 0. -1.
         11    1    3    3    0    0 -0.74951425034E+01 -0.24201837209E+01  0.25333255319E+00  0.78802682716E+01  0.51100000000E-03 0. -1.
        -11    1    3    3    0    0  0.54111774697E+00 -0.14721134145E+02  0.12723868706E+01  0.14785924643E+02  0.51100000000E-03 0.  1.
        -12    1    3    3    0    0 -0.50824610021E+01 -0.24556938229E+02 -0.14811443611E+01  0.25121075090E+02  0.00000000000E+00 0.  1.
</event>
<event>
 7    1  0.2647566E-010  0.4778727E+02  0.7816164E-02  0.1312668E+00
        -11   -1    0    0    0    0  0.00000000000E+00  0.00000000000E+00  0.45593999997E+02  0.45594000000E+02  0.51100000000E-03 0.  1.
         11   -1    0    0    0    0 -0.00000000000E+00 -0.00000000000E+00 -0.45593999997E+02  0.45594000000E+02  0.51100000000E-03 0. -1.
    9900012    2    1    2    0    0  0.10851231300E+02  0.37809356298E+02  0.18339212982E+02  0.47787269855E+02  0.19999994575E+02 0.  0.
         12    1    1    2    0    0 -0.10851231300E+02 -0.37809356298E+02 -0.18339212982E+02  0.43400730145E+02  0.00000000000E+00 0. -1.
         11    1    3    3    0    0  0.34782558134E+01  0.61303559082E+01 -0.38476600735E+01  0.80301939806E+01  0.51100000000E-03 0. -1.
        -11    1    3    3    0    0  0.16098017200E+01  0.29365666868E+01  0.72640800340E+00  0.34267410658E+01  0.51100000000E-03 0.  1.
        -12    1    3    3    0    0  0.57631737661E+01  0.28742433703E+02  0.21460465052E+02  0.36330334808E+02  0.00000000000E+00 0.  1.
</event>
<event>
 7    1  0.2647566E-010  0.4778724E+02  0.7816164E-02  0.1312668E+00
        -11   -1    0    0    0    0  0.00000000000E+00  0.00000000000E+00  0.45593999997E+02  0.45594000000E+02  0.51100000000E-03 0. -1.
         11   -1    0    0    0    0 -0.00000000000E+00 -0.00000000000E+00 -0.45593999997E+02  0.45594000000E+02  0.51100000000E-03 0.  1.
    9900012    2    1    2    0    0 -0.15837241167E+02 -0.30629061761E+02 -0.26356555826E+02  0.47787243473E+02  0.19999874289E+02 0.  0.
         12    1    1    2    0    0  0.15837241167E+02  0.30629061761E+02  0.26356555826E+02  0.43400756527E+02  0.00000000000E+00 0. -1.
         11    1    3    3    0    0 -0.85832700740E+01 -0.16432748000E+02 -0.10428621464E+02  0.21271198318E+02  0.51100000000E-03 0. -1.
        -11    1    3    3    0    0 -0.10147303187E+02 -0.14482966098E+02 -0.11096343766E+02  0.20877090655E+02  0.51100000000E-03 0.  1.
         12    1    3    3    0    0  0.28933320936E+01  0.28665233720E+00 -0.48315905963E+01  0.56389545003E+01  0.00000000000E+00 0. -1.
</event>
<event>
 7    1  0.2647566E-010  0.4778727E+02  0.7816164E-02  0.1312668E+00
        -11   -1    0    0    0    0  0.00000000000E+00  0.00000000000E+00  0.45593999997E+02  0.45594000000E+02  0.51100000000E-03 0.  1.
         11   -1    0    0    0    0 -0.00000000000E+00 -0.00000000000E+00 -0.45593999997E+02  0.45594000000E+02  0.51100000000E-03 0. -1.
    9900012    2    1    2    0    0  0.10732285464E+02  0.34941475107E+00  0.42051388906E+02  0.47787270158E+02  0.19999995956E+02 0.  0.
         12    1    1    2    0    0 -0.10732285464E+02 -0.34941475107E+00 -0.42051388906E+02  0.43400729842E+02  0.00000000000E+00 0. -1.
         11    1    3    3    0    0  0.92345200615E+01 -0.35237243257E+01  0.17243673240E+02  0.19875544293E+02  0.51100000000E-03 0. -1.
        -11    1    3    3    0    0  0.16872765752E+01 -0.20242917811E+01  0.20341636046E+02  0.20511626380E+02  0.51100000000E-03 0.  1.
        -12    1    3    3    0    0 -0.18951117280E+00  0.58974308579E+01  0.44660796203E+01  0.74000994847E+01  0.00000000000E+00 0.  1.
</event>
<event>
 7    1  0.2647566E-010  0.4778727E+02  0.7816164E-02  0.1312668E+00
        -11   -1    0    0    0    0  0.00000000000E+00  0.00000000000E+00  0.45593999997E+02  0.45594000000E+02  0.51100000000E-03 0. -1.
         11   -1    0    0    0    0 -0.00000000000E+00 -0.00000000000E+00 -0.45593999997E+02  0.45594000000E+02  0.51100000000E-03 0.  1.
    9900012    2    1    2    0    0  0.36849612778E+02 -0.21061081329E+02  0.90642356988E+01  0.47787268699E+02  0.19999989308E+02 0.  0.
         12    1    1    2    0    0 -0.36849612778E+02  0.21061081329E+02 -0.90642356988E+01  0.43400731301E+02  0.00000000000E+00 0. -1.
         11    1    3    3    0    0  0.31406808659E+02 -0.13513547234E+02  0.14014429853E+02  0.36951425322E+02  0.51100000000E-03 0. -1.
        -11    1    3    3    0    0  0.31103142347E+01 -0.31906156206E+01 -0.11503240788E+01  0.46018831389E+01  0.51100000000E-03 0.  1.
         12    1    3    3    0    0  0.23324898840E+01 -0.43569184750E+01 -0.37998700757E+01  0.62339602380E+01  0.00000000000E+00 0. -1.
</event>
<event>
 7    1  0.2647566E-010  0.4778727E+02  0.7816164E-02  0.1312668E+00
        -11   -1    0    0    0    0  0.00000000000E+00  0.00000000000E+00  0.45593999997E+02  0.45594000000E+02  0.51100000000E-03 0.  1.
         11   -1    0    0    0    0 -0.00000000000E+00 -0.00000000000E+00 -0.45593999997E+02  0.45594000000E+02  0.51100000000E-03 0. -1.
    9900012    2    1    2    0    0  0.30870532056E+02  0.30208336202E+02  0.42532544422E+01  0.47787268452E+02  0.19999988181E+02 0.  0.
         12    1    1    2    0    0 -0.30870532056E+02 -0.30208336202E+02 -0.42532544422E+01  0.43400731548E+02  0.00000000000E+00 0. -1.
         11    1    3    3    0    0  0.22625263694E+02  0.18635448277E+02 -0.38862674634E+01  0.29568320290E+02  0.51100000000E-03 0. -1.
        -11    1    3    3    0    0 -0.55347602725E+00  0.52155129148E+01  0.13513895238E+01  0.54161023424E+01  0.51100000000E-03 0.  1.
         12    1    3    3    0    0  0.87987443892E+01  0.63573750103E+01  0.67881323817E+01  0.12802845820E+02  0.00000000000E+00 0. -1.
</event>
<event>
 7    1  0.2647566E-010  0.4778729E+02  0.7816164E-02  0.1312668E+00
        -11   -1    0    0    0    0  0.00000000000E+00  0.00000000000E+00  0.45593999997E+02  0.45594000000E+02  0.51100000000E-03 0. -1.
         11   -1    0    0    0    0 -0.00000000000E+00 -0.00000000000E+00 -0.45593999997E+02  0.45594000000E+02  0.51100000000E-03 0.  1.
    9900012    2    1    2    0    0  0.84537678740E+01 -0.36445258269E+02  0.21997698205E+02  0.47787288395E+02  0.20000079106E+02 0.  0.
         12    1    1    2    0    0 -0.84537678740E+01  0.36445258269E+02 -0.21997698205E+02  0.43400711605E+02  0.00000000000E+00 0. -1.
         11    1    3    3    0    0 -0.17664816071E+01 -0.64316638529E+01  0.85046454464E+01  0.10808133586E+02  0.51100000000E-03 0.  1.
        -11    1    3    3    0    0 -0.10512334198E+01 -0.16393212100E+01  0.48833776206E+01  0.52573608378E+01  0.51100000000E-03 0. -1.
        -12    1    3    3    0    0  0.11271482901E+02 -0.28374273206E+02  0.86096751378E+01  0.31721793971E+02  0.00000000000E+00 0.  1.
</event>
<event>
 7    1  0.3763171E-010  0.4778730E+02  0.7816164E-02  0.1312668E+00
        -11   -1    0    0    0    0  0.00000000000E+00  0.00000000000E+00  0.45593999997E+02  0.45594000000E+02  0.51100000000E-03 0. -1.
         11   -1    0    0    0    0 -0.00000000000E+00 -0.00000000000E+00 -0.45593999997E+02  0.45594000000E+02  0.51100000000E-03 0.  1.
    9900012    2    1    2    0    0 -0.17914106416E+02 -0.93218092922E+01 -0.38416262810E+02  0.47787302016E+02  0.20000141213E+02 0.  0.
         12    1    1    2    0    0  0.17914106416E+02  0.93218092922E+01  0.38416262810E+02  0.43400697984E+02  0.00000000000E+00 0. -1.
         11    1    3    3    0    0  0.95108993676E+00  0.68241841128E+00 -0.85326310966E+01  0.86125525048E+01  0.51100000000E-03 0. -1.
        -11    1    3    3    0    0 -0.95697271421E+01 -0.76449530094E+01 -0.26162845408E+02  0.28888050544E+02  0.51100000000E-03 0.  1.
         12    1    3    3    0    0 -0.92954692106E+01 -0.23592746941E+01 -0.37207863051E+01  0.10286698968E+02  0.00000000000E+00 0. -1.
</event>
<event>
 7    1  0.2647566E-010  0.4778727E+02  0.7816164E-02  0.1312668E+00
        -11   -1    0    0    0    0  0.00000000000E+00  0.00000000000E+00  0.45593999997E+02  0.45594000000E+02  0.51100000000E-03 0.  1.
         11   -1    0    0    0    0 -0.00000000000E+00 -0.00000000000E+00 -0.45593999997E+02  0.45594000000E+02  0.51100000000E-03 0. -1.
    9900012    2    1    2    0    0  0.52462002025E+01  0.16751500407E+02  0.39692412050E+02  0.47787274697E+02  0.20000016654E+02 0.  0.
         12    1    1    2    0    0 -0.52462002025E+01 -0.16751500407E+02 -0.39692412050E+02  0.43400725303E+02  0.00000000000E+00 0. -1.
         11    1    3    3    0    0  0.54025440182E+01  0.85485934468E+01  0.19066482008E+02  0.21582323050E+02  0.51100000000E-03 0. -1.
        -11    1    3    3    0    0 -0.10515822860E+01  0.98776414940E+00  0.18602226700E+02  0.18658090518E+02  0.51100000000E-03 0.  1.
         12    1    3    3    0    0  0.89523847029E+00  0.72151428104E+01  0.20237033422E+01  0.75468611296E+01  0.00000000000E+00 0. -1.
</event>
<event>
 7    1  0.2647566E-010  0.4778727E+02  0.7816164E-02  0.1312668E+00
        -11   -1    0    0    0    0  0.00000000000E+00  0.00000000000E+00  0.45593999997E+02  0.45594000000E+02  0.51100000000E-03 0. -1.
         11   -1    0    0    0    0 -0.00000000000E+00 -0.00000000000E+00 -0.45593999997E+02  0.45594000000E+02  0.51100000000E-03 0.  1.
    9900012    2    1    2    0    0  0.23752397387E+02 -0.24820793589E+02 -0.26521221104E+02  0.47787270226E+02  0.19999996270E+02 0.  0.
         12    1    1    2    0    0 -0.23752397387E+02  0.24820793589E+02  0.26521221104E+02  0.43400729774E+02  0.00000000000E+00 0. -1.
         11    1    3    3    0    0 -0.42219648143E+00 -0.69284672219E+00 -0.18485143867E+01  0.20187352844E+01  0.51100000000E-03 0. -1.
        -11    1    3    3    0    0  0.25130206994E+02 -0.18749146299E+02 -0.25274716260E+02  0.40272435645E+02  0.51100000000E-03 0.  1.
         12    1    3    3    0    0 -0.95561312498E+00 -0.53788005675E+01  0.60200954284E+00  0.54960992967E+01  0.00000000000E+00 0. -1.
</event>
<event>
 7    1  0.2647566E-010  0.4778727E+02  0.7816164E-02  0.1312668E+00
        -11   -1    0    0    0    0  0.00000000000E+00  0.00000000000E+00  0.45593999997E+02  0.45594000000E+02  0.51100000000E-03 0. -1.
         11   -1    0    0    0    0 -0.00000000000E+00 -0.00000000000E+00 -0.45593999997E+02  0.45594000000E+02  0.51100000000E-03 0.  1.
    9900012    2    1    2    0    0 -0.33909394117E+02  0.53213383941E+01 -0.26560490834E+02  0.47787270455E+02  0.19999997312E+02 0.  0.
         12    1    1    2    0    0  0.33909394117E+02 -0.53213383941E+01  0.26560490834E+02  0.43400729545E+02  0.00000000000E+00 0. -1.
         11    1    3    3    0    0 -0.25005350691E+02  0.28647934331E+01 -0.16553165352E+02  0.30124440045E+02  0.51100000000E-03 0. -1.
        -11    1    3    3    0    0 -0.80866225962E+01 -0.36876651533E-01 -0.11928129070E+02  0.14410936412E+02  0.51100000000E-03 0.  1.
         12    1    3    3    0    0 -0.81742083009E+00  0.24934216125E+01  0.19208035879E+01  0.32518939980E+01  0.00000000000E+00 0. -1.
</event>
<event>
 7    1  0.2647566E-010  0.4778727E+02  0.7816164E-02  0.1312668E+00
        -11   -1    0    0    0    0  0.00000000000E+00  0.00000000000E+00  0.45593999997E+02  0.45594000000E+02  0.51100000000E-03 0.  1.
         11   -1    0    0    0    0 -0.00000000000E+00 -0.00000000000E+00 -0.45593999997E+02  0.45594000000E+02  0.51100000000E-03 0. -1.
    9900012    2    1    2    0    0 -0.33304592437E+02 -0.21912334841E+02  0.17154504880E+02  0.47787270361E+02  0.19999996883E+02 0.  0.
         12    1    1    2    0    0  0.33304592437E+02  0.21912334841E+02 -0.17154504880E+02  0.43400729639E+02  0.00000000000E+00 0. -1.
         11    1    3    3    0    0 -0.19886829364E+02 -0.14895657117E+02  0.71688074856E+01  0.25860363187E+02  0.51100000000E-03 0.  1.
        -11    1    3    3    0    0 -0.77147738318E+00 -0.56744990827E+01 -0.49723067362E-01  0.57269180051E+01  0.51100000000E-03 0. -1.
         12    1    3    3    0    0 -0.12646285689E+02 -0.13421786409E+01  0.10035420461E+02  0.16199989169E+02  0.00000000000E+00 0. -1.
</event>
<event>
 7    1  0.2647566E-010  0.4778728E+02  0.7816164E-02  0.1312668E+00
        -11   -1    0    0    0    0  0.00000000000E+00  0.00000000000E+00  0.45593999997E+02  0.45594000000E+02  0.51100000000E-03 0.  1.
         11   -1    0    0    0    0 -0.00000000000E+00 -0.00000000000E+00 -0.45593999997E+02  0.45594000000E+02  0.51100000000E-03 0. -1.
    9900012    2    1    2    0    0 -0.58298772090E+01 -0.42871237380E+02  0.34193989823E+01  0.47787277055E+02  0.20000027404E+02 0.  0.
         12    1    1    2    0    0  0.58298772090E+01  0.42871237380E+02 -0.34193989823E+01  0.43400722945E+02  0.00000000000E+00 0. -1.
         11    1    3    3    0    0  0.23507543850E+01 -0.63426543283E+01 -0.35788908716E+01  0.76526969259E+01  0.51100000000E-03 0. -1.
        -11    1    3    3    0    0 -0.73635448720E+01 -0.13881988550E+02 -0.18176171785E+01  0.15818822069E+02  0.51100000000E-03 0.  1.
         12    1    3    3    0    0 -0.81708672196E+00 -0.22646594502E+02  0.88159070324E+01  0.24315758060E+02  0.00000000000E+00 0. -1.
</event>
<event>
 7    1  0.2647566E-010  0.4778727E+02  0.7816164E-02  0.1312668E+00
        -11   -1    0    0    0    0  0.00000000000E+00  0.00000000000E+00  0.45593999997E+02  0.45594000000E+02  0.51100000000E-03 0.  1.
         11   -1    0    0    0    0 -0.00000000000E+00 -0.00000000000E+00 -0.45593999997E+02  0.45594000000E+02  0.51100000000E-03 0. -1.
    9900012    2    1    2    0    0  0.29670283491E+02 -0.30512544661E+02  0.85018942263E+01  0.47787270633E+02  0.19999998123E+02 0.  0.
         12    1    1    2    0    0 -0.29670283491E+02  0.30512544661E+02 -0.85018942263E+01  0.43400729367E+02  0.00000000000E+00 0. -1.
         11    1    3    3    0    0  0.56169889322E+01 -0.11068666269E+02  0.10146770102E+02  0.16031933177E+02  0.51100000000E-03 0. -1.
        -11    1    3    3    0    0  0.67238101097E+01 -0.97679146727E+01 -0.92634263040E+00  0.11894531953E+02  0.51100000000E-03 0.  1.
         12    1    3    3    0    0  0.17329484450E+02 -0.96759637202E+01 -0.71853324542E+00  0.19860805503E+02  0.00000000000E+00 0. -1.
</event>
<event>
 7    1  0.2647566E-010  0.4778727E+02  0.7816164E-02  0.1312668E+00
        -11   -1    0    0    0    0  0.00000000000E+00  0.00000000000E+00  0.45593999997E+02  0.45594000000E+02  0.51100000000E-03 0. -1.
         11   -1    0    0    0    0 -0.00000000000E+00 -0.00000000000E+00 -0.45593999997E+02  0.45594000000E+02  0.51100000000E-03 0.  1.
    9900012    2    1    2    0    0  0.33923779147E+02 -0.95904015748E+01 -0.25314508901E+02  0.47787274720E+02  0.20000016756E+02 0.  0.
         12    1    1    2    0    0 -0.33923779147E+02  0.95904015748E+01  0.25314508901E+02  0.43400725280E+02  0.00000000000E+00 0. -1.
         11    1    3    3    0    0 -0.35211278535E+00  0.54896565722E+00 -0.86825712304E+00  0.10859177682E+01  0.51100000000E-03 0. -1.
        -11    1    3    3    0    0  0.35104785687E+02 -0.11115411531E+02 -0.19650836549E+02  0.41737917161E+02  0.51100000000E-03 0.  1.
        -12    1    3    3    0    0 -0.82889375471E+00  0.97604429895E+00 -0.47954152295E+01  0.49634397905E+01  0.00000000000E+00 0.  1.
</event>
<event>
 7    1  0.2647566E-010  0.4778727E+02  0.7816164E-02  0.1312668E+00
        -11   -1    0    0    0    0  0.00000000000E+00  0.00000000000E+00  0.45593999997E+02  0.45594000000E+02  0.51100000000E-03 0.  1.
         11   -1    0    0    0    0 -0.00000000000E+00 -0.00000000000E+00 -0.45593999997E+02  0.45594000000E+02  0.51100000000E-03 0. -1.
    9900012    2    1    2    0    0 -0.38549090305E+02 -0.16948307911E+01  0.19867525302E+02  0.47787269864E+02  0.19999994617E+02 0.  0.
         12    1    1    2    0    0  0.38549090305E+02  0.16948307911E+01 -0.19867525302E+02  0.43400730136E+02  0.00000000000E+00 0. -1.
         11    1    3    3    0    0 -0.14394197035E+02 -0.34971091292E+01  0.27390584367E+01  0.15064034052E+02  0.51100000000E-03 0. -1.
        -11    1    3    3    0    0 -0.15584838483E+02 -0.17627122108E+00  0.26893208516E+01  0.15816153420E+02  0.51100000000E-03 0.  1.
        -12    1    3    3    0    0 -0.85700547868E+01  0.19785495592E+01  0.14439146014E+02  0.16907082392E+02  0.00000000000E+00 0.  1.
</event>
<event>
 7    1  0.2647566E-010  0.4778729E+02  0.7816164E-02  0.1312668E+00
        -11   -1    0    0    0    0  0.00000000000E+00  0.00000000000E+00  0.45593999997E+02  0.45594000000E+02  0.51100000000E-03 0.  1.
         11   -1    0    0    0    0 -0.00000000000E+00 -0.00000000000E+00 -0.45593999997E+02  0.45594000000E+02  0.51100000000E-03 0. -1.
    9900012    2    1    2    0    0 -0.12893140639E+02  0.28668260390E+02  0.29925226785E+02  0.47787292316E+02  0.20000096985E+02 0.  0.
         12    1    1    2    0    0  0.12893140639E+02 -0.28668260390E+02 -0.29925226785E+02  0.43400707684E+02  0.00000000000E+00 0. -1.
         11    1    3    3    0    0 -0.19229057845E+00 -0.13915880423E+01  0.20681587440E+01  0.25001547548E+01  0.51100000000E-03 0. -1.
        -11    1    3    3    0    0 -0.98474585546E+01  0.71608100944E+01  0.13157876758E+02  0.17927056709E+02  0.51100000000E-03 0.  1.
         12    1    3    3    0    0 -0.28533915062E+01  0.22899038338E+02  0.14699191283E+02  0.27360080853E+02  0.00000000000E+00 0. -1.
</event>
<event>
 7    1  0.2647566E-010  0.4778727E+02  0.7816164E-02  0.1312668E+00
        -11   -1    0    0    0    0  0.00000000000E+00  0.00000000000E+00  0.45593999997E+02  0.45594000000E+02  0.51100000000E-03 0. -1.
         11   -1    0    0    0    0 -0.00000000000E+00 -0.00000000000E+00 -0.45593999997E+02  0.45594000000E+02  0.51100000000E-03 0.  1.
    9900012    2    1    2    0    0  0.40885782559E+02 -0.13816551498E+01 -0.14493698312E+02  0.47787268702E+02  0.19999989322E+02 0.  0.
         12    1    1    2    0    0 -0.40885782559E+02  0.13816551498E+01  0.14493698312E+02  0.43400731298E+02  0.00000000000E+00 0. -1.
         11    1    3    3    0    0  0.15149567385E+01 -0.38342287251E+00 -0.51989809836E+01  0.54287669454E+01  0.51100000000E-03 0. -1.
        -11    1    3    3    0    0  0.80364992439E+00 -0.10924206218E+01 -0.29847840833E+01  0.32784405288E+01  0.51100000000E-03 0.  1.
        -12    1    3    3    0    0  0.38567175896E+02  0.94188344482E-01 -0.63099332447E+01  0.39080061228E+02  0.00000000000E+00 0.  1.
</event>
<event>
 7    1  0.2647566E-010  0.4778727E+02  0.7816164E-02  0.1312668E+00
        -11   -1    0    0    0    0  0.00000000000E+00  0.00000000000E+00  0.45593999997E+02  0.45594000000E+02  0.51100000000E-03 0.  1.
         11   -1    0    0    0    0 -0.00000000000E+00 -0.00000000000E+00 -0.45593999997E+02  0.45594000000E+02  0.51100000000E-03 0. -1.
    9900012    2    1    2    0    0  0.20218771650E+02 -0.37581868314E+02  0.79011090565E+01  0.47787273309E+02  0.20000010325E+02 0.  0.
         12    1    1    2    0    0 -0.20218771650E+02  0.37581868314E+02 -0.79011090565E+01  0.43400726691E+02  0.00000000000E+00 0. -1.
         11    1    3    3    0    0  0.27141945619E+00  0.99076670894E+00 -0.50894740906E+00  0.11464357457E+01  0.51100000000E-03 0. -1.
        -11    1    3    3    0    0  0.57971322245E+01 -0.67378006288E+01  0.77561420956E+01  0.11796713094E+02  0.51100000000E-03 0.  1.
        -12    1    3    3    0    0  0.14150219970E+02 -0.31834834394E+02  0.65391436992E+00  0.34844124470E+02  0.00000000000E+00 0.  1.
</event>
<event>
 7    1  0.2647566E-010  0.4778727E+02  0.7816164E-02  0.1312668E+00
        -11   -1    0    0    0    0  0.00000000000E+00  0.00000000000E+00  0.45593999997E+02  0.45594000000E+02  0.51100000000E-03 0.  1.
         11   -1    0    0    0    0 -0.00000000000E+00 -0.00000000000E+00 -0.45593999997E+02  0.45594000000E+02  0.51100000000E-03 0. -1.
    9900012    2    1    2    0    0  0.54390879124E+01 -0.24358115945E+02  0.35506643341E+02  0.47787271769E+02  0.20000003301E+02 0.  0.
         12    1    1    2    0    0 -0.54390879124E+01  0.24358115945E+02 -0.35506643341E+02  0.43400728231E+02  0.00000000000E+00 0. -1.
         11    1    3    3    0    0  0.24664794286E+01 -0.11871930732E+00  0.22131858904E+01  0.33159926255E+01  0.51100000000E-03 0. -1.
        -11    1    3    3    0    0  0.95025363938E+01 -0.17627989217E+02  0.20490148517E+02  0.28651184762E+02  0.51100000000E-03 0.  1.
         12    1    3    3    0    0 -0.65299279099E+01 -0.66114074208E+01  0.12803308933E+02  0.15820094381E+02  0.00000000000E+00 0. -1.
</event>
<event>
 7    1  0.2647566E-010  0.4778727E+02  0.7816164E-02  0.1312668E+00
        -11   -1    0    0    0    0  0.00000000000E+00  0.00000000000E+00  0.45593999997E+02  0.45594000000E+02  0.51100000000E-03 0.  1.
         11   -1    0    0    0    0 -0.00000000000E+00 -0.00000000000E+00 -0.45593999997E+02  0.45594000000E+02  0.51100000000E-03 0. -1.
    9900012    2    1    2    0    0  0.24934123230E+02  0.26642344938E+02  0.23496779048E+02  0.47787266473E+02  0.19999979156E+02 0.  0.
         12    1    1    2    0    0 -0.24934123230E+02 -0.26642344938E+02 -0.23496779048E+02  0.43400733527E+02  0.00000000000E+00 0. -1.
         11    1    3    3    0    0  0.14114679114E+01  0.48394310010E+01  0.66883734005E+01  0.83753610718E+01  0.51100000000E-03 0. -1.
        -11    1    3    3    0    0  0.40806428140E+01  0.14044878982E+02  0.55471640824E+01  0.15642292064E+02  0.51100000000E-03 0.  1.
         12    1    3    3    0    0  0.19442012505E+02  0.77580349554E+01  0.11261241565E+02  0.23769613337E+02  0.00000000000E+00 0. -1.
</event>
<event>
 7    1  0.2647566E-010  0.4778727E+02  0.7816164E-02  0.1312668E+00
        -11   -1    0    0    0    0  0.00000000000E+00  0.00000000000E+00  0.45593999997E+02  0.45594000000E+02  0.51100000000E-03 0.  1.
         11   -1    0    0    0    0 -0.00000000000E+00 -0.00000000000E+00 -0.45593999997E+02  0.45594000000E+02  0.51100000000E-03 0. -1.
    9900012    2    1    2    0    0 -0.12398056016E+02  0.62928967526E+01  0.41113391001E+02  0.47787271180E+02  0.20000000619E+02 0.  0.
         12    1    1    2    0    0  0.12398056016E+02 -0.62928967526E+01 -0.41113391001E+02  0.43400728820E+02  0.00000000000E+00 0. -1.
         11    1    3    3    0    0 -0.77009738683E+01  0.14988754771E+01  0.31674735090E+02  0.32631893441E+02  0.51100000000E-03 0. -1.
        -11    1    3    3    0    0  0.13793891356E+01  0.42909969598E+01  0.75129192284E+01  0.87612399174E+01  0.51100000000E-03 0.  1.
         12    1    3    3    0    0 -0.60764712835E+01  0.50302431569E+00  0.19257366818E+01  0.63941378221E+01  0.00000000000E+00 0. -1.
</event>
<event>
 7    1  0.2647566E-010  0.4778727E+02  0.7816164E-02  0.1312668E+00
        -11   -1    0    0    0    0  0.00000000000E+00  0.00000000000E+00  0.45593999997E+02  0.45594000000E+02  0.51100000000E-03 0. -1.
         11   -1    0    0    0    0 -0.00000000000E+00 -0.00000000000E+00 -0.45593999997E+02  0.45594000000E+02  0.51100000000E-03 0.  1.
    9900012    2    1    2    0    0 -0.42992156491E+02  0.13859307838E+01 -0.57772744226E+01  0.47787271623E+02  0.20000002639E+02 0.  0.
         12    1    1    2    0    0  0.42992156491E+02 -0.13859307838E+01  0.57772744226E+01  0.43400728377E+02  0.00000000000E+00 0. -1.
         11    1    3    3    0    0 -0.16659861915E+01 -0.22223054025E+01  0.18290823262E+00  0.27834523482E+01  0.51100000000E-03 0. -1.
        -11    1    3    3    0    0  0.12651007755E+01 -0.87255846807E-01 -0.15840778690E+01  0.20291368882E+01  0.51100000000E-03 0.  1.
         12    1    3    3    0    0 -0.42591271075E+02  0.36954920331E+01 -0.43761047862E+01  0.42974682387E+02  0.00000000000E+00 0. -1.
</event>
<event>
 7    1  0.2647566E-010  0.4778727E+02  0.7816164E-02  0.1312668E+00
        -11   -1    0    0    0    0  0.00000000000E+00  0.00000000000E+00  0.45593999997E+02  0.45594000000E+02  0.51100000000E-03 0.  1.
         11   -1    0    0    0    0 -0.00000000000E+00 -0.00000000000E+00 -0.45593999997E+02  0.45594000000E+02  0.51100000000E-03 0. -1.
    9900012    2    1    2    0    0 -0.16489457513E+02  0.12693045522E+02  0.38086848539E+02  0.47787266765E+02  0.19999980488E+02 0.  0.
         12    1    1    2    0    0  0.16489457513E+02 -0.12693045522E+02 -0.38086848539E+02  0.43400733235E+02  0.00000000000E+00 0. -1.
         11    1    3    3    0    0 -0.86209597195E+01  0.10899977677E+02  0.14447456323E+02  0.20046432459E+02  0.51100000000E-03 0.  1.
        -11    1    3    3    0    0  0.47760540917E+00  0.37643304418E+01  0.16488094881E+01  0.41372531457E+01  0.51100000000E-03 0. -1.
        -12    1    3    3    0    0 -0.83461032025E+01 -0.19712625973E+01  0.21990582728E+02  0.23603581161E+02  0.00000000000E+00 0.  1.
</event>
<event>
 7    1  0.2647566E-010  0.4778729E+02  0.7816164E-02  0.1312668E+00
        -11   -1    0    0    0    0  0.00000000000E+00  0.00000000000E+00  0.45593999997E+02  0.45594000000E+02  0.51100000000E-03 0.  1.
         11   -1    0    0    0    0 -0.00000000000E+00 -0.00000000000E+00 -0.45593999997E+02  0.45594000000E+02  0.51100000000E-03 0. -1.
    9900012    2    1    2    0    0  0.10307665940E+02  0.22304770318E+02  0.35775279933E+02  0.47787292514E+02  0.20000097886E+02 0.  0.
         12    1    1    2    0    0 -0.10307665940E+02 -0.22304770318E+02 -0.35775279933E+02  0.43400707486E+02  0.00000000000E+00 0. -1.
         11    1    3    3    0    0  0.78404923965E+01  0.60499490881E+00  0.94086635727E+01  0.12262230235E+02  0.51100000000E-03 0. -1.
        -11    1    3    3    0    0  0.38270759876E+00 -0.27949188774E+00 -0.54094717327E+00  0.71916960924E+00  0.51100000000E-03 0.  1.
        -12    1    3    3    0    0  0.20844659444E+01  0.21979267297E+02  0.26907563533E+02  0.34805892669E+02  0.00000000000E+00 0.  1.
</event>
<event>
 7    1  0.2647566E-010  0.4778727E+02  0.7816164E-02  0.1312668E+00
        -11   -1    0    0    0    0  0.00000000000E+00  0.00000000000E+00  0.45593999997E+02  0.45594000000E+02  0.51100000000E-03 0.  1.
         11   -1    0    0    0    0 -0.00000000000E+00 -0.00000000000E+00 -0.45593999997E+02  0.45594000000E+02  0.51100000000E-03 0. -1.
    9900012    2    1    2    0    0 -0.29404420828E+02 -0.22325663009E+02  0.22815965455E+02  0.47787268754E+02  0.19999989558E+02 0.  0.
         12    1    1    2    0    0  0.29404420828E+02  0.22325663009E+02 -0.22815965455E+02  0.43400731246E+02  0.00000000000E+00 0. -1.
         11    1    3    3    0    0 -0.16723021048E+01  0.11331868821E+01 -0.12901203033E+00  0.20241914941E+01  0.51100000000E-03 0. -1.
        -11    1    3    3    0    0 -0.22910254762E+02 -0.24995285980E+02  0.22478710712E+02  0.40680911126E+02  0.51100000000E-03 0.  1.
        -12    1    3    3    0    0 -0.48218639612E+01  0.15364360888E+01  0.46626677290E+00  0.50821661345E+01  0.00000000000E+00 0.  1.
</event>
<event>
 7    1  0.2647566E-010  0.4778727E+02  0.7816164E-02  0.1312668E+00
        -11   -1    0    0    0    0  0.00000000000E+00  0.00000000000E+00  0.45593999997E+02  0.45594000000E+02  0.51100000000E-03 0.  1.
         11   -1    0    0    0    0 -0.00000000000E+00 -0.00000000000E+00 -0.45593999997E+02  0.45594000000E+02  0.51100000000E-03 0. -1.
    9900012    2    1    2    0    0 -0.23985609460E+02 -0.82864937669E+01  0.35208631722E+02  0.47787272036E+02  0.20000004520E+02 0.  0.
         12    1    1    2    0    0  0.23985609460E+02  0.82864937669E+01 -0.35208631722E+02  0.43400727964E+02  0.00000000000E+00 0. -1.
         11    1    3    3    0    0 -0.11147619648E+02 -0.24812364940E+01  0.12271731190E+02  0.16763691271E+02  0.51100000000E-03 0. -1.
        -11    1    3    3    0    0 -0.10074282741E+02  0.29489530266E+01  0.17346261295E+02  0.20275114744E+02  0.51100000000E-03 0.  1.
         12    1    3    3    0    0 -0.27637070715E+01 -0.87542102995E+01  0.55906392363E+01  0.10748466022E+02  0.00000000000E+00 0. -1.
</event>
<event>
 7    1  0.2647566E-010  0.4778727E+02  0.7816164E-02  0.1312668E+00
        -11   -1    0    0    0    0  0.00000000000E+00  0.00000000000E+00  0.45593999997E+02  0.45594000000E+02  0.51100000000E-03 0.  1.
         11   -1    0    0    0    0 -0.00000000000E+00 -0.00000000000E+00 -0.45593999997E+02  0.45594000000E+02  0.51100000000E-03 0. -1.
    9900012    2    1    2    0    0  0.21488670744E+02  0.32768213713E+02  0.18657549742E+02  0.47787274630E+02  0.20000016348E+02 0.  0.
         12    1    1    2    0    0 -0.21488670744E+02 -0.32768213713E+02 -0.18657549742E+02  0.43400725370E+02  0.00000000000E+00 0. -1.
         11    1    3    3    0    0  0.10364064763E+01  0.93233494311E+01  0.45954252238E+01  0.10445904281E+02  0.51100000000E-03 0. -1.
        -11    1    3    3    0    0  0.12590576049E+02  0.17090913149E+02  0.15900094420E+01  0.21287321293E+02  0.51100000000E-03 0.  1.
        -12    1    3    3    0    0  0.78616882185E+01  0.63539511324E+01  0.12472115076E+02  0.16054049056E+02  0.00000000000E+00 0.  1.
</event>
<event>
 7    1  0.2647566E-010  0.4778727E+02  0.7816164E-02  0.1312668E+00
        -11   -1    0    0    0    0  0.00000000000E+00  0.00000000000E+00  0.45593999997E+02  0.45594000000E+02  0.51100000000E-03 0.  1.
         11   -1    0    0    0    0 -0.00000000000E+00 -0.00000000000E+00 -0.45593999997E+02  0.45594000000E+02  0.51100000000E-03 0. -1.
    9900012    2    1    2    0    0  0.19431892533E+02  0.51207963521E+01  0.38468199807E+02  0.47787269602E+02  0.19999993422E+02 0.  0.
         12    1    1    2    0    0 -0.19431892533E+02 -0.51207963521E+01 -0.38468199807E+02  0.43400730398E+02  0.00000000000E+00 0. -1.
         11    1    3    3    0    0  0.59819911453E+01 -0.57473984996E+01  0.19362235414E+02  0.21064495438E+02  0.51100000000E-03 0. -1.
        -11    1    3    3    0    0  0.17292057464E+01 -0.55127017150E+00  0.37999752666E+00  0.18543057182E+01  0.51100000000E-03 0.  1.
        -12    1    3    3    0    0  0.11720695641E+02  0.11419465023E+02  0.18725966866E+02  0.24868468445E+02  0.00000000000E+00 0.  1.
</event>
<event>
 7    1  0.2647566E-010  0.4778728E+02  0.7816164E-02  0.1312668E+00
        -11   -1    0    0    0    0  0.00000000000E+00  0.00000000000E+00  0.45593999997E+02  0.45594000000E+02  0.51100000000E-03 0. -1.
         11   -1    0    0    0    0 -0.00000000000E+00 -0.00000000000E+00 -0.45593999997E+02  0.45594000000E+02  0.51100000000E-03 0.  1.
    9900012    2    1    2    0    0  0.33150639662E+02  0.28001235871E+02 -0.76701458250E+00  0.47787280747E+02  0.20000044237E+02 0.  0.
         12    1    1    2    0    0 -0.33150639662E+02 -0.28001235871E+02  0.76701458250E+00  0.43400719253E+02  0.00000000000E+00 0. -1.
         11    1    3    3    0    0  0.16483909762E+02  0.13592491581E+02  0.21896809390E+00  0.21366400158E+02  0.51100000000E-03 0. -1.
        -11    1    3    3    0    0  0.79211524021E+01  0.15672995552E+02 -0.41253312421E+00  0.17565808516E+02  0.51100000000E-03 0.  1.
         12    1    3    3    0    0  0.87455774988E+01 -0.12642512627E+01 -0.57344955219E+00  0.88550720737E+01  0.00000000000E+00 0. -1.
</event>
<event>
 7    1  0.2647566E-010  0.4778727E+02  0.7816164E-02  0.1312668E+00
        -11   -1    0    0    0    0  0.00000000000E+00  0.00000000000E+00  0.45593999997E+02  0.45594000000E+02  0.51100000000E-03 0.  1.
         11   -1    0    0    0    0 -0.00000000000E+00 -0.00000000000E+00 -0.45593999997E+02  0.45594000000E+02  0.51100000000E-03 0. -1.
    9900012    2    1    2    0    0  0.13661176481E+02 -0.34258087901E+02  0.22877477524E+02  0.47787270659E+02  0.19999998241E+02 0.  0.
         12    1    1    2    0    0 -0.13661176481E+02  0.34258087901E+02 -0.22877477524E+02  0.43400729341E+02  0.00000000000E+00 0. -1.
         11    1    3    3    0    0  0.46549329447E+00 -0.25598032335E+01 -0.97766660657E+00  0.27794080046E+01  0.51100000000E-03 0. -1.
        -11    1    3    3    0    0  0.37133326540E+01 -0.24766154948E+02  0.21548043082E+02  0.33037394438E+02  0.51100000000E-03 0.  1.
        -12    1    3    3    0    0  0.94823505324E+01 -0.69321297194E+01  0.23071010489E+01  0.11970468216E+02  0.00000000000E+00 0.  1.
</event>
<event>
 7    1  0.2647566E-010  0.4778727E+02  0.7816164E-02  0.1312668E+00
        -11   -1    0    0    0    0  0.00000000000E+00  0.00000000000E+00  0.45593999997E+02  0.45594000000E+02  0.51100000000E-03 0. -1.
         11   -1    0    0    0    0 -0.00000000000E+00 -0.00000000000E+00 -0.45593999997E+02  0.45594000000E+02  0.51100000000E-03 0.  1.
    9900012    2    1    2    0    0 -0.32277718622E+00  0.40523903867E+02  0.15534872070E+02  0.47787271665E+02  0.20000002830E+02 0.  0.
         12    1    1    2    0    0  0.32277718622E+00 -0.40523903867E+02 -0.15534872070E+02  0.43400728335E+02  0.00000000000E+00 0. -1.
         11    1    3    3    0    0 -0.83377108455E+00  0.22074296017E+02 -0.43254812635E+00  0.22094271135E+02  0.51100000000E-03 0. -1.
        -11    1    3    3    0    0  0.13087307094E+01  0.12379235890E+02  0.55937030879E+01  0.13647262428E+02  0.51100000000E-03 0.  1.
         12    1    3    3    0    0 -0.79773681108E+00  0.60703719609E+01  0.10373717109E+02  0.12045738102E+02  0.00000000000E+00 0. -1.
</event>
<event>
 7    1  0.2647566E-010  0.4778727E+02  0.7816164E-02  0.1312668E+00
        -11   -1    0    0    0    0  0.00000000000E+00  0.00000000000E+00  0.45593999997E+02  0.45594000000E+02  0.51100000000E-03 0.  1.
         11   -1    0    0    0    0 -0.00000000000E+00 -0.00000000000E+00 -0.45593999997E+02  0.45594000000E+02  0.51100000000E-03 0. -1.
    9900012    2    1    2    0    0 -0.19357544405E+02 -0.52254911129E+01  0.38491598803E+02  0.47787268887E+02  0.19999990161E+02 0.  0.
         12    1    1    2    0    0  0.19357544405E+02  0.52254911129E+01 -0.38491598803E+02  0.43400731113E+02  0.00000000000E+00 0. -1.
         11    1    3    3    0    0 -0.11045007201E+01 -0.12535824976E+01  0.66244874805E+01  0.68319269288E+01  0.51100000000E-03 0. -1.
        -11    1    3    3    0    0 -0.10558651436E+02  0.43521127737E+00  0.30116895498E+02  0.31917110203E+02  0.51100000000E-03 0.  1.
         12    1    3    3    0    0 -0.76943922488E+01 -0.44071198927E+01  0.17502158247E+01  0.90382317552E+01  0.00000000000E+00 0. -1.
</event>
<event>
 7    1  0.2647566E-010  0.4778727E+02  0.7816164E-02  0.1312668E+00
        -11   -1    0    0    0    0  0.00000000000E+00  0.00000000000E+00  0.45593999997E+02  0.45594000000E+02  0.51100000000E-03 0.  1.
         11   -1    0    0    0    0 -0.00000000000E+00 -0.00000000000E+00 -0.45593999997E+02  0.45594000000E+02  0.51100000000E-03 0. -1.
    9900012    2    1    2    0    0  0.31084628352E+02 -0.13705393749E+02  0.27009833062E+02  0.47787273973E+02  0.20000013353E+02 0.  0.
         12    1    1    2    0    0 -0.31084628352E+02  0.13705393749E+02 -0.27009833062E+02  0.43400726027E+02  0.00000000000E+00 0. -1.
         11    1    3    3    0    0  0.43216553097E+01 -0.63365037622E+01  0.62497737479E+01  0.98938191162E+01  0.51100000000E-03 0. -1.
        -11    1    3    3    0    0  0.18444695465E+01 -0.77664904555E+00  0.95983755125E+01  0.98047980289E+01  0.51100000000E-03 0.  1.
        -12    1    3    3    0    0  0.24918503496E+02 -0.65922409417E+01  0.11161683802E+02  0.28088656828E+02  0.00000000000E+00 0.  1.
</event>
<event>
 7    1  0.2647566E-010  0.4778727E+02  0.7816164E-02  0.1312668E+00
        -11   -1    0    0    0    0  0.00000000000E+00  0.00000000000E+00  0.45593999997E+02  0.45594000000E+02  0.51100000000E-03 0.  1.
         11   -1    0    0    0    0 -0.00000000000E+00 -0.00000000000E+00 -0.45593999997E+02  0.45594000000E+02  0.51100000000E-03 0. -1.
    9900012    2    1    2    0    0  0.81999805560E+01 -0.24896953544E+02  0.34590827213E+02  0.47787270696E+02  0.19999998411E+02 0.  0.
         12    1    1    2    0    0 -0.81999805560E+01  0.24896953544E+02 -0.34590827213E+02  0.43400729304E+02  0.00000000000E+00 0. -1.
         11    1    3    3    0    0  0.23577028788E+00 -0.73285201850E+01  0.15227141180E+02  0.16900551012E+02  0.51100000000E-03 0. -1.
        -11    1    3    3    0    0  0.10667673186E+02 -0.16497289565E+02  0.19861667772E+02  0.27936457563E+02  0.51100000000E-03 0.  1.
         12    1    3    3    0    0 -0.27034629174E+01 -0.10711437935E+01 -0.49798173959E+00  0.29502621214E+01  0.00000000000E+00 0. -1.
</event>
<event>
 7    1  0.2647566E-010  0.4778727E+02  0.7816164E-02  0.1312668E+00
        -11   -1    0    0    0    0  0.00000000000E+00  0.00000000000E+00  0.45593999997E+02  0.45594000000E+02  0.51100000000E-03 0.  1.
         11   -1    0    0    0    0 -0.00000000000E+00 -0.00000000000E+00 -0.45593999997E+02  0.45594000000E+02  0.51100000000E-03 0. -1.
    9900012    2    1    2    0    0  0.20681478199E+02 -0.13773510720E+01  0.38131386557E+02  0.47787271006E+02  0.19999999824E+02 0.  0.
         12    1    1    2    0    0 -0.20681478199E+02  0.13773510720E+01 -0.38131386557E+02  0.43400728994E+02  0.00000000000E+00 0. -1.
         11    1    3    3    0    0  0.29493055623E+00 -0.36260022207E+01  0.16114055599E+01  0.39788822900E+01  0.51100000000E-03 0.  1.
        -11    1    3    3    0    0  0.26665948009E+01 -0.20625253481E+00 -0.47385293695E+00  0.27162114806E+01  0.51100000000E-03 0. -1.
        -12    1    3    3    0    0  0.17719952842E+02  0.24549036836E+01  0.36993833934E+02  0.41092177235E+02  0.00000000000E+00 0.  1.
</event>
<event>
 7    1  0.2647566E-010  0.4778727E+02  0.7816164E-02  0.1312668E+00
        -11   -1    0    0    0    0  0.00000000000E+00  0.00000000000E+00  0.45593999997E+02  0.45594000000E+02  0.51100000000E-03 0. -1.
         11   -1    0    0    0    0 -0.00000000000E+00 -0.00000000000E+00 -0.45593999997E+02  0.45594000000E+02  0.51100000000E-03 0.  1.
    9900012    2    1    2    0    0 -0.40779822587E+02  0.11842948906E+02 -0.89651490533E+01  0.47787271129E+02  0.20000000386E+02 0.  0.
         12    1    1    2    0    0  0.40779822587E+02 -0.11842948906E+02  0.89651490533E+01  0.43400728871E+02  0.00000000000E+00 0. -1.
         11    1    3    3    0    0  0.42037269661E+00  0.26074804111E+01 -0.37001495515E+01  0.45460723996E+01  0.51100000000E-03 0. -1.
        -11    1    3    3    0    0 -0.84569343203E+01 -0.11331650679E+01 -0.18075920434E+01  0.87218799823E+01  0.51100000000E-03 0.  1.
        -12    1    3    3    0    0 -0.32743260963E+02  0.10368633562E+02 -0.34574074584E+01  0.34519318747E+02  0.00000000000E+00 0.  1.
</event>
<event>
 7    1  0.2647566E-010  0.4778727E+02  0.7816164E-02  0.1312668E+00
        -11   -1    0    0    0    0  0.00000000000E+00  0.00000000000E+00  0.45593999997E+02  0.45594000000E+02  0.51100000000E-03 0. -1.
         11   -1    0    0    0    0 -0.00000000000E+00 -0.00000000000E+00 -0.45593999997E+02  0.45594000000E+02  0.51100000000E-03 0.  1.
    9900012    2    1    2    0    0  0.62272059419E+01 -0.45495195218E+01 -0.42710032732E+02  0.47787272844E+02  0.20000008205E+02 0.  0.
         12    1    1    2    0    0 -0.62272059419E+01  0.45495195218E+01  0.42710032732E+02  0.43400727156E+02  0.00000000000E+00 0. -1.
         11    1    3    3    0    0  0.45332505871E+01 -0.64081532227E+01 -0.67687400069E+01  0.10364874826E+02  0.51100000000E-03 0. -1.
        -11    1    3    3    0    0  0.39646711823E+01  0.31639001419E+01 -0.88169550192E+01  0.10171901384E+02  0.51100000000E-03 0.  1.
        -12    1    3    3    0    0 -0.22707158275E+01 -0.13052664409E+01 -0.27124337706E+02  0.27250496634E+02  0.00000000000E+00 0.  1.
</event>
<event>
 7    1  0.2647566E-010  0.4778727E+02  0.7816164E-02  0.1312668E+00
        -11   -1    0    0    0    0  0.00000000000E+00  0.00000000000E+00  0.45593999997E+02  0.45594000000E+02  0.51100000000E-03 0. -1.
         11   -1    0    0    0    0 -0.00000000000E+00 -0.00000000000E+00 -0.45593999997E+02  0.45594000000E+02  0.51100000000E-03 0.  1.
    9900012    2    1    2    0    0 -0.32889229438E+02  0.27941576465E+02 -0.46033105541E+01  0.47787267559E+02  0.19999984109E+02 0.  0.
         12    1    1    2    0    0  0.32889229438E+02 -0.27941576465E+02  0.46033105541E+01  0.43400732441E+02  0.00000000000E+00 0. -1.
         11    1    3    3    0    0 -0.21591331932E+02  0.17321669846E+02 -0.12304998115E+01  0.27708121389E+02  0.51100000000E-03 0. -1.
        -11    1    3    3    0    0 -0.11104274144E+02  0.29536010417E+01 -0.44761187620E+01  0.12331435553E+02  0.51100000000E-03 0.  1.
         12    1    3    3    0    0 -0.19362336138E+00  0.76663055778E+01  0.11033080194E+01  0.77477106169E+01  0.00000000000E+00 0. -1.
</event>
<event>
 7    1  0.2647566E-010  0.4778728E+02  0.7816164E-02  0.1312668E+00
        -11   -1    0    0    0    0  0.00000000000E+00  0.00000000000E+00  0.45593999997E+02  0.45594000000E+02  0.51100000000E-03 0. -1.
         11   -1    0    0    0    0 -0.00000000000E+00 -0.00000000000E+00 -0.45593999997E+02  0.45594000000E+02  0.51100000000E-03 0.  1.
    9900012    2    1    2    0    0  0.15534412562E+01 -0.40939594387E+02 -0.14323379963E+02  0.47787276713E+02  0.20000025845E+02 0.  0.
         12    1    1    2    0    0 -0.15534412562E+01  0.40939594387E+02  0.14323379963E+02  0.43400723287E+02  0.00000000000E+00 0. -1.
         11    1    3    3    0    0 -0.31255915857E+01 -0.60632557336E+01 -0.10019235103E+02  0.12120951495E+02  0.51100000000E-03 0. -1.
        -11    1    3    3    0    0  0.19564680074E+01 -0.55152749934E+01  0.96074282313E-01  0.58527989754E+01  0.51100000000E-03 0.  1.
        -12    1    3    3    0    0  0.27225648344E+01 -0.29361063660E+02 -0.44002191424E+01  0.29813526242E+02  0.00000000000E+00 0.  1.
</event>
<event>
 7    1  0.2647566E-010  0.4778728E+02  0.7816164E-02  0.1312668E+00
        -11   -1    0    0    0    0  0.00000000000E+00  0.00000000000E+00  0.45593999997E+02  0.45594000000E+02  0.51100000000E-03 0.  1.
         11   -1    0    0    0    0 -0.00000000000E+00 -0.00000000000E+00 -0.45593999997E+02  0.45594000000E+02  0.51100000000E-03 0. -1.
    9900012    2    1    2    0    0 -0.98456579883E+01  0.56194577308E+00  0.42265472377E+02  0.47787275126E+02  0.20000018611E+02 0.  0.
         12    1    1    2    0    0  0.98456579883E+01 -0.56194577308E+00 -0.42265472377E+02  0.43400724874E+02  0.00000000000E+00 0. -1.
         11    1    3    3    0    0 -0.20655320790E+01  0.55890309539E+01  0.29157255129E+01  0.66336374110E+01  0.51100000000E-03 0. -1.
        -11    1    3    3    0    0 -0.32938532578E+01  0.18423616397E+01  0.14572783246E+02  0.15053563615E+02  0.51100000000E-03 0.  1.
         12    1    3    3    0    0 -0.44862726515E+01 -0.68694468205E+01  0.24776963618E+02  0.26100074101E+02  0.00000000000E+00 0. -1.
</event>
<event>
 7    1  0.2647566E-010  0.4778725E+02  0.7816164E-02  0.1312668E+00
        -11   -1    0    0    0    0  0.00000000000E+00  0.00000000000E+00  0.45593999997E+02  0.45594000000E+02  0.51100000000E-03 0.  1.
         11   -1    0    0    0    0 -0.00000000000E+00 -0.00000000000E+00 -0.45593999997E+02  0.45594000000E+02  0.51100000000E-03 0. -1.
    9900012    2    1    2    0    0 -0.28084177448E+02 -0.20495733674E+02  0.25977477454E+02  0.47787245898E+02  0.19999885346E+02 0.  0.
         12    1    1    2    0    0  0.28084177448E+02  0.20495733674E+02 -0.25977477454E+02  0.43400754102E+02  0.00000000000E+00 0. -1.
         11    1    3    3    0    0 -0.80500287397E+01 -0.89564203470E+01  0.15806510071E+02  0.19871240249E+02  0.51100000000E-03 0. -1.
        -11    1    3    3    0    0 -0.23689102870E+01 -0.15834477971E+01  0.67832243776E+01  0.73573892171E+01  0.51100000000E-03 0.  1.
         12    1    3    3    0    0 -0.17665238421E+02 -0.99558655297E+01  0.33877430059E+01  0.20558616432E+02  0.00000000000E+00 0. -1.
</event>
<event>
 7    1  0.2647566E-010  0.4778727E+02  0.7816164E-02  0.1312668E+00
        -11   -1    0    0    0    0  0.00000000000E+00  0.00000000000E+00  0.45593999997E+02  0.45594000000E+02  0.51100000000E-03 0. -1.
         11   -1    0    0    0    0 -0.00000000000E+00 -0.00000000000E+00 -0.45593999997E+02  0.45594000000E+02  0.51100000000E-03 0.  1.
    9900012    2    1    2    0    0  0.29282381411E+02 -0.30302661729E+02 -0.10388190905E+02  0.47787266374E+02  0.19999978708E+02 0.  0.
         12    1    1    2    0    0 -0.29282381411E+02  0.30302661729E+02  0.10388190905E+02  0.43400733626E+02  0.00000000000E+00 0. -1.
         11    1    3    3    0    0  0.43718056630E+01 -0.26506886554E+01 -0.74130148774E+01  0.90050888355E+01  0.51100000000E-03 0. -1.
        -11    1    3    3    0    0  0.26659499859E+01  0.43857261917E+00  0.61590409840E+00  0.27710960628E+01  0.51100000000E-03 0.  1.
        -12    1    3    3    0    0  0.22244625762E+02 -0.28090545693E+02 -0.35910801262E+01  0.36011081476E+02  0.00000000000E+00 0.  1.
</event>
<event>
 7    1  0.2647566E-010  0.4778727E+02  0.7816164E-02  0.1312668E+00
        -11   -1    0    0    0    0  0.00000000000E+00  0.00000000000E+00  0.45593999997E+02  0.45594000000E+02  0.51100000000E-03 0.  1.
         11   -1    0    0    0    0 -0.00000000000E+00 -0.00000000000E+00 -0.45593999997E+02  0.45594000000E+02  0.51100000000E-03 0. -1.
    9900012    2    1    2    0    0  0.86723491662E+01  0.23389403155E+02  0.35515480420E+02  0.47787272247E+02  0.20000005483E+02 0.  0.
         12    1    1    2    0    0 -0.86723491662E+01 -0.23389403155E+02 -0.35515480420E+02  0.43400727753E+02  0.00000000000E+00 0. -1.
         11    1    3    3    0    0  0.88078190129E+01  0.77425199867E+01  0.10934860452E+02  0.16034196733E+02  0.51100000000E-03 0.  1.
        -11    1    3    3    0    0  0.30751955700E+01  0.13955413598E+01  0.12025486655E+02  0.12490664235E+02  0.51100000000E-03 0. -1.
         12    1    3    3    0    0 -0.32106654167E+01  0.14251341809E+02  0.12555133313E+02  0.19262411279E+02  0.00000000000E+00 0. -1.
</event>
<event>
 7    1  0.2647566E-010  0.4778727E+02  0.7816164E-02  0.1312668E+00
        -11   -1    0    0    0    0  0.00000000000E+00  0.00000000000E+00  0.45593999997E+02  0.45594000000E+02  0.51100000000E-03 0.  1.
         11   -1    0    0    0    0 -0.00000000000E+00 -0.00000000000E+00 -0.45593999997E+02  0.45594000000E+02  0.51100000000E-03 0. -1.
    9900012    2    1    2    0    0  0.11313345140E+02  0.22888264808E+02  0.35096417914E+02  0.47787274262E+02  0.20000014671E+02 0.  0.
         12    1    1    2    0    0 -0.11313345140E+02 -0.22888264808E+02 -0.35096417914E+02  0.43400725738E+02  0.00000000000E+00 0. -1.
         11    1    3    3    0    0  0.90456441416E+00 -0.78407935734E+00 -0.32877204012E+00  0.12414139251E+01  0.51100000000E-03 0. -1.
        -11    1    3    3    0    0  0.40052755468E+01 -0.41533380871E+00  0.10723558825E+02  0.11454669289E+02  0.51100000000E-03 0.  1.
         12    1    3    3    0    0  0.64035051791E+01  0.24087677974E+02  0.24701631129E+02  0.35091191048E+02  0.00000000000E+00 0. -1.
</event>
<event>
 7    1  0.2647566E-010  0.4778726E+02  0.7816164E-02  0.1312668E+00
        -11   -1    0    0    0    0  0.00000000000E+00  0.00000000000E+00  0.45593999997E+02  0.45594000000E+02  0.51100000000E-03 0. -1.
         11   -1    0    0    0    0 -0.00000000000E+00 -0.00000000000E+00 -0.45593999997E+02  0.45594000000E+02  0.51100000000E-03 0.  1.
    9900012    2    1    2    0    0  0.33036133861E+01 -0.73015233207E+01 -0.42654401900E+02  0.47787261462E+02  0.19999956310E+02 0.  0.
         12    1    1    2    0    0 -0.33036133861E+01  0.73015233207E+01  0.42654401900E+02  0.43400738538E+02  0.00000000000E+00 0. -1.
         11    1    3    3    0    0 -0.26932952896E+00  0.26006877474E+01 -0.20931331653E+01  0.33492270547E+01  0.51100000000E-03 0. -1.
        -11    1    3    3    0    0 -0.40417812438E+01  0.90541456346E+00 -0.16193431380E+02  0.16714753701E+02  0.51100000000E-03 0.  1.
         12    1    3    3    0    0  0.76147241589E+01 -0.10807625632E+02 -0.24367837354E+02  0.27723280707E+02  0.00000000000E+00 0. -1.
</event>
<event>
 7    1  0.2647566E-010  0.4778728E+02  0.7816164E-02  0.1312668E+00
        -11   -1    0    0    0    0  0.00000000000E+00  0.00000000000E+00  0.45593999997E+02  0.45594000000E+02  0.51100000000E-03 0. -1.
         11   -1    0    0    0    0 -0.00000000000E+00 -0.00000000000E+00 -0.45593999997E+02  0.45594000000E+02  0.51100000000E-03 0.  1.
    9900012    2    1    2    0    0 -0.13309397844E+02 -0.41008537039E+02 -0.49782237306E+01  0.47787275437E+02  0.20000020028E+02 0.  0.
         12    1    1    2    0    0  0.13309397844E+02  0.41008537039E+02  0.49782237306E+01  0.43400724563E+02  0.00000000000E+00 0. -1.
         11    1    3    3    0    0  0.55662546017E+00 -0.59928110731E+01 -0.41526796094E+01  0.73122065520E+01  0.51100000000E-03 0. -1.
        -11    1    3    3    0    0 -0.25525500833E+00 -0.15894162792E+02 -0.49401373680E+01  0.16646156417E+02  0.51100000000E-03 0.  1.
         12    1    3    3    0    0 -0.13610768296E+02 -0.19121563174E+02  0.41145932468E+01  0.23828912468E+02  0.00000000000E+00 0. -1.
</event>
<event>
 7    1  0.2647566E-010  0.4778727E+02  0.7816164E-02  0.1312668E+00
        -11   -1    0    0    0    0  0.00000000000E+00  0.00000000000E+00  0.45593999997E+02  0.45594000000E+02  0.51100000000E-03 0. -1.
         11   -1    0    0    0    0 -0.00000000000E+00 -0.00000000000E+00 -0.45593999997E+02  0.45594000000E+02  0.51100000000E-03 0.  1.
    9900012    2    1    2    0    0 -0.20987931968E+02  0.26377725663E+02  0.27337621009E+02  0.47787271643E+02  0.20000002731E+02 0.  0.
         12    1    1    2    0    0  0.20987931968E+02 -0.26377725663E+02 -0.27337621009E+02  0.43400728357E+02  0.00000000000E+00 0. -1.
         11    1    3    3    0    0 -0.11814421600E+01  0.61884735687E+01  0.84644568529E+01  0.10551779033E+02  0.51100000000E-03 0. -1.
        -11    1    3    3    0    0 -0.19657694937E+01  0.12017975946E+02  0.97275766391E+01  0.15585946974E+02  0.51100000000E-03 0.  1.
        -12    1    3    3    0    0 -0.17840720314E+02  0.81712761477E+01  0.91455875172E+01  0.21649545636E+02  0.00000000000E+00 0.  1.
</event>
<event>
 7    1  0.2647566E-010  0.4778727E+02  0.7816164E-02  0.1312668E+00
        -11   -1    0    0    0    0  0.00000000000E+00  0.00000000000E+00  0.45593999997E+02  0.45594000000E+02  0.51100000000E-03 0.  1.
         11   -1    0    0    0    0 -0.00000000000E+00 -0.00000000000E+00 -0.45593999997E+02  0.45594000000E+02  0.51100000000E-03 0. -1.
    9900012    2    1    2    0    0 -0.32225006636E+02 -0.28151162490E+02  0.72584119874E+01  0.47787267900E+02  0.19999985664E+02 0.  0.
         12    1    1    2    0    0  0.32225006636E+02  0.28151162490E+02 -0.72584119874E+01  0.43400732100E+02  0.00000000000E+00 0. -1.
         11    1    3    3    0    0 -0.96782894021E+01 -0.13542624876E+02  0.88694038822E+01  0.18861025947E+02  0.51100000000E-03 0. -1.
        -11    1    3    3    0    0 -0.88643663263E+01 -0.90401371792E+01  0.37608507088E+01  0.13207765477E+02  0.51100000000E-03 0.  1.
        -12    1    3    3    0    0 -0.13682350908E+02 -0.55684004341E+01 -0.53718426036E+01  0.15718476476E+02  0.00000000000E+00 0.  1.
</event>
<event>
 7    1  0.2647566E-010  0.4778728E+02  0.7816164E-02  0.1312668E+00
        -11   -1    0    0    0    0  0.00000000000E+00  0.00000000000E+00  0.45593999997E+02  0.45594000000E+02  0.51100000000E-03 0.  1.
         11   -1    0    0    0    0 -0.00000000000E+00 -0.00000000000E+00 -0.45593999997E+02  0.45594000000E+02  0.51100000000E-03 0. -1.
    9900012    2    1    2    0    0  0.20351777670E+02 -0.50390123093E+01  0.38000468334E+02  0.47787284648E+02  0.20000062026E+02 0.  0.
         12    1    1    2    0    0 -0.20351777670E+02  0.50390123093E+01 -0.38000468334E+02  0.43400715352E+02  0.00000000000E+00 0. -1.
         11    1    3    3    0    0  0.11439995098E+02 -0.11693192864E+00  0.92986572911E+01  0.14742869076E+02  0.51100000000E-03 0. -1.
        -11    1    3    3    0    0  0.11438730457E+01  0.42166002051E+01  0.71143438671E+01  0.83487754643E+01  0.51100000000E-03 0.  1.
         12    1    3    3    0    0  0.77679095270E+01 -0.91386805857E+01  0.21587467176E+02  0.24695640108E+02  0.00000000000E+00 0. -1.
</event>
<event>
 7    1  0.2647566E-010  0.4778728E+02  0.7816164E-02  0.1312668E+00
        -11   -1    0    0    0    0  0.00000000000E+00  0.00000000000E+00  0.45593999997E+02  0.45594000000E+02  0.51100000000E-03 0.  1.
         11   -1    0    0    0    0 -0.00000000000E+00 -0.00000000000E+00 -0.45593999997E+02  0.45594000000E+02  0.51100000000E-03 0. -1.
    9900012    2    1    2    0    0 -0.94258116238E+01  0.24245373441E+02  0.34741023704E+02  0.47787276664E+02  0.20000025622E+02 0.  0.
         12    1    1    2    0    0  0.94258116238E+01 -0.24245373441E+02 -0.34741023704E+02  0.43400723336E+02  0.00000000000E+00 0. -1.
         11    1    3    3    0    0 -0.75316089710E+01  0.11515656105E+02  0.15446024638E+02  0.20686109992E+02  0.51100000000E-03 0. -1.
        -11    1    3    3    0    0 -0.69029118407E+01  0.10529049134E+02  0.17033359012E+02  0.21181274444E+02  0.51100000000E-03 0.  1.
         12    1    3    3    0    0  0.50087091879E+01  0.22006682018E+01  0.22616400540E+01  0.59198922285E+01  0.00000000000E+00 0. -1.
</event>
<event>
 7    1  0.2647566E-010  0.4778728E+02  0.7816164E-02  0.1312668E+00
        -11   -1    0    0    0    0  0.00000000000E+00  0.00000000000E+00  0.45593999997E+02  0.45594000000E+02  0.51100000000E-03 0. -1.
         11   -1    0    0    0    0 -0.00000000000E+00 -0.00000000000E+00 -0.45593999997E+02  0.45594000000E+02  0.51100000000E-03 0.  1.
    9900012    2    1    2    0    0  0.38540090060E+02  0.40211977409E+01 -0.19547739002E+02  0.47787277964E+02  0.20000031551E+02 0.  0.
         12    1    1    2    0    0 -0.38540090060E+02 -0.40211977409E+01  0.19547739002E+02  0.43400722036E+02  0.00000000000E+00 0. -1.
         11    1    3    3    0    0  0.60267200798E+01  0.65314295386E+00 -0.32391851905E+01  0.68731558689E+01  0.51100000000E-03 0. -1.
        -11    1    3    3    0    0  0.33376097813E+02  0.56546982769E+01 -0.17595989891E+02  0.38151780802E+02  0.51100000000E-03 0.  1.
         12    1    3    3    0    0 -0.86272783257E+00 -0.22866434898E+01  0.12874360799E+01  0.27623412936E+01  0.00000000000E+00 0. -1.
</event>
<event>
 7    1  0.2647566E-010  0.4778727E+02  0.7816164E-02  0.1312668E+00
        -11   -1    0    0    0    0  0.00000000000E+00  0.00000000000E+00  0.45593999997E+02  0.45594000000E+02  0.51100000000E-03 0.  1.
         11   -1    0    0    0    0 -0.00000000000E+00 -0.00000000000E+00 -0.45593999997E+02  0.45594000000E+02  0.51100000000E-03 0. -1.
    9900012    2    1    2    0    0  0.10531681611E+02  0.29303569203E+02  0.30232562845E+02  0.47787270262E+02  0.19999996434E+02 0.  0.
         12    1    1    2    0    0 -0.10531681611E+02 -0.29303569203E+02 -0.30232562845E+02  0.43400729738E+02  0.00000000000E+00 0. -1.
         11    1    3    3    0    0 -0.10268417091E+01  0.99757303791E+01  0.76593829943E+01  0.12618864791E+02  0.51100000000E-03 0. -1.
        -11    1    3    3    0    0 -0.15345456306E+01  0.71045787469E+01  0.12911774240E+02  0.14817009946E+02  0.51100000000E-03 0.  1.
        -12    1    3    3    0    0  0.13093068950E+02  0.12223260077E+02  0.96614056110E+01  0.20351395525E+02  0.00000000000E+00 0.  1.
</event>
<event>
 7    1  0.2647566E-010  0.4778727E+02  0.7816164E-02  0.1312668E+00
        -11   -1    0    0    0    0  0.00000000000E+00  0.00000000000E+00  0.45593999997E+02  0.45594000000E+02  0.51100000000E-03 0.  1.
         11   -1    0    0    0    0 -0.00000000000E+00 -0.00000000000E+00 -0.45593999997E+02  0.45594000000E+02  0.51100000000E-03 0. -1.
    9900012    2    1    2    0    0  0.39181148432E+01 -0.33586823820E+02  0.27206559334E+02  0.47787271561E+02  0.20000002355E+02 0.  0.
         12    1    1    2    0    0 -0.39181148432E+01  0.33586823820E+02 -0.27206559334E+02  0.43400728439E+02  0.00000000000E+00 0. -1.
         11    1    3    3    0    0  0.14565945735E+01 -0.17787671904E+01  0.58566897840E+01  0.62917800308E+01  0.51100000000E-03 0. -1.
        -11    1    3    3    0    0 -0.53314422575E+00 -0.93155600864E+01  0.15451731922E+02  0.18050482602E+02  0.51100000000E-03 0.  1.
        -12    1    3    3    0    0  0.29946644955E+01 -0.22492496543E+02  0.58981376277E+01  0.23445008929E+02  0.00000000000E+00 0.  1.
</event>
<event>
 7    1  0.2647566E-010  0.4778726E+02  0.7816164E-02  0.1312668E+00
        -11   -1    0    0    0    0  0.00000000000E+00  0.00000000000E+00  0.45593999997E+02  0.45594000000E+02  0.51100000000E-03 0.  1.
         11   -1    0    0    0    0 -0.00000000000E+00 -0.00000000000E+00 -0.45593999997E+02  0.45594000000E+02  0.51100000000E-03 0. -1.
    9900012    2    1    2    0    0 -0.17696813015E+02  0.39582721830E+02  0.19117387290E+01  0.47787264944E+02  0.19999972187E+02 0.  0.
         12    1    1    2    0    0  0.17696813015E+02 -0.39582721830E+02 -0.19117387290E+01  0.43400735056E+02  0.00000000000E+00 0. -1.
         11    1    3    3    0    0 -0.62043820503E+01  0.54783130209E+01  0.59338228039E+01  0.10184130965E+02  0.51100000000E-03 0. -1.
        -11    1    3    3    0    0  0.77032849601E+00  0.95267034765E+00  0.13803454083E+01  0.18456273975E+01  0.51100000000E-03 0.  1.
        -12    1    3    3    0    0 -0.12262759461E+02  0.33151738462E+02 -0.54024294832E+01  0.35757506582E+02  0.00000000000E+00 0.  1.
</event>
<event>
 7    1  0.2647566E-010  0.4778727E+02  0.7816164E-02  0.1312668E+00
        -11   -1    0    0    0    0  0.00000000000E+00  0.00000000000E+00  0.45593999997E+02  0.45594000000E+02  0.51100000000E-03 0.  1.
         11   -1    0    0    0    0 -0.00000000000E+00 -0.00000000000E+00 -0.45593999997E+02  0.45594000000E+02  0.51100000000E-03 0. -1.
    9900012    2    1    2    0    0 -0.12790315246E+02 -0.39840904779E+02  0.11521010671E+02  0.47787267926E+02  0.19999985781E+02 0.  0.
         12    1    1    2    0    0  0.12790315246E+02  0.39840904779E+02 -0.11521010671E+02  0.43400732074E+02  0.00000000000E+00 0. -1.
         11    1    3    3    0    0 -0.15022523152E+01 -0.18271991335E+02  0.33401819144E+01  0.18635429827E+02  0.51100000000E-03 0.  1.
        -11    1    3    3    0    0  0.23734814461E+01 -0.88139084324E+01  0.12277445369E+01  0.92100897356E+01  0.51100000000E-03 0. -1.
         12    1    3    3    0    0 -0.13661544377E+02 -0.12755005012E+02  0.69530842194E+01  0.19941748363E+02  0.00000000000E+00 0. -1.
</event>
<event>
 7    1  0.2647566E-010  0.4778727E+02  0.7816164E-02  0.1312668E+00
        -11   -1    0    0    0    0  0.00000000000E+00  0.00000000000E+00  0.45593999997E+02  0.45594000000E+02  0.51100000000E-03 0.  1.
         11   -1    0    0    0    0 -0.00000000000E+00 -0.00000000000E+00 -0.45593999997E+02  0.45594000000E+02  0.51100000000E-03 0. -1.
    9900012    2    1    2    0    0  0.99923678103E+01 -0.39981045134E+02  0.13612199532E+02  0.47787270046E+02  0.19999995448E+02 0.  0.
         12    1    1    2    0    0 -0.99923678103E+01  0.39981045134E+02 -0.13612199532E+02  0.43400729954E+02  0.00000000000E+00 0. -1.
         11    1    3    3    0    0  0.36995431153E+01 -0.26288332585E+02  0.10147703766E+02  0.28420748431E+02  0.51100000000E-03 0. -1.
        -11    1    3    3    0    0  0.23382442437E+01 -0.13695493802E+02 -0.31369126674E+00  0.13897206162E+02  0.51100000000E-03 0.  1.
         12    1    3    3    0    0  0.39545804512E+01  0.27812538439E-02  0.37781870323E+01  0.54693154537E+01  0.00000000000E+00 0. -1.
</event>
<event>
 7    1  0.2647566E-010  0.4778727E+02  0.7816164E-02  0.1312668E+00
        -11   -1    0    0    0    0  0.00000000000E+00  0.00000000000E+00  0.45593999997E+02  0.45594000000E+02  0.51100000000E-03 0. -1.
         11   -1    0    0    0    0 -0.00000000000E+00 -0.00000000000E+00 -0.45593999997E+02  0.45594000000E+02  0.51100000000E-03 0.  1.
    9900012    2    1    2    0    0 -0.14972802169E+02  0.25298001706E+02 -0.31928826047E+02  0.47787266966E+02  0.19999981407E+02 0.  0.
         12    1    1    2    0    0  0.14972802169E+02 -0.25298001706E+02  0.31928826047E+02  0.43400733034E+02  0.00000000000E+00 0. -1.
         11    1    3    3    0    0 -0.28962254583E+01  0.14904766858E+02 -0.15877444973E+02  0.21968920232E+02  0.51100000000E-03 0.  1.
        -11    1    3    3    0    0 -0.73716969660E+01  0.12230216914E+02 -0.81543367473E+01  0.16444249146E+02  0.51100000000E-03 0. -1.
         12    1    3    3    0    0 -0.47048797448E+01 -0.18369820655E+01 -0.78970443261E+01  0.93740975892E+01  0.00000000000E+00 0. -1.
</event>
<event>
 7    1  0.2647566E-010  0.4778727E+02  0.7816164E-02  0.1312668E+00
        -11   -1    0    0    0    0  0.00000000000E+00  0.00000000000E+00  0.45593999997E+02  0.45594000000E+02  0.51100000000E-03 0.  1.
         11   -1    0    0    0    0 -0.00000000000E+00 -0.00000000000E+00 -0.45593999997E+02  0.45594000000E+02  0.51100000000E-03 0. -1.
    9900012    2    1    2    0    0 -0.23501645061E+02 -0.20853800750E+01  0.36427285400E+02  0.47787271293E+02  0.20000001134E+02 0.  0.
         12    1    1    2    0    0  0.23501645061E+02  0.20853800750E+01 -0.36427285400E+02  0.43400728707E+02  0.00000000000E+00 0. -1.
         11    1    3    3    0    0 -0.73432699462E+01  0.28681342796E+00  0.22667595271E+02  0.23829094634E+02  0.51100000000E-03 0. -1.
        -11    1    3    3    0    0 -0.22072741004E+01 -0.31120385151E+01  0.79683599573E+01  0.88346818474E+01  0.51100000000E-03 0.  1.
         12    1    3    3    0    0 -0.13951101015E+02  0.73984501214E+00  0.57913301725E+01  0.15123494812E+02  0.00000000000E+00 0. -1.
</event>
<event>
 7    1  0.2647566E-010  0.4778727E+02  0.7816164E-02  0.1312668E+00
        -11   -1    0    0    0    0  0.00000000000E+00  0.00000000000E+00  0.45593999997E+02  0.45594000000E+02  0.51100000000E-03 0. -1.
         11   -1    0    0    0    0 -0.00000000000E+00 -0.00000000000E+00 -0.45593999997E+02  0.45594000000E+02  0.51100000000E-03 0.  1.
    9900012    2    1    2    0    0 -0.63962289734E+01  0.22904446168E+02 -0.36305624079E+02  0.47787265684E+02  0.19999975561E+02 0.  0.
         12    1    1    2    0    0  0.63962289734E+01 -0.22904446168E+02  0.36305624079E+02  0.43400734316E+02  0.00000000000E+00 0. -1.
         11    1    3    3    0    0  0.37529130917E+01  0.44817053988E+01 -0.64491008191E+01  0.87040761481E+01  0.51100000000E-03 0. -1.
        -11    1    3    3    0    0 -0.23417116113E+01  0.16228200192E+02 -0.15332154014E+02  0.22448007522E+02  0.51100000000E-03 0.  1.
         12    1    3    3    0    0 -0.78074304538E+01  0.21945405775E+01 -0.14524369246E+02  0.16635182014E+02  0.00000000000E+00 0. -1.
</event>
<event>
 7    1  0.2647566E-010  0.4778727E+02  0.7816164E-02  0.1312668E+00
        -11   -1    0    0    0    0  0.00000000000E+00  0.00000000000E+00  0.45593999997E+02  0.45594000000E+02  0.51100000000E-03 0.  1.
         11   -1    0    0    0    0 -0.00000000000E+00 -0.00000000000E+00 -0.45593999997E+02  0.45594000000E+02  0.51100000000E-03 0. -1.
    9900012    2    1    2    0    0 -0.29287506464E+02 -0.18024552608E+02  0.26476040543E+02  0.47787271268E+02  0.20000001018E+02 0.  0.
         12    1    1    2    0    0  0.29287506464E+02  0.18024552608E+02 -0.26476040543E+02  0.43400728732E+02  0.00000000000E+00 0. -1.
         11    1    3    3    0    0 -0.11241238914E+02 -0.68210447708E+01  0.85304633615E+01  0.15673573604E+02  0.51100000000E-03 0. -1.
        -11    1    3    3    0    0 -0.73030939755E+01 -0.48464381128E+01 -0.16119407967E+01  0.89118739550E+01  0.51100000000E-03 0.  1.
         12    1    3    3    0    0 -0.10743173575E+02 -0.63570697247E+01  0.19557517979E+02  0.23201823709E+02  0.00000000000E+00 0. -1.
</event>
<event>
 7    1  0.2647566E-010  0.4778726E+02  0.7816164E-02  0.1312668E+00
        -11   -1    0    0    0    0  0.00000000000E+00  0.00000000000E+00  0.45593999997E+02  0.45594000000E+02  0.51100000000E-03 0. -1.
         11   -1    0    0    0    0 -0.00000000000E+00 -0.00000000000E+00 -0.45593999997E+02  0.45594000000E+02  0.51100000000E-03 0.  1.
    9900012    2    1    2    0    0 -0.38395578470E+01  0.27387236191E+02 -0.33448783310E+02  0.47787262500E+02  0.19999961041E+02 0.  0.
         12    1    1    2    0    0  0.38395578470E+01 -0.27387236191E+02  0.33448783310E+02  0.43400737500E+02  0.00000000000E+00 0. -1.
         11    1    3    3    0    0 -0.33994482810E+01  0.12935414447E+02 -0.74802084591E+01  0.15324317746E+02  0.51100000000E-03 0. -1.
        -11    1    3    3    0    0 -0.49253430391E+01  0.11682883591E+02 -0.11701282131E+02  0.17253080212E+02  0.51100000000E-03 0.  1.
         12    1    3    3    0    0  0.44852334732E+01  0.27689381536E+01 -0.14267292720E+02  0.15209864541E+02  0.00000000000E+00 0. -1.
</event>
<event>
 7    1  0.2647566E-010  0.4778727E+02  0.7816164E-02  0.1312668E+00
        -11   -1    0    0    0    0  0.00000000000E+00  0.00000000000E+00  0.45593999997E+02  0.45594000000E+02  0.51100000000E-03 0.  1.
         11   -1    0    0    0    0 -0.00000000000E+00 -0.00000000000E+00 -0.45593999997E+02  0.45594000000E+02  0.51100000000E-03 0. -1.
    9900012    2    1    2    0    0 -0.33239826178E+02 -0.97061750919E+00  0.27888979215E+02  0.47787270694E+02  0.19999998401E+02 0.  0.
         12    1    1    2    0    0  0.33239826178E+02  0.97061750919E+00 -0.27888979215E+02  0.43400729306E+02  0.00000000000E+00 0. -1.
         11    1    3    3    0    0 -0.46108760773E+00  0.20941111013E+01  0.30444366146E+01  0.37237746505E+01  0.51100000000E-03 0. -1.
        -11    1    3    3    0    0 -0.10628036842E+02 -0.85580913892E+00 -0.57015707451E-01  0.10662590091E+02  0.51100000000E-03 0.  1.
        -12    1    3    3    0    0 -0.22150701728E+02 -0.22089194716E+01  0.24901558307E+02  0.33400905952E+02  0.00000000000E+00 0.  1.
</event>
<event>
 7    1  0.2647566E-010  0.4778727E+02  0.7816164E-02  0.1312668E+00
        -11   -1    0    0    0    0  0.00000000000E+00  0.00000000000E+00  0.45593999997E+02  0.45594000000E+02  0.51100000000E-03 0.  1.
         11   -1    0    0    0    0 -0.00000000000E+00 -0.00000000000E+00 -0.45593999997E+02  0.45594000000E+02  0.51100000000E-03 0. -1.
    9900012    2    1    2    0    0  0.40348616445E+02  0.97732964320E+01  0.12652862960E+02  0.47787272895E+02  0.20000008437E+02 0.  0.
         12    1    1    2    0    0 -0.40348616445E+02 -0.97732964320E+01 -0.12652862960E+02  0.43400727105E+02  0.00000000000E+00 0. -1.
         11    1    3    3    0    0  0.11015110358E+02  0.26456036105E+01  0.59891710013E-01  0.11328524261E+02  0.51100000000E-03 0. -1.
        -11    1    3    3    0    0  0.26896165931E+02  0.10291849650E+02  0.14254592037E+02  0.32132838428E+02  0.51100000000E-03 0.  1.
        -12    1    3    3    0    0  0.24373401557E+01 -0.31641568285E+01 -0.16616207869E+01  0.43259102059E+01  0.00000000000E+00 0.  1.
</event>
<event>
 7    1  0.2647566E-010  0.4778727E+02  0.7816164E-02  0.1312668E+00
        -11   -1    0    0    0    0  0.00000000000E+00  0.00000000000E+00  0.45593999997E+02  0.45594000000E+02  0.51100000000E-03 0.  1.
         11   -1    0    0    0    0 -0.00000000000E+00 -0.00000000000E+00 -0.45593999997E+02  0.45594000000E+02  0.51100000000E-03 0. -1.
    9900012    2    1    2    0    0 -0.43030873406E+02  0.44238711307E+01  0.35208670547E+01  0.47787271818E+02  0.20000003529E+02 0.  0.
         12    1    1    2    0    0  0.43030873406E+02 -0.44238711307E+01 -0.35208670547E+01  0.43400728182E+02  0.00000000000E+00 0. -1.
         11    1    3    3    0    0 -0.54030583162E+00 -0.26645805502E+01 -0.24868640137E+01  0.36846184041E+01  0.51100000000E-03 0. -1.
        -11    1    3    3    0    0 -0.13650918119E+02 -0.93723236451E+00  0.30706439438E+01  0.14023367088E+02  0.51100000000E-03 0.  1.
         12    1    3    3    0    0 -0.28839649456E+02  0.80256840454E+01  0.29370871245E+01  0.30079286326E+02  0.00000000000E+00 0. -1.
</event>
<event>
 7    1  0.2647566E-010  0.4778727E+02  0.7816164E-02  0.1312668E+00
        -11   -1    0    0    0    0  0.00000000000E+00  0.00000000000E+00  0.45593999997E+02  0.45594000000E+02  0.51100000000E-03 0. -1.
         11   -1    0    0    0    0 -0.00000000000E+00 -0.00000000000E+00 -0.45593999997E+02  0.45594000000E+02  0.51100000000E-03 0.  1.
    9900012    2    1    2    0    0  0.12132171374E+02  0.41531278014E+02  0.34038921805E+01  0.47787272844E+02  0.20000008203E+02 0.  0.
         12    1    1    2    0    0 -0.12132171374E+02 -0.41531278014E+02 -0.34038921805E+01  0.43400727156E+02  0.00000000000E+00 0. -1.
         11    1    3    3    0    0 -0.27595193946E+00  0.46266556238E+01 -0.34333829759E+01  0.57680335171E+01  0.51100000000E-03 0. -1.
        -11    1    3    3    0    0  0.52940285788E+01  0.27904830990E+02 -0.49019071614E+00  0.28406805846E+02  0.51100000000E-03 0.  1.
         12    1    3    3    0    0  0.71140947351E+01  0.89997914006E+01  0.73274658726E+01  0.13612433481E+02  0.00000000000E+00 0. -1.
</event>
<event>
 7    1  0.2647566E-010  0.4778727E+02  0.7816164E-02  0.1312668E+00
        -11   -1    0    0    0    0  0.00000000000E+00  0.00000000000E+00  0.45593999997E+02  0.45594000000E+02  0.51100000000E-03 0.  1.
         11   -1    0    0    0    0 -0.00000000000E+00 -0.00000000000E+00 -0.45593999997E+02  0.45594000000E+02  0.51100000000E-03 0. -1.
    9900012    2    1    2    0    0  0.31975881136E+02  0.23707248152E+02  0.17295457102E+02  0.47787269295E+02  0.19999992023E+02 0.  0.
         12    1    1    2    0    0 -0.31975881136E+02 -0.23707248152E+02 -0.17295457102E+02  0.43400730705E+02  0.00000000000E+00 0. -1.
         11    1    3    3    0    0  0.22669959684E+01  0.39318675787E+01  0.68377155352E+01  0.82068999859E+01  0.51100000000E-03 0. -1.
        -11    1    3    3    0    0  0.13364943055E+02  0.11498028377E+02  0.11793710507E+02  0.21211269816E+02  0.51100000000E-03 0.  1.
         12    1    3    3    0    0  0.16343942113E+02  0.82773521964E+01 -0.13359689408E+01  0.18369099493E+02  0.00000000000E+00 0. -1.
</event>
<event>
 7    1  0.2647566E-010  0.4778727E+02  0.7816164E-02  0.1312668E+00
        -11   -1    0    0    0    0  0.00000000000E+00  0.00000000000E+00  0.45593999997E+02  0.45594000000E+02  0.51100000000E-03 0.  1.
         11   -1    0    0    0    0 -0.00000000000E+00 -0.00000000000E+00 -0.45593999997E+02  0.45594000000E+02  0.51100000000E-03 0. -1.
    9900012    2    1    2    0    0  0.25574330245E+02 -0.31017858372E+02  0.16354489994E+02  0.47787271338E+02  0.20000001337E+02 0.  0.
         12    1    1    2    0    0 -0.25574330245E+02  0.31017858372E+02 -0.16354489994E+02  0.43400728662E+02  0.00000000000E+00 0. -1.
         11    1    3    3    0    0  0.18559778184E+01 -0.81401716987E+01  0.50514082561E+01  0.97582669863E+01  0.51100000000E-03 0. -1.
        -11    1    3    3    0    0  0.69765528344E+01 -0.13190377324E+02  0.11248318877E+02  0.18686439501E+02  0.51100000000E-03 0.  1.
         12    1    3    3    0    0  0.16741799592E+02 -0.96873093491E+01  0.54762860485E-01  0.19342564850E+02  0.00000000000E+00 0. -1.
</event>
<event>
 7    1  0.2647566E-010  0.4778727E+02  0.7816164E-02  0.1312668E+00
        -11   -1    0    0    0    0  0.00000000000E+00  0.00000000000E+00  0.45593999997E+02  0.45594000000E+02  0.51100000000E-03 0.  1.
         11   -1    0    0    0    0 -0.00000000000E+00 -0.00000000000E+00 -0.45593999997E+02  0.45594000000E+02  0.51100000000E-03 0. -1.
    9900012    2    1    2    0    0  0.11703666538E+02 -0.26302302990E+02  0.32478249026E+02  0.47787267140E+02  0.19999982199E+02 0.  0.
         12    1    1    2    0    0 -0.11703666538E+02  0.26302302990E+02 -0.32478249026E+02  0.43400732860E+02  0.00000000000E+00 0. -1.
         11    1    3    3    0    0  0.43502867364E+01 -0.10460528861E+02  0.16372522389E+02  0.19909976102E+02  0.51100000000E-03 0. -1.
        -11    1    3    3    0    0  0.11385156517E+02 -0.91040299612E+01  0.12640451125E+02  0.19294718328E+02  0.51100000000E-03 0.  1.
         12    1    3    3    0    0 -0.40317767159E+01 -0.67377441673E+01  0.34652755123E+01  0.85825727103E+01  0.00000000000E+00 0. -1.
</event>
<event>
 7    1  0.2647566E-010  0.4778728E+02  0.7816164E-02  0.1312668E+00
        -11   -1    0    0    0    0  0.00000000000E+00  0.00000000000E+00  0.45593999997E+02  0.45594000000E+02  0.51100000000E-03 0.  1.
         11   -1    0    0    0    0 -0.00000000000E+00 -0.00000000000E+00 -0.45593999997E+02  0.45594000000E+02  0.51100000000E-03 0. -1.
    9900012    2    1    2    0    0 -0.24115578499E+02  0.33946459686E+02 -0.12235176020E+02  0.47787276691E+02  0.20000025743E+02 0.  0.
         12    1    1    2    0    0  0.24115578499E+02 -0.33946459686E+02  0.12235176020E+02  0.43400723309E+02  0.00000000000E+00 0. -1.
         11    1    3    3    0    0 -0.17572613520E+02  0.11859078411E+02 -0.62599682231E+01  0.22104788828E+02  0.51100000000E-03 0. -1.
        -11    1    3    3    0    0 -0.24411286704E+01 -0.33255318377E-01 -0.16674082478E+00  0.24470426775E+01  0.51100000000E-03 0.  1.
        -12    1    3    3    0    0 -0.41018363078E+01  0.22120636594E+02 -0.58084669719E+01  0.23235445185E+02  0.00000000000E+00 0.  1.
</event>
<event>
 7    1  0.2647566E-010  0.4778727E+02  0.7816164E-02  0.1312668E+00
        -11   -1    0    0    0    0  0.00000000000E+00  0.00000000000E+00  0.45593999997E+02  0.45594000000E+02  0.51100000000E-03 0.  1.
         11   -1    0    0    0    0 -0.00000000000E+00 -0.00000000000E+00 -0.45593999997E+02  0.45594000000E+02  0.51100000000E-03 0. -1.
    9900012    2    1    2    0    0 -0.15548062560E+02 -0.31358707380E+02  0.25661496377E+02  0.47787272193E+02  0.20000005235E+02 0.  0.
         12    1    1    2    0    0  0.15548062560E+02  0.31358707380E+02 -0.25661496377E+02  0.43400727807E+02  0.00000000000E+00 0. -1.
         11    1    3    3    0    0 -0.49433576280E+01 -0.11286266896E+02  0.13989279717E+02  0.18641795846E+02  0.51100000000E-03 0. -1.
        -11    1    3    3    0    0  0.18605722988E+01 -0.90434947547E+01  0.77287019994E+01  0.12040737582E+02  0.51100000000E-03 0.  1.
         12    1    3    3    0    0 -0.12465277231E+02 -0.11028945729E+02  0.39435146606E+01  0.17104738765E+02  0.00000000000E+00 0. -1.
</event>
<event>
 7    1  0.2647566E-010  0.4778728E+02  0.7816164E-02  0.1312668E+00
        -11   -1    0    0    0    0  0.00000000000E+00  0.00000000000E+00  0.45593999997E+02  0.45594000000E+02  0.51100000000E-03 0. -1.
         11   -1    0    0    0    0 -0.00000000000E+00 -0.00000000000E+00 -0.45593999997E+02  0.45594000000E+02  0.51100000000E-03 0.  1.
    9900012    2    1    2    0    0  0.74851614860E+01 -0.94822235905E+01 -0.41685520898E+02  0.47787275821E+02  0.20000021778E+02 0.  0.
         12    1    1    2    0    0 -0.74851614860E+01  0.94822235905E+01  0.41685520898E+02  0.43400724179E+02  0.00000000000E+00 0. -1.
         11    1    3    3    0    0  0.57443014627E+01 -0.54457544896E+01 -0.16877127584E+02  0.18641101818E+02  0.51100000000E-03 0. -1.
        -11    1    3    3    0    0 -0.18753393823E+01 -0.84577849623E+01 -0.97599684330E+01  0.13050211046E+02  0.51100000000E-03 0.  1.
         12    1    3    3    0    0  0.36161994057E+01  0.44213158614E+01 -0.15048424882E+02  0.16095962957E+02  0.00000000000E+00 0. -1.
</event>
<event>
 7    1  0.2647566E-010  0.4778727E+02  0.7816164E-02  0.1312668E+00
        -11   -1    0    0    0    0  0.00000000000E+00  0.00000000000E+00  0.45593999997E+02  0.45594000000E+02  0.51100000000E-03 0. -1.
         11   -1    0    0    0    0 -0.00000000000E+00 -0.00000000000E+00 -0.45593999997E+02  0.45594000000E+02  0.51100000000E-03 0.  1.
    9900012    2    1    2    0    0  0.43197046917E+02 -0.48580333288E-01  0.41995328718E+01  0.47787270758E+02  0.19999998696E+02 0.  0.
         12    1    1    2    0    0 -0.43197046917E+02  0.48580333288E-01 -0.41995328718E+01  0.43400729242E+02  0.00000000000E+00 0. -1.
         11    1    3    3    0    0  0.94184118751E+01 -0.33300758524E+01 -0.16114553278E+01  0.10118926621E+02  0.51100000000E-03 0. -1.
        -11    1    3    3    0    0  0.16367354269E+02  0.48855961027E+01 -0.41049636575E+01  0.17567300929E+02  0.51100000000E-03 0.  1.
         12    1    3    3    0    0  0.17411280772E+02 -0.16041005836E+01  0.99159518571E+01  0.20101043208E+02  0.00000000000E+00 0. -1.
</event>
<event>
 7    1  0.2647566E-010  0.4778727E+02  0.7816164E-02  0.1312668E+00
        -11   -1    0    0    0    0  0.00000000000E+00  0.00000000000E+00  0.45593999997E+02  0.45594000000E+02  0.51100000000E-03 0. -1.
         11   -1    0    0    0    0 -0.00000000000E+00 -0.00000000000E+00 -0.45593999997E+02  0.45594000000E+02  0.51100000000E-03 0.  1.
    9900012    2    1    2    0    0  0.42648762367E+01  0.42258917389E+02  0.89229149525E+01  0.47787266372E+02  0.19999978695E+02 0.  0.
         12    1    1    2    0    0 -0.42648762367E+01 -0.42258917389E+02 -0.89229149525E+01  0.43400733628E+02  0.00000000000E+00 0. -1.
         11    1    3    3    0    0  0.82840685011E+01  0.18363311110E+02  0.69096576556E+01  0.21297426019E+02  0.51100000000E-03 0. -1.
        -11    1    3    3    0    0 -0.13849166265E+01  0.27456265578E+00 -0.19363581478E+01  0.23964268927E+01  0.51100000000E-03 0.  1.
        -12    1    3    3    0    0 -0.26342756379E+01  0.23621043624E+02  0.39496154447E+01  0.24093413460E+02  0.00000000000E+00 0.  1.
</event>
<event>
 7    1  0.2647566E-010  0.4778727E+02  0.7816164E-02  0.1312668E+00
        -11   -1    0    0    0    0  0.00000000000E+00  0.00000000000E+00  0.45593999997E+02  0.45594000000E+02  0.51100000000E-03 0. -1.
         11   -1    0    0    0    0 -0.00000000000E+00 -0.00000000000E+00 -0.45593999997E+02  0.45594000000E+02  0.51100000000E-03 0.  1.
    9900012    2    1    2    0    0 -0.64017533248E+01 -0.56291789274E+01 -0.42555292652E+02  0.47787273811E+02  0.20000012613E+02 0.  0.
         12    1    1    2    0    0  0.64017533248E+01  0.56291789274E+01  0.42555292652E+02  0.43400726189E+02  0.00000000000E+00 0. -1.
         11    1    3    3    0    0 -0.40847595009E+01 -0.11644164856E+01 -0.29523164046E+02  0.29827141021E+02  0.51100000000E-03 0. -1.
        -11    1    3    3    0    0 -0.69023413097E+01 -0.22790982025E+01 -0.80231054342E+01  0.10826210105E+02  0.51100000000E-03 0.  1.
         12    1    3    3    0    0  0.45853474858E+01 -0.21856642393E+01 -0.50090231718E+01  0.71339226845E+01  0.00000000000E+00 0. -1.
</event>
<event>
 7    1  0.2647566E-010  0.4778726E+02  0.7816164E-02  0.1312668E+00
        -11   -1    0    0    0    0  0.00000000000E+00  0.00000000000E+00  0.45593999997E+02  0.45594000000E+02  0.51100000000E-03 0.  1.
         11   -1    0    0    0    0 -0.00000000000E+00 -0.00000000000E+00 -0.45593999997E+02  0.45594000000E+02  0.51100000000E-03 0. -1.
    9900012    2    1    2    0    0 -0.11639955078E+02 -0.27522301412E+01  0.41720028347E+02  0.47787261640E+02  0.19999957120E+02 0.  0.
         12    1    1    2    0    0  0.11639955078E+02  0.27522301412E+01 -0.41720028347E+02  0.43400738360E+02  0.00000000000E+00 0. -1.
         11    1    3    3    0    0  0.23037586347E+01 -0.13019413227E+01  0.21793446042E+01  0.34281041728E+01  0.51100000000E-03 0. -1.
        -11    1    3    3    0    0  0.29112760052E+01 -0.51748930676E+00  0.88696058158E+01  0.93495043050E+01  0.51100000000E-03 0.  1.
        -12    1    3    3    0    0 -0.16854989718E+02 -0.93279951172E+00  0.30671077927E+02  0.35009653162E+02  0.00000000000E+00 0.  1.
</event>
<event>
 7    1  0.2647566E-010  0.4778727E+02  0.7816164E-02  0.1312668E+00
        -11   -1    0    0    0    0  0.00000000000E+00  0.00000000000E+00  0.45593999997E+02  0.45594000000E+02  0.51100000000E-03 0.  1.
         11   -1    0    0    0    0 -0.00000000000E+00 -0.00000000000E+00 -0.45593999997E+02  0.45594000000E+02  0.51100000000E-03 0. -1.
    9900012    2    1    2    0    0  0.24409588299E+01 -0.34875732910E+02 -0.25716686125E+02  0.47787274531E+02  0.20000015895E+02 0.  0.
         12    1    1    2    0    0 -0.24409588299E+01  0.34875732910E+02  0.25716686125E+02  0.43400725469E+02  0.00000000000E+00 0. -1.
         11    1    3    3    0    0  0.15262319965E+01 -0.10089182419E+01 -0.23834478342E+01  0.30046836715E+01  0.51100000000E-03 0. -1.
        -11    1    3    3    0    0 -0.23650739419E+01 -0.91651533881E+01  0.15223173108E+01  0.95870256927E+01  0.51100000000E-03 0.  1.
        -12    1    3    3    0    0  0.32798007753E+01 -0.24701661280E+02 -0.24855555601E+02  0.35195565166E+02  0.00000000000E+00 0.  1.
</event>
<event>
 7    1  0.2647566E-010  0.4778727E+02  0.7816164E-02  0.1312668E+00
        -11   -1    0    0    0    0  0.00000000000E+00  0.00000000000E+00  0.45593999997E+02  0.45594000000E+02  0.51100000000E-03 0.  1.
         11   -1    0    0    0    0 -0.00000000000E+00 -0.00000000000E+00 -0.45593999997E+02  0.45594000000E+02  0.51100000000E-03 0. -1.
    9900012    2    1    2    0    0 -0.12351912339E+02  0.29645079323E+02  0.29192856412E+02  0.47787270375E+02  0.19999996948E+02 0.  0.
         12    1    1    2    0    0  0.12351912339E+02 -0.29645079323E+02 -0.29192856412E+02  0.43400729625E+02  0.00000000000E+00 0. -1.
         11    1    3    3    0    0  0.53599911314E+01  0.72530013904E+01  0.66147020119E+01  0.11184355907E+02  0.51100000000E-03 0. -1.
        -11    1    3    3    0    0 -0.34322355444E+01  0.42349557158E+01  0.25003968689E+01  0.59972556649E+01  0.51100000000E-03 0.  1.
         12    1    3    3    0    0 -0.14279667926E+02  0.18157122217E+02  0.20077757531E+02  0.30605658803E+02  0.00000000000E+00 0. -1.
</event>
<event>
 7    1  0.2647566E-010  0.4778727E+02  0.7816164E-02  0.1312668E+00
        -11   -1    0    0    0    0  0.00000000000E+00  0.00000000000E+00  0.45593999997E+02  0.45594000000E+02  0.51100000000E-03 0.  1.
         11   -1    0    0    0    0 -0.00000000000E+00 -0.00000000000E+00 -0.45593999997E+02  0.45594000000E+02  0.51100000000E-03 0. -1.
    9900012    2    1    2    0    0  0.35935660407E+02  0.13482064099E+02 -0.20260447985E+02  0.47787268511E+02  0.19999988448E+02 0.  0.
         12    1    1    2    0    0 -0.35935660407E+02 -0.13482064099E+02  0.20260447985E+02  0.43400731489E+02  0.00000000000E+00 0. -1.
         11    1    3    3    0    0 -0.74721341220E+00 -0.38519114177E+00  0.31335348233E+00  0.89715704594E+00  0.51100000000E-03 0. -1.
        -11    1    3    3    0    0  0.21298188482E+02  0.87658605764E+01 -0.20266588778E+02  0.30678783633E+02  0.51100000000E-03 0.  1.
        -12    1    3    3    0    0  0.15384685337E+02  0.51013946643E+01 -0.30721268980E+00  0.16211327832E+02  0.00000000000E+00 0.  1.
</event>
<event>
 7    1  0.2647566E-010  0.4778727E+02  0.7816164E-02  0.1312668E+00
        -11   -1    0    0    0    0  0.00000000000E+00  0.00000000000E+00  0.45593999997E+02  0.45594000000E+02  0.51100000000E-03 0.  1.
         11   -1    0    0    0    0 -0.00000000000E+00 -0.00000000000E+00 -0.45593999997E+02  0.45594000000E+02  0.51100000000E-03 0. -1.
    9900012    2    1    2    0    0  0.22551406235E+02  0.11726823610E+02  0.35178669886E+02  0.47787272700E+02  0.20000007550E+02 0.  0.
         12    1    1    2    0    0 -0.22551406235E+02 -0.11726823610E+02 -0.35178669886E+02  0.43400727300E+02  0.00000000000E+00 0. -1.
         11    1    3    3    0    0  0.78568143974E+00 -0.36375822678E+00  0.73250697770E+01  0.73760601184E+01  0.51100000000E-03 0. -1.
        -11    1    3    3    0    0 -0.98542302013E+00  0.29856073262E+00  0.78110125500E+01  0.78785858095E+01  0.51100000000E-03 0.  1.
         12    1    3    3    0    0  0.22751147816E+02  0.11792021104E+02  0.20042587559E+02  0.32532626772E+02  0.00000000000E+00 0. -1.
</event>
<event>
 7    1  0.2647566E-010  0.4778726E+02  0.7816164E-02  0.1312668E+00
        -11   -1    0    0    0    0  0.00000000000E+00  0.00000000000E+00  0.45593999997E+02  0.45594000000E+02  0.51100000000E-03 0.  1.
         11   -1    0    0    0    0 -0.00000000000E+00 -0.00000000000E+00 -0.45593999997E+02  0.45594000000E+02  0.51100000000E-03 0. -1.
    9900012    2    1    2    0    0 -0.95248243993E+01 -0.42188921692E+02  0.36051415964E+01  0.47787257618E+02  0.19999938783E+02 0.  0.
         12    1    1    2    0    0  0.95248243993E+01  0.42188921692E+02 -0.36051415964E+01  0.43400742382E+02  0.00000000000E+00 0. -1.
         11    1    3    3    0    0 -0.59639642592E+01 -0.19331481682E+02  0.63830190176E+00  0.20240614697E+02  0.51100000000E-03 0. -1.
        -11    1    3    3    0    0  0.29917215358E+01 -0.19114080923E+02  0.44591872689E+01  0.19854038346E+02  0.51100000000E-03 0.  1.
         12    1    3    3    0    0 -0.65525816759E+01 -0.37433590872E+01 -0.14923475743E+01  0.76926045757E+01  0.00000000000E+00 0. -1.
</event>
<event>
 7    1  0.2647566E-010  0.4778727E+02  0.7816164E-02  0.1312668E+00
        -11   -1    0    0    0    0  0.00000000000E+00  0.00000000000E+00  0.45593999997E+02  0.45594000000E+02  0.51100000000E-03 0. -1.
         11   -1    0    0    0    0 -0.00000000000E+00 -0.00000000000E+00 -0.45593999997E+02  0.45594000000E+02  0.51100000000E-03 0.  1.
    9900012    2    1    2    0    0  0.40433291123E+02 -0.97560949695E+01 -0.12393174431E+02  0.47787271981E+02  0.20000004270E+02 0.  0.
         12    1    1    2    0    0 -0.40433291123E+02  0.97560949695E+01  0.12393174431E+02  0.43400728019E+02  0.00000000000E+00 0. -1.
         11    1    3    3    0    0  0.84597673054E+00 -0.19098769334E+01 -0.18729192606E+01  0.28055540179E+01  0.51100000000E-03 0. -1.
        -11    1    3    3    0    0  0.31110296728E+02 -0.10586563412E+02 -0.13586214550E+02  0.35559965037E+02  0.51100000000E-03 0.  1.
         12    1    3    3    0    0  0.84770176649E+01  0.27403453761E+01  0.30659593803E+01  0.94217529257E+01  0.00000000000E+00 0. -1.
</event>
<event>
 7    1  0.2647566E-010  0.4778728E+02  0.7816164E-02  0.1312668E+00
        -11   -1    0    0    0    0  0.00000000000E+00  0.00000000000E+00  0.45593999997E+02  0.45594000000E+02  0.51100000000E-03 0. -1.
         11   -1    0    0    0    0 -0.00000000000E+00 -0.00000000000E+00 -0.45593999997E+02  0.45594000000E+02  0.51100000000E-03 0.  1.
    9900012    2    1    2    0    0  0.33068270842E+02 -0.19709523312E+02 -0.20041129185E+02  0.47787277601E+02  0.20000029896E+02 0.  0.
         12    1    1    2    0    0 -0.33068270842E+02  0.19709523312E+02  0.20041129185E+02  0.43400722399E+02  0.00000000000E+00 0. -1.
         11    1    3    3    0    0  0.17913783780E+02 -0.12863180134E+02 -0.64436255892E+01  0.22975755994E+02  0.51100000000E-03 0. -1.
        -11    1    3    3    0    0  0.62023707757E+01 -0.95311595391E+01 -0.81897763478E+01  0.14013737627E+02  0.51100000000E-03 0.  1.
         12    1    3    3    0    0  0.89521162864E+01  0.26848163608E+01 -0.54077272481E+01  0.10797783980E+02  0.00000000000E+00 0. -1.
</event>
<event>
 7    1  0.2647566E-010  0.4778727E+02  0.7816164E-02  0.1312668E+00
        -11   -1    0    0    0    0  0.00000000000E+00  0.00000000000E+00  0.45593999997E+02  0.45594000000E+02  0.51100000000E-03 0.  1.
         11   -1    0    0    0    0 -0.00000000000E+00 -0.00000000000E+00 -0.45593999997E+02  0.45594000000E+02  0.51100000000E-03 0. -1.
    9900012    2    1    2    0    0  0.38641245154E+02  0.16856546143E+02  0.10311847602E+02  0.47787272173E+02  0.20000005148E+02 0.  0.
         12    1    1    2    0    0 -0.38641245154E+02 -0.16856546143E+02 -0.10311847602E+02  0.43400727827E+02  0.00000000000E+00 0. -1.
         11    1    3    3    0    0  0.59853229972E+01  0.64587057660E+01  0.78794258619E+01  0.11816273682E+02  0.51100000000E-03 0. -1.
        -11    1    3    3    0    0  0.12932917138E+02  0.64089381542E+01  0.58246308058E+01  0.15564740866E+02  0.51100000000E-03 0.  1.
         12    1    3    3    0    0  0.19723005019E+02  0.39889022228E+01 -0.33922090655E+01  0.20406257625E+02  0.00000000000E+00 0. -1.
</event>
<event>
 7    1  0.2647566E-010  0.4778726E+02  0.7816164E-02  0.1312668E+00
        -11   -1    0    0    0    0  0.00000000000E+00  0.00000000000E+00  0.45593999997E+02  0.45594000000E+02  0.51100000000E-03 0. -1.
         11   -1    0    0    0    0 -0.00000000000E+00 -0.00000000000E+00 -0.45593999997E+02  0.45594000000E+02  0.51100000000E-03 0.  1.
    9900012    2    1    2    0    0 -0.30350863697E+02 -0.10268775911E+02 -0.29274588993E+02  0.47787259839E+02  0.19999948908E+02 0.  0.
         12    1    1    2    0    0  0.30350863697E+02  0.10268775911E+02  0.29274588993E+02  0.43400740161E+02  0.00000000000E+00 0. -1.
         11    1    3    3    0    0 -0.96844948868E+01 -0.11207396343E+02 -0.87169053553E+01  0.17186611453E+02  0.51100000000E-03 0. -1.
        -11    1    3    3    0    0 -0.37667051877E+01 -0.13280537144E+01 -0.13572932649E+00  0.39962754347E+01  0.51100000000E-03 0.  1.
        -12    1    3    3    0    0 -0.16899663623E+02  0.22666741464E+01 -0.20421954311E+02  0.26604372951E+02  0.00000000000E+00 0.  1.
</event>
<event>
 7    1  0.2647566E-010  0.4778727E+02  0.7816164E-02  0.1312668E+00
        -11   -1    0    0    0    0  0.00000000000E+00  0.00000000000E+00  0.45593999997E+02  0.45594000000E+02  0.51100000000E-03 0.  1.
         11   -1    0    0    0    0 -0.00000000000E+00 -0.00000000000E+00 -0.45593999997E+02  0.45594000000E+02  0.51100000000E-03 0. -1.
    9900012    2    1    2    0    0  0.21973574441E+02  0.31493309779E+02  0.20222678495E+02  0.47787271203E+02  0.20000000725E+02 0.  0.
         12    1    1    2    0    0 -0.21973574441E+02 -0.31493309779E+02 -0.20222678495E+02  0.43400728797E+02  0.00000000000E+00 0. -1.
         11    1    3    3    0    0  0.28486289938E+01  0.53317850690E+01 -0.11862929670E+01  0.61603498627E+01  0.51100000000E-03 0. -1.
        -11    1    3    3    0    0  0.34376953307E+01  0.13268931301E+02  0.26056125115E+01  0.13952473038E+02  0.51100000000E-03 0.  1.
        -12    1    3    3    0    0  0.15687250117E+02  0.12892593409E+02  0.18803358950E+02  0.27674448302E+02  0.00000000000E+00 0.  1.
</event>
<event>
 7    1  0.2647566E-010  0.4778727E+02  0.7816164E-02  0.1312668E+00
        -11   -1    0    0    0    0  0.00000000000E+00  0.00000000000E+00  0.45593999997E+02  0.45594000000E+02  0.51100000000E-03 0.  1.
         11   -1    0    0    0    0 -0.00000000000E+00 -0.00000000000E+00 -0.45593999997E+02  0.45594000000E+02  0.51100000000E-03 0. -1.
    9900012    2    1    2    0    0 -0.37760863520E+02 -0.90184941809E+01  0.19401220658E+02  0.47787269430E+02  0.19999992638E+02 0.  0.
         12    1    1    2    0    0  0.37760863520E+02  0.90184941809E+01 -0.19401220658E+02  0.43400730570E+02  0.00000000000E+00 0. -1.
         11    1    3    3    0    0 -0.54514960813E+01  0.32161499060E+01  0.33676447834E+01  0.71696207285E+01  0.51100000000E-03 0. -1.
        -11    1    3    3    0    0 -0.30365871708E+02 -0.62628836605E+01  0.12673298466E+02  0.33495109652E+02  0.51100000000E-03 0.  1.
         12    1    3    3    0    0 -0.19434957299E+01 -0.59717604263E+01  0.33602774078E+01  0.71225390486E+01  0.00000000000E+00 0. -1.
</event>
<event>
 7    1  0.2647566E-010  0.4778727E+02  0.7816164E-02  0.1312668E+00
        -11   -1    0    0    0    0  0.00000000000E+00  0.00000000000E+00  0.45593999997E+02  0.45594000000E+02  0.51100000000E-03 0.  1.
         11   -1    0    0    0    0 -0.00000000000E+00 -0.00000000000E+00 -0.45593999997E+02  0.45594000000E+02  0.51100000000E-03 0. -1.
    9900012    2    1    2    0    0  0.39520256486E+02 -0.82983324176E+01  0.15903158566E+02  0.47787269062E+02  0.19999990959E+02 0.  0.
         12    1    1    2    0    0 -0.39520256486E+02  0.82983324176E+01 -0.15903158566E+02  0.43400730938E+02  0.00000000000E+00 0. -1.
         11    1    3    3    0    0  0.78127249461E+01  0.30861546439E+01 -0.12399009150E+00  0.84010948913E+01  0.51100000000E-03 0. -1.
        -11    1    3    3    0    0  0.20985438573E+02 -0.44683507534E+01  0.39476607553E+01  0.21816022008E+02  0.51100000000E-03 0.  1.
        -12    1    3    3    0    0  0.10722092967E+02 -0.69161363081E+01  0.12079487903E+02  0.17570152162E+02  0.00000000000E+00 0.  1.
</event>
<event>
 7    1  0.2647566E-010  0.4778733E+02  0.7816164E-02  0.1312667E+00
        -11   -1    0    0    0    0  0.00000000000E+00  0.00000000000E+00  0.45593999997E+02  0.45594000000E+02  0.51100000000E-03 0.  1.
         11   -1    0    0    0    0 -0.00000000000E+00 -0.00000000000E+00 -0.45593999997E+02  0.45594000000E+02  0.51100000000E-03 0. -1.
    9900012    2    1    2    0    0  0.73563328416E+01 -0.19504721389E+02 -0.38066625163E+02  0.47787334790E+02  0.20000290641E+02 0.  0.
         12    1    1    2    0    0 -0.73563328416E+01  0.19504721389E+02  0.38066625163E+02  0.43400665210E+02  0.00000000000E+00 0. -1.
         11    1    3    3    0    0  0.38159103442E+00  0.18306963151E+00 -0.49721570576E+01  0.49901375006E+01  0.51100000000E-03 0. -1.
        -11    1    3    3    0    0  0.46905436297E+01 -0.11014707565E+02 -0.44346545091E+01  0.12766798469E+02  0.51100000000E-03 0.  1.
        -12    1    3    3    0    0  0.22841981775E+01 -0.86730834553E+01 -0.28659813596E+02  0.30030398820E+02  0.00000000000E+00 0.  1.
</event>
<event>
 7    1  0.2647566E-010  0.4778727E+02  0.7816164E-02  0.1312668E+00
        -11   -1    0    0    0    0  0.00000000000E+00  0.00000000000E+00  0.45593999997E+02  0.45594000000E+02  0.51100000000E-03 0.  1.
         11   -1    0    0    0    0 -0.00000000000E+00 -0.00000000000E+00 -0.45593999997E+02  0.45594000000E+02  0.51100000000E-03 0. -1.
    9900012    2    1    2    0    0 -0.66724619750E+01  0.16134118617E+02  0.39734011569E+02  0.47787271807E+02  0.20000003476E+02 0.  0.
         12    1    1    2    0    0  0.66724619750E+01 -0.16134118617E+02 -0.39734011569E+02  0.43400728193E+02  0.00000000000E+00 0. -1.
         11    1    3    3    0    0  0.30111842245E+01  0.10201116742E+02  0.14466539697E+02  0.17955800853E+02  0.51100000000E-03 0. -1.
        -11    1    3    3    0    0 -0.43185212934E+01  0.60438346296E+01  0.22696457167E+02  0.23881095691E+02  0.51100000000E-03 0.  1.
         12    1    3    3    0    0 -0.53651249061E+01 -0.11083275406E+00  0.25710147040E+01  0.59503752626E+01  0.00000000000E+00 0. -1.
</event>
<event>
 7    1  0.2647566E-010  0.4778727E+02  0.7816164E-02  0.1312668E+00
        -11   -1    0    0    0    0  0.00000000000E+00  0.00000000000E+00  0.45593999997E+02  0.45594000000E+02  0.51100000000E-03 0.  1.
         11   -1    0    0    0    0 -0.00000000000E+00 -0.00000000000E+00 -0.45593999997E+02  0.45594000000E+02  0.51100000000E-03 0. -1.
    9900012    2    1    2    0    0 -0.28586865326E+02  0.10251568027E+02  0.31005155024E+02  0.47787272423E+02  0.20000006284E+02 0.  0.
         12    1    1    2    0    0  0.28586865326E+02 -0.10251568027E+02 -0.31005155024E+02  0.43400727577E+02  0.00000000000E+00 0. -1.
         11    1    3    3    0    0 -0.89408178319E+01  0.26521766264E+01  0.35240788863E+00  0.93325482019E+01  0.51100000000E-03 0. -1.
        -11    1    3    3    0    0 -0.28793135803E+01  0.66932580803E+00  0.14449269241E+00  0.29596151997E+01  0.51100000000E-03 0.  1.
        -12    1    3    3    0    0 -0.16766733914E+02  0.69300655922E+01  0.30508254443E+02  0.35495109021E+02  0.00000000000E+00 0.  1.
</event>
<event>
 7    1  0.2647566E-010  0.4778729E+02  0.7816164E-02  0.1312668E+00
        -11   -1    0    0    0    0  0.00000000000E+00  0.00000000000E+00  0.45593999997E+02  0.45594000000E+02  0.51100000000E-03 0.  1.
         11   -1    0    0    0    0 -0.00000000000E+00 -0.00000000000E+00 -0.45593999997E+02  0.45594000000E+02  0.51100000000E-03 0. -1.
    9900012    2    1    2    0    0 -0.21383335246E+02  0.34905185712E+02  0.14422290704E+02  0.47787291654E+02  0.20000093965E+02 0.  0.
         12    1    1    2    0    0  0.21383335246E+02 -0.34905185712E+02 -0.14422290704E+02  0.43400708346E+02  0.00000000000E+00 0. -1.
         11    1    3    3    0    0 -0.17238578393E+02  0.15640440462E+02  0.27859665302E+01  0.23442559003E+02  0.51100000000E-03 0. -1.
        -11    1    3    3    0    0 -0.55137893813E+01  0.76978395365E+01  0.33244071514E+01  0.10035451661E+02  0.51100000000E-03 0.  1.
        -12    1    3    3    0    0  0.13690325283E+01  0.11566905714E+02  0.83119170223E+01  0.14309280990E+02  0.00000000000E+00 0.  1.
</event>
<event>
 7    1  0.2647566E-010  0.4778727E+02  0.7816164E-02  0.1312668E+00
        -11   -1    0    0    0    0  0.00000000000E+00  0.00000000000E+00  0.45593999997E+02  0.45594000000E+02  0.51100000000E-03 0.  1.
         11   -1    0    0    0    0 -0.00000000000E+00 -0.00000000000E+00 -0.45593999997E+02  0.45594000000E+02  0.51100000000E-03 0. -1.
    9900012    2    1    2    0    0 -0.16072840826E+01 -0.21148601803E+02  0.37865242966E+02  0.47787270223E+02  0.19999996253E+02 0.  0.
         12    1    1    2    0    0  0.16072840826E+01  0.21148601803E+02 -0.37865242966E+02  0.43400729777E+02  0.00000000000E+00 0. -1.
         11    1    3    3    0    0  0.71324818009E+01 -0.69487449032E+01  0.93044507693E+01  0.13628285173E+02  0.51100000000E-03 0.  1.
        -11    1    3    3    0    0 -0.15922326454E+01 -0.34453745660E+01  0.14838720968E+02  0.15316443808E+02  0.51100000000E-03 0. -1.
        -12    1    3    3    0    0 -0.71475332381E+01 -0.10754482334E+02  0.13722071229E+02  0.18842541242E+02  0.00000000000E+00 0.  1.
</event>
<event>
 7    1  0.2647566E-010  0.4778727E+02  0.7816164E-02  0.1312668E+00
        -11   -1    0    0    0    0  0.00000000000E+00  0.00000000000E+00  0.45593999997E+02  0.45594000000E+02  0.51100000000E-03 0.  1.
         11   -1    0    0    0    0 -0.00000000000E+00 -0.00000000000E+00 -0.45593999997E+02  0.45594000000E+02  0.51100000000E-03 0. -1.
    9900012    2    1    2    0    0 -0.41253245367E+02  0.81970646014E+01  0.10705202881E+02  0.47787268554E+02  0.19999988643E+02 0.  0.
         12    1    1    2    0    0  0.41253245367E+02 -0.81970646014E+01 -0.10705202881E+02  0.43400731446E+02  0.00000000000E+00 0. -1.
         11    1    3    3    0    0 -0.61167381259E+01 -0.16923585685E+01 -0.17007669860E+01  0.65704772602E+01  0.51100000000E-03 0. -1.
        -11    1    3    3    0    0 -0.33577777317E+01 -0.34735526144E+01  0.14774604806E+01  0.50520420419E+01  0.51100000000E-03 0.  1.
         12    1    3    3    0    0 -0.31778729509E+02  0.13362975784E+02  0.10928509387E+02  0.36164749252E+02  0.00000000000E+00 0. -1.
</event>
<event>
 7    1  0.2647566E-010  0.4778727E+02  0.7816164E-02  0.1312668E+00
        -11   -1    0    0    0    0  0.00000000000E+00  0.00000000000E+00  0.45593999997E+02  0.45594000000E+02  0.51100000000E-03 0.  1.
         11   -1    0    0    0    0 -0.00000000000E+00 -0.00000000000E+00 -0.45593999997E+02  0.45594000000E+02  0.51100000000E-03 0. -1.
    9900012    2    1    2    0    0 -0.17739695282E+02 -0.35005312666E+02  0.18535226568E+02  0.47787270427E+02  0.19999997184E+02 0.  0.
         12    1    1    2    0    0  0.17739695282E+02  0.35005312666E+02 -0.18535226568E+02  0.43400729573E+02  0.00000000000E+00 0. -1.
         11    1    3    3    0    0 -0.34167782151E+01 -0.25986408509E+01 -0.95419769882E+00  0.43974766801E+01  0.51100000000E-03 0. -1.
        -11    1    3    3    0    0  0.45683191260E+00 -0.10360450899E-01  0.48792257106E+01  0.49005761428E+01  0.51100000000E-03 0.  1.
        -12    1    3    3    0    0 -0.14779748980E+02 -0.32396311364E+02  0.14610198557E+02  0.38489217604E+02  0.00000000000E+00 0.  1.
</event>
<event>
 7    1  0.2647566E-010  0.4778727E+02  0.7816164E-02  0.1312668E+00
        -11   -1    0    0    0    0  0.00000000000E+00  0.00000000000E+00  0.45593999997E+02  0.45594000000E+02  0.51100000000E-03 0.  1.
         11   -1    0    0    0    0 -0.00000000000E+00 -0.00000000000E+00 -0.45593999997E+02  0.45594000000E+02  0.51100000000E-03 0. -1.
    9900012    2    1    2    0    0  0.24330728647E+02 -0.32016416743E+02  0.16327518097E+02  0.47787272532E+02  0.20000006782E+02 0.  0.
         12    1    1    2    0    0 -0.24330728647E+02  0.32016416743E+02 -0.16327518097E+02  0.43400727468E+02  0.00000000000E+00 0. -1.
         11    1    3    3    0    0 -0.43433634016E-01 -0.81364048611E+01  0.88610955859E+01  0.12030045128E+02  0.51100000000E-03 0. -1.
        -11    1    3    3    0    0  0.42903382085E+01 -0.74627257172E+01 -0.49667973896E+00  0.86224108054E+01  0.51100000000E-03 0.  1.
         12    1    3    3    0    0  0.20083824072E+02 -0.16417286165E+02  0.79631022498E+01  0.27134816598E+02  0.00000000000E+00 0. -1.
</event>
<event>
 7    1  0.2647566E-010  0.4778727E+02  0.7816164E-02  0.1312668E+00
        -11   -1    0    0    0    0  0.00000000000E+00  0.00000000000E+00  0.45593999997E+02  0.45594000000E+02  0.51100000000E-03 0. -1.
         11   -1    0    0    0    0 -0.00000000000E+00 -0.00000000000E+00 -0.45593999997E+02  0.45594000000E+02  0.51100000000E-03 0.  1.
    9900012    2    1    2    0    0  0.22127513497E+02  0.27180681206E+02 -0.25597010977E+02  0.47787271258E+02  0.20000000973E+02 0.  0.
         12    1    1    2    0    0 -0.22127513497E+02 -0.27180681206E+02  0.25597010977E+02  0.43400728742E+02  0.00000000000E+00 0. -1.
         11    1    3    3    0    0  0.26420899909E-01  0.78510866125E+00  0.18137189076E+01  0.19765298406E+01  0.51100000000E-03 0. -1.
        -11    1    3    3    0    0  0.73511065484E+01  0.16098971164E+02 -0.82404614873E+01  0.19522316610E+02  0.51100000000E-03 0.  1.
         12    1    3    3    0    0  0.14749986048E+02  0.10296601381E+02 -0.19170268397E+02  0.26288424808E+02  0.00000000000E+00 0. -1.
</event>
<event>
 7    1  0.2647566E-010  0.4778727E+02  0.7816164E-02  0.1312668E+00
        -11   -1    0    0    0    0  0.00000000000E+00  0.00000000000E+00  0.45593999997E+02  0.45594000000E+02  0.51100000000E-03 0. -1.
         11   -1    0    0    0    0 -0.00000000000E+00 -0.00000000000E+00 -0.45593999997E+02  0.45594000000E+02  0.51100000000E-03 0.  1.
    9900012    2    1    2    0    0 -0.23386765016E+02 -0.34175507190E+02 -0.12989117748E+02  0.47787271326E+02  0.20000001282E+02 0.  0.
         12    1    1    2    0    0  0.23386765016E+02  0.34175507190E+02  0.12989117748E+02  0.43400728674E+02  0.00000000000E+00 0. -1.
         11    1    3    3    0    0  0.58396828657E+00 -0.26015917360E+01 -0.12718162102E+01  0.29541183548E+01  0.51100000000E-03 0. -1.
        -11    1    3    3    0    0 -0.85635870816E+01 -0.22723616400E+02 -0.14844417064E+01  0.24329022451E+02  0.51100000000E-03 0.  1.
        -12    1    3    3    0    0 -0.15407146221E+02 -0.88502990536E+01 -0.10232859832E+02  0.20504130519E+02  0.00000000000E+00 0.  1.
</event>
<event>
 7    1  0.2647566E-010  0.4778727E+02  0.7816164E-02  0.1312668E+00
        -11   -1    0    0    0    0  0.00000000000E+00  0.00000000000E+00  0.45593999997E+02  0.45594000000E+02  0.51100000000E-03 0.  1.
         11   -1    0    0    0    0 -0.00000000000E+00 -0.00000000000E+00 -0.45593999997E+02  0.45594000000E+02  0.51100000000E-03 0. -1.
    9900012    2    1    2    0    0  0.26179852565E+02  0.10966062828E+01  0.34598207897E+02  0.47787271719E+02  0.20000003075E+02 0.  0.
         12    1    1    2    0    0 -0.26179852565E+02 -0.10966062828E+01 -0.34598207897E+02  0.43400728281E+02  0.00000000000E+00 0. -1.
         11    1    3    3    0    0  0.93885593978E+01  0.21068229880E+01  0.35651245369E+01  0.10261279837E+02  0.51100000000E-03 0. -1.
        -11    1    3    3    0    0  0.51862124144E+01 -0.60409868256E+01  0.82370243347E+01  0.11455954399E+02  0.51100000000E-03 0.  1.
         12    1    3    3    0    0  0.11605080752E+02  0.50307701204E+01  0.22796059025E+02  0.26070037483E+02  0.00000000000E+00 0. -1.
</event>
<event>
 7    1  0.2647566E-010  0.4778727E+02  0.7816164E-02  0.1312668E+00
        -11   -1    0    0    0    0  0.00000000000E+00  0.00000000000E+00  0.45593999997E+02  0.45594000000E+02  0.51100000000E-03 0. -1.
         11   -1    0    0    0    0 -0.00000000000E+00 -0.00000000000E+00 -0.45593999997E+02  0.45594000000E+02  0.51100000000E-03 0.  1.
    9900012    2    1    2    0    0 -0.29376512121E+02  0.18269533540E+02  0.26208168056E+02  0.47787269672E+02  0.19999993743E+02 0.  0.
         12    1    1    2    0    0  0.29376512121E+02 -0.18269533540E+02 -0.26208168056E+02  0.43400730328E+02  0.00000000000E+00 0. -1.
         11    1    3    3    0    0 -0.57170645130E+00  0.12054487446E+01  0.13439163313E+01  0.18936911862E+01  0.51100000000E-03 0. -1.
        -11    1    3    3    0    0 -0.14341099244E+02  0.18782767040E+02  0.18437249037E+02  0.29973181638E+02  0.51100000000E-03 0.  1.
         12    1    3    3    0    0 -0.14463706426E+02 -0.17186822452E+01  0.64270026883E+01  0.15920396848E+02  0.00000000000E+00 0. -1.
</event>
<event>
 7    1  0.2647566E-010  0.4778728E+02  0.7816164E-02  0.1312668E+00
        -11   -1    0    0    0    0  0.00000000000E+00  0.00000000000E+00  0.45593999997E+02  0.45594000000E+02  0.51100000000E-03 0.  1.
         11   -1    0    0    0    0 -0.00000000000E+00 -0.00000000000E+00 -0.45593999997E+02  0.45594000000E+02  0.51100000000E-03 0. -1.
    9900012    2    1    2    0    0  0.30997716921E+02 -0.35752675771E+01  0.30165902570E+02  0.47787277997E+02  0.20000031698E+02 0.  0.
         12    1    1    2    0    0 -0.30997716921E+02  0.35752675771E+01 -0.30165902570E+02  0.43400722003E+02  0.00000000000E+00 0. -1.
         11    1    3    3    0    0 -0.21516044276E+00 -0.45636035466E+01  0.13940654754E+01  0.47766295814E+01  0.51100000000E-03 0. -1.
        -11    1    3    3    0    0  0.11632219003E+02 -0.27135146084E+01  0.91737453154E+01  0.15060852693E+02  0.51100000000E-03 0.  1.
         12    1    3    3    0    0  0.19580658361E+02  0.37018505780E+01  0.19598091779E+02  0.27949795723E+02  0.00000000000E+00 0. -1.
</event>
<event>
 7    1  0.2647566E-010  0.4778727E+02  0.7816164E-02  0.1312668E+00
        -11   -1    0    0    0    0  0.00000000000E+00  0.00000000000E+00  0.45593999997E+02  0.45594000000E+02  0.51100000000E-03 0.  1.
         11   -1    0    0    0    0 -0.00000000000E+00 -0.00000000000E+00 -0.45593999997E+02  0.45594000000E+02  0.51100000000E-03 0. -1.
    9900012    2    1    2    0    0 -0.38753197337E+02  0.17075862550E+02  0.94988272038E+01  0.47787273002E+02  0.20000008927E+02 0.  0.
         12    1    1    2    0    0  0.38753197337E+02 -0.17075862550E+02 -0.94988272038E+01  0.43400726998E+02  0.00000000000E+00 0. -1.
         11    1    3    3    0    0 -0.13487089957E+02  0.57775694815E+01  0.92577267191E+01  0.17348988699E+02  0.51100000000E-03 0. -1.
        -11    1    3    3    0    0 -0.21512099392E+02  0.10482529709E+02  0.48722747216E+01  0.24421157028E+02  0.51100000000E-03 0.  1.
         12    1    3    3    0    0 -0.37540079884E+01  0.81576335879E+00 -0.46311742369E+01  0.60171272752E+01  0.00000000000E+00 0. -1.
</event>
<event>
 7    1  0.2647566E-010  0.4778727E+02  0.7816164E-02  0.1312668E+00
        -11   -1    0    0    0    0  0.00000000000E+00  0.00000000000E+00  0.45593999997E+02  0.45594000000E+02  0.51100000000E-03 0.  1.
         11   -1    0    0    0    0 -0.00000000000E+00 -0.00000000000E+00 -0.45593999997E+02  0.45594000000E+02  0.51100000000E-03 0. -1.
    9900012    2    1    2    0    0 -0.30529976650E+02 -0.29892759207E+02 -0.76136142683E+01  0.47787266717E+02  0.19999980268E+02 0.  0.
         12    1    1    2    0    0  0.30529976650E+02  0.29892759207E+02  0.76136142683E+01  0.43400733283E+02  0.00000000000E+00 0. -1.
         11    1    3    3    0    0 -0.57230998197E+01  0.94377862036E+00 -0.31680665219E+01  0.66091781167E+01  0.51100000000E-03 0. -1.
        -11    1    3    3    0    0 -0.29199496406E+01  0.23092262934E+00 -0.14626721012E+00  0.29327164067E+01  0.51100000000E-03 0.  1.
        -12    1    3    3    0    0 -0.21886927190E+02 -0.31067460457E+02 -0.42992805363E+01  0.38245372193E+02  0.00000000000E+00 0.  1.
</event>
<event>
 7    1  0.2647566E-010  0.4778728E+02  0.7816164E-02  0.1312668E+00
        -11   -1    0    0    0    0  0.00000000000E+00  0.00000000000E+00  0.45593999997E+02  0.45594000000E+02  0.51100000000E-03 0.  1.
         11   -1    0    0    0    0 -0.00000000000E+00 -0.00000000000E+00 -0.45593999997E+02  0.45594000000E+02  0.51100000000E-03 0. -1.
    9900012    2    1    2    0    0 -0.34280721256E+02 -0.10674247543E+02  0.24382688855E+02  0.47787275050E+02  0.20000018261E+02 0.  0.
         12    1    1    2    0    0  0.34280721256E+02  0.10674247543E+02 -0.24382688855E+02  0.43400724950E+02  0.00000000000E+00 0. -1.
         11    1    3    3    0    0 -0.13691568483E+02 -0.82003400787E+01  0.13255027904E+02  0.20746093365E+02  0.51100000000E-03 0. -1.
        -11    1    3    3    0    0 -0.17662274873E+02 -0.69426717427E+01  0.10426603287E+02  0.21653422385E+02  0.51100000000E-03 0.  1.
         12    1    3    3    0    0 -0.29268778996E+01  0.44687642786E+01  0.70105766403E+00  0.53877592991E+01  0.00000000000E+00 0. -1.
</event>
<event>
 7    1  0.2647566E-010  0.4778727E+02  0.7816164E-02  0.1312668E+00
        -11   -1    0    0    0    0  0.00000000000E+00  0.00000000000E+00  0.45593999997E+02  0.45594000000E+02  0.51100000000E-03 0. -1.
         11   -1    0    0    0    0 -0.00000000000E+00 -0.00000000000E+00 -0.45593999997E+02  0.45594000000E+02  0.51100000000E-03 0.  1.
    9900012    2    1    2    0    0 -0.68619799182E+00 -0.29071274176E+02 -0.32218215829E+02  0.47787270961E+02  0.19999999620E+02 0.  0.
         12    1    1    2    0    0  0.68619799182E+00  0.29071274176E+02  0.32218215829E+02  0.43400729039E+02  0.00000000000E+00 0. -1.
         11    1    3    3    0    0 -0.31536008512E+00  0.22806863847E+00 -0.25151657915E+00  0.46338767555E+00  0.51100000000E-03 0. -1.
        -11    1    3    3    0    0 -0.56970364444E+01 -0.24457496804E+02 -0.31250730883E+02  0.40090317474E+02  0.51100000000E-03 0.  1.
        -12    1    3    3    0    0  0.53261985377E+01 -0.48418460107E+01 -0.71596836696E+00  0.72335658120E+01  0.00000000000E+00 0.  1.
</event>
<event>
 7    1  0.2647566E-010  0.4778727E+02  0.7816164E-02  0.1312668E+00
        -11   -1    0    0    0    0  0.00000000000E+00  0.00000000000E+00  0.45593999997E+02  0.45594000000E+02  0.51100000000E-03 0. -1.
         11   -1    0    0    0    0 -0.00000000000E+00 -0.00000000000E+00 -0.45593999997E+02  0.45594000000E+02  0.51100000000E-03 0.  1.
    9900012    2    1    2    0    0 -0.26455142569E+02 -0.33993877742E+02 -0.53070491285E+01  0.47787273477E+02  0.20000011090E+02 0.  0.
         12    1    1    2    0    0  0.26455142569E+02  0.33993877742E+02  0.53070491285E+01  0.43400726523E+02  0.00000000000E+00 0. -1.
         11    1    3    3    0    0 -0.48725989233E+01 -0.13366438917E+02 -0.54707932045E+01  0.15242489565E+02  0.51100000000E-03 0. -1.
        -11    1    3    3    0    0 -0.89698024653E+01 -0.12680801443E+02 -0.56721039417E+01  0.16535804936E+02  0.51100000000E-03 0.  1.
         12    1    3    3    0    0 -0.12612741180E+02 -0.79466373824E+01  0.58358480177E+01  0.16008978976E+02  0.00000000000E+00 0. -1.
</event>
<event>
 7    1  0.2647566E-010  0.4778727E+02  0.7816164E-02  0.1312668E+00
        -11   -1    0    0    0    0  0.00000000000E+00  0.00000000000E+00  0.45593999997E+02  0.45594000000E+02  0.51100000000E-03 0. -1.
         11   -1    0    0    0    0 -0.00000000000E+00 -0.00000000000E+00 -0.45593999997E+02  0.45594000000E+02  0.51100000000E-03 0.  1.
    9900012    2    1    2    0    0 -0.61223540396E+01 -0.17825087445E+02 -0.39094840527E+02  0.47787268241E+02  0.19999987217E+02 0.  0.
         12    1    1    2    0    0  0.61223540396E+01  0.17825087445E+02  0.39094840527E+02  0.43400731759E+02  0.00000000000E+00 0. -1.
         11    1    3    3    0    0 -0.87774035159E+01 -0.26519111702E+01 -0.18541630889E+02  0.20684958826E+02  0.51100000000E-03 0. -1.
        -11    1    3    3    0    0 -0.22180994641E-01  0.11969998506E-01  0.77979500680E+00  0.78020240396E+00  0.51100000000E-03 0.  1.
        -12    1    3    3    0    0  0.26772304710E+01 -0.15185146273E+02 -0.21333004645E+02  0.26322107011E+02  0.00000000000E+00 0.  1.
</event>
<event>
 7    1  0.2647566E-010  0.4778726E+02  0.7816164E-02  0.1312668E+00
        -11   -1    0    0    0    0  0.00000000000E+00  0.00000000000E+00  0.45593999997E+02  0.45594000000E+02  0.51100000000E-03 0.  1.
         11   -1    0    0    0    0 -0.00000000000E+00 -0.00000000000E+00 -0.45593999997E+02  0.45594000000E+02  0.51100000000E-03 0. -1.
    9900012    2    1    2    0    0  0.16640833427E+02  0.12799936345E+02  0.37985104258E+02  0.47787264372E+02  0.19999969576E+02 0.  0.
         12    1    1    2    0    0 -0.16640833427E+02 -0.12799936345E+02 -0.37985104258E+02  0.43400735628E+02  0.00000000000E+00 0. -1.
         11    1    3    3    0    0  0.33749641287E+01 -0.29683592080E+01  0.21381864434E+01  0.49772864882E+01  0.51100000000E-03 0. -1.
        -11    1    3    3    0    0  0.11540826604E+02  0.71915777887E+01  0.15250108407E+02  0.20432211737E+02  0.51100000000E-03 0.  1.
        -12    1    3    3    0    0  0.17250426944E+01  0.85767177648E+01  0.20596809408E+02  0.22377766146E+02  0.00000000000E+00 0.  1.
</event>
<event>
 7    1  0.2647566E-010  0.4778722E+02  0.7816164E-02  0.1312668E+00
        -11   -1    0    0    0    0  0.00000000000E+00  0.00000000000E+00  0.45593999997E+02  0.45594000000E+02  0.51100000000E-03 0. -1.
         11   -1    0    0    0    0 -0.00000000000E+00 -0.00000000000E+00 -0.45593999997E+02  0.45594000000E+02  0.51100000000E-03 0.  1.
    9900012    2    1    2    0    0 -0.28859458574E+02  0.31116675016E+02  0.90836230588E+01  0.47787216354E+02  0.19999750641E+02 0.  0.
         12    1    1    2    0    0  0.28859458574E+02 -0.31116675016E+02 -0.90836230588E+01  0.43400783646E+02  0.00000000000E+00 0. -1.
         11    1    3    3    0    0  0.80449001165E+00  0.24034928275E+01 -0.16597962925E+00  0.25399865057E+01  0.51100000000E-03 0. -1.
        -11    1    3    3    0    0 -0.72767629607E+01  0.17190591948E+02  0.71192674908E+01  0.19978781259E+02  0.51100000000E-03 0.  1.
        -12    1    3    3    0    0 -0.22387185625E+02  0.11522590240E+02  0.21303351973E+01  0.25268448589E+02  0.00000000000E+00 0.  1.
</event>
<event>
 7    1  0.2647566E-010  0.4778727E+02  0.7816164E-02  0.1312668E+00
        -11   -1    0    0    0    0  0.00000000000E+00  0.00000000000E+00  0.45593999997E+02  0.45594000000E+02  0.51100000000E-03 0.  1.
         11   -1    0    0    0    0 -0.00000000000E+00 -0.00000000000E+00 -0.45593999997E+02  0.45594000000E+02  0.51100000000E-03 0. -1.
    9900012    2    1    2    0    0 -0.33334494153E+02 -0.17342891139E+02 -0.21717706784E+02  0.47787272340E+02  0.20000005906E+02 0.  0.
         12    1    1    2    0    0  0.33334494153E+02  0.17342891139E+02  0.21717706784E+02  0.43400727660E+02  0.00000000000E+00 0. -1.
         11    1    3    3    0    0 -0.71249953013E+00  0.33975306516E+01 -0.38883821152E+01  0.52125220234E+01  0.51100000000E-03 0. -1.
        -11    1    3    3    0    0 -0.77852934129E+01 -0.51376966740E+01 -0.45273644960E+01  0.10368401525E+02  0.51100000000E-03 0.  1.
         12    1    3    3    0    0 -0.24836701210E+02 -0.15602725116E+02 -0.13301960173E+02  0.32206348792E+02  0.00000000000E+00 0. -1.
</event>
<event>
 7    1  0.2647566E-010  0.4778727E+02  0.7816164E-02  0.1312668E+00
        -11   -1    0    0    0    0  0.00000000000E+00  0.00000000000E+00  0.45593999997E+02  0.45594000000E+02  0.51100000000E-03 0. -1.
         11   -1    0    0    0    0 -0.00000000000E+00 -0.00000000000E+00 -0.45593999997E+02  0.45594000000E+02  0.51100000000E-03 0.  1.
    9900012    2    1    2    0    0  0.39020602386E+02  0.18898400228E+02  0.19663862846E+01  0.47787267094E+02  0.19999981990E+02 0.  0.
         12    1    1    2    0    0 -0.39020602386E+02 -0.18898400228E+02 -0.19663862846E+01  0.43400732906E+02  0.00000000000E+00 0. -1.
         11    1    3    3    0    0  0.70488024668E+01  0.30723259900E-01  0.17593403943E+01  0.72651110810E+01  0.51100000000E-03 0. -1.
        -11    1    3    3    0    0  0.29841352593E+02  0.20918249094E+02  0.28528163153E+01  0.36554316174E+02  0.51100000000E-03 0.  1.
         12    1    3    3    0    0  0.21304473261E+01 -0.20505721259E+01 -0.26457704250E+01  0.39678398398E+01  0.00000000000E+00 0. -1.
</event>
<event>
 7    1  0.2647566E-010  0.4778727E+02  0.7816164E-02  0.1312668E+00
        -11   -1    0    0    0    0  0.00000000000E+00  0.00000000000E+00  0.45593999997E+02  0.45594000000E+02  0.51100000000E-03 0.  1.
         11   -1    0    0    0    0 -0.00000000000E+00 -0.00000000000E+00 -0.45593999997E+02  0.45594000000E+02  0.51100000000E-03 0. -1.
    9900012    2    1    2    0    0 -0.25191185917E+02  0.53673755427E+00  0.35337508137E+02  0.47787269402E+02  0.19999992511E+02 0.  0.
         12    1    1    2    0    0  0.25191185917E+02 -0.53673755427E+00 -0.35337508137E+02  0.43400730598E+02  0.00000000000E+00 0. -1.
         11    1    3    3    0    0 -0.63568704982E+01  0.35761448293E+01  0.73882956262E+01  0.10381980875E+02  0.51100000000E-03 0. -1.
        -11    1    3    3    0    0 -0.13803753405E+02 -0.28100628831E+00  0.66082207015E+01  0.15306572239E+02  0.51100000000E-03 0.  1.
         12    1    3    3    0    0 -0.50305620145E+01 -0.27584009867E+01  0.21340991809E+02  0.22098716288E+02  0.00000000000E+00 0. -1.
</event>
<event>
 7    1  0.2647566E-010  0.4778727E+02  0.7816164E-02  0.1312668E+00
        -11   -1    0    0    0    0  0.00000000000E+00  0.00000000000E+00  0.45593999997E+02  0.45594000000E+02  0.51100000000E-03 0. -1.
         11   -1    0    0    0    0 -0.00000000000E+00 -0.00000000000E+00 -0.45593999997E+02  0.45594000000E+02  0.51100000000E-03 0.  1.
    9900012    2    1    2    0    0  0.17035113729E+02  0.21972811191E+02 -0.33326027108E+02  0.47787267124E+02  0.19999982125E+02 0.  0.
         12    1    1    2    0    0 -0.17035113729E+02 -0.21972811191E+02  0.33326027108E+02  0.43400732876E+02  0.00000000000E+00 0. -1.
         11    1    3    3    0    0  0.41368836116E+01  0.37925358528E+01 -0.41935162660E+01  0.70059055906E+01  0.51100000000E-03 0. -1.
        -11    1    3    3    0    0  0.64707887078E+01  0.20650857995E+02 -0.21606521682E+02  0.30580562811E+02  0.51100000000E-03 0.  1.
         12    1    3    3    0    0  0.64274414095E+01 -0.24705826560E+01 -0.75259891599E+01  0.10200798722E+02  0.00000000000E+00 0. -1.
</event>
<event>
 7    1  0.2647566E-010  0.4778728E+02  0.7816164E-02  0.1312668E+00
        -11   -1    0    0    0    0  0.00000000000E+00  0.00000000000E+00  0.45593999997E+02  0.45594000000E+02  0.51100000000E-03 0. -1.
         11   -1    0    0    0    0 -0.00000000000E+00 -0.00000000000E+00 -0.45593999997E+02  0.45594000000E+02  0.51100000000E-03 0.  1.
    9900012    2    1    2    0    0  0.29233741366E+02  0.28818288244E+02  0.14089609558E+02  0.47787280316E+02  0.20000042274E+02 0.  0.
         12    1    1    2    0    0 -0.29233741366E+02 -0.28818288244E+02 -0.14089609558E+02  0.43400719684E+02  0.00000000000E+00 0. -1.
         11    1    3    3    0    0  0.56703592704E+01  0.78279757081E+01 -0.23104097135E+01  0.99382177098E+01  0.51100000000E-03 0. -1.
        -11    1    3    3    0    0  0.16900123666E+02  0.18924945420E+02  0.73369219297E+01  0.26412083650E+02  0.51100000000E-03 0.  1.
         12    1    3    3    0    0  0.66632584289E+01  0.20653671160E+01  0.90630973418E+01  0.11436978956E+02  0.00000000000E+00 0. -1.
</event>
<event>
 7    1  0.2647566E-010  0.4778727E+02  0.7816164E-02  0.1312668E+00
        -11   -1    0    0    0    0  0.00000000000E+00  0.00000000000E+00  0.45593999997E+02  0.45594000000E+02  0.51100000000E-03 0. -1.
         11   -1    0    0    0    0 -0.00000000000E+00 -0.00000000000E+00 -0.45593999997E+02  0.45594000000E+02  0.51100000000E-03 0.  1.
    9900012    2    1    2    0    0  0.34218657433E+01 -0.42863524932E+02  0.58849444840E+01  0.47787268366E+02  0.19999987788E+02 0.  0.
         12    1    1    2    0    0 -0.34218657433E+01  0.42863524932E+02 -0.58849444840E+01  0.43400731634E+02  0.00000000000E+00 0. -1.
         11    1    3    3    0    0  0.21509957987E+00 -0.40504725167E+01  0.64786383057E+01  0.76436476890E+01  0.51100000000E-03 0. -1.
        -11    1    3    3    0    0  0.58383206138E+01 -0.16072914119E+02  0.14435722541E+01  0.17161248701E+02  0.51100000000E-03 0.  1.
        -12    1    3    3    0    0 -0.26315544504E+01 -0.22740138297E+02 -0.20372660758E+01  0.22982371976E+02  0.00000000000E+00 0.  1.
</event>
<event>
 7    1  0.2647566E-010  0.4778727E+02  0.7816164E-02  0.1312668E+00
        -11   -1    0    0    0    0  0.00000000000E+00  0.00000000000E+00  0.45593999997E+02  0.45594000000E+02  0.51100000000E-03 0.  1.
         11   -1    0    0    0    0 -0.00000000000E+00 -0.00000000000E+00 -0.45593999997E+02  0.45594000000E+02  0.51100000000E-03 0. -1.
    9900012    2    1    2    0    0 -0.32068868817E+02 -0.15940634961E+02 -0.24517483997E+02  0.47787271760E+02  0.20000003264E+02 0.  0.
         12    1    1    2    0    0  0.32068868817E+02  0.15940634961E+02  0.24517483997E+02  0.43400728240E+02  0.00000000000E+00 0. -1.
         11    1    3    3    0    0  0.43820293558E+00 -0.11704713095E+01  0.16414655767E+00  0.12605432371E+01  0.51100000000E-03 0. -1.
        -11    1    3    3    0    0 -0.25351552731E+02 -0.18401286877E+02 -0.18344066781E+02  0.36301699284E+02  0.51100000000E-03 0.  1.
        -12    1    3    3    0    0 -0.71555190225E+01  0.36311232255E+01 -0.63375637733E+01  0.10225029239E+02  0.00000000000E+00 0.  1.
</event>
<event>
 7    1  0.2647566E-010  0.4778727E+02  0.7816164E-02  0.1312668E+00
        -11   -1    0    0    0    0  0.00000000000E+00  0.00000000000E+00  0.45593999997E+02  0.45594000000E+02  0.51100000000E-03 0.  1.
         11   -1    0    0    0    0 -0.00000000000E+00 -0.00000000000E+00 -0.45593999997E+02  0.45594000000E+02  0.51100000000E-03 0. -1.
    9900012    2    1    2    0    0 -0.38765973282E+02  0.18945495930E+02  0.46787539546E+01  0.47787271445E+02  0.20000001827E+02 0.  0.
         12    1    1    2    0    0  0.38765973282E+02 -0.18945495930E+02 -0.46787539546E+01  0.43400728555E+02  0.00000000000E+00 0. -1.
         11    1    3    3    0    0 -0.16127435862E+02  0.13412400634E+02  0.39362659055E+01  0.21341997747E+02  0.51100000000E-03 0. -1.
        -11    1    3    3    0    0 -0.11390369097E+01  0.31544362669E+01 -0.29921749260E+01  0.44945505106E+01  0.51100000000E-03 0.  1.
        -12    1    3    3    0    0 -0.21499500510E+02  0.23786590291E+01  0.37346629751E+01  0.21950723188E+02  0.00000000000E+00 0.  1.
</event>
<event>
 7    1  0.2647566E-010  0.4778727E+02  0.7816164E-02  0.1312668E+00
        -11   -1    0    0    0    0  0.00000000000E+00  0.00000000000E+00  0.45593999997E+02  0.45594000000E+02  0.51100000000E-03 0.  1.
         11   -1    0    0    0    0 -0.00000000000E+00 -0.00000000000E+00 -0.45593999997E+02  0.45594000000E+02  0.51100000000E-03 0. -1.
    9900012    2    1    2    0    0  0.20380003729E+02 -0.27958356940E+02  0.26203227171E+02  0.47787269719E+02  0.19999993957E+02 0.  0.
         12    1    1    2    0    0 -0.20380003729E+02  0.27958356940E+02 -0.26203227171E+02  0.43400730281E+02  0.00000000000E+00 0. -1.
         11    1    3    3    0    0 -0.22983523312E+01 -0.40376359612E+01  0.20595179089E+01  0.50819820810E+01  0.51100000000E-03 0. -1.
        -11    1    3    3    0    0  0.71820743120E+01 -0.16171810710E+02  0.14496118035E+02  0.22874594891E+02  0.51100000000E-03 0.  1.
        -12    1    3    3    0    0  0.15496281748E+02 -0.77489102686E+01  0.96475912266E+01  0.19830692748E+02  0.00000000000E+00 0.  1.
</event>
<event>
 7    1  0.2647566E-010  0.4778727E+02  0.7816164E-02  0.1312668E+00
        -11   -1    0    0    0    0  0.00000000000E+00  0.00000000000E+00  0.45593999997E+02  0.45594000000E+02  0.51100000000E-03 0.  1.
         11   -1    0    0    0    0 -0.00000000000E+00 -0.00000000000E+00 -0.45593999997E+02  0.45594000000E+02  0.51100000000E-03 0. -1.
    9900012    2    1    2    0    0 -0.20113894320E+02 -0.37772754330E+02  0.72300632015E+01  0.47787268113E+02  0.19999986636E+02 0.  0.
         12    1    1    2    0    0  0.20113894320E+02  0.37772754330E+02 -0.72300632015E+01  0.43400731887E+02  0.00000000000E+00 0. -1.
         11    1    3    3    0    0 -0.58552586692E+01 -0.40407810713E+01  0.41120433994E+01  0.82171081853E+01  0.51100000000E-03 0. -1.
        -11    1    3    3    0    0 -0.38957970511E+01 -0.18891313543E+01  0.42464422702E+01  0.60645135133E+01  0.51100000000E-03 0.  1.
        -12    1    3    3    0    0 -0.10362838600E+02 -0.31842841905E+02 -0.11284224681E+01  0.33505646415E+02  0.00000000000E+00 0.  1.
</event>
<event>
 7    1  0.2647566E-010  0.4778727E+02  0.7816164E-02  0.1312668E+00
        -11   -1    0    0    0    0  0.00000000000E+00  0.00000000000E+00  0.45593999997E+02  0.45594000000E+02  0.51100000000E-03 0.  1.
         11   -1    0    0    0    0 -0.00000000000E+00 -0.00000000000E+00 -0.45593999997E+02  0.45594000000E+02  0.51100000000E-03 0. -1.
    9900012    2    1    2    0    0 -0.25669782880E+02  0.10383097955E+02  0.33419706329E+02  0.47787271350E+02  0.20000001394E+02 0.  0.
         12    1    1    2    0    0  0.25669782880E+02 -0.10383097955E+02 -0.33419706329E+02  0.43400728650E+02  0.00000000000E+00 0. -1.
         11    1    3    3    0    0 -0.47430276244E+01 -0.34227620038E+01  0.10657895395E+02  0.12157398788E+02  0.51100000000E-03 0.  1.
        -11    1    3    3    0    0 -0.53767761321E+00  0.11332608232E+01 -0.11822732295E+01  0.17237017026E+01  0.51100000000E-03 0. -1.
        -12    1    3    3    0    0 -0.20389077642E+02  0.12672599135E+02  0.23944084163E+02  0.33906170860E+02  0.00000000000E+00 0.  1.
</event>
<event>
 7    1  0.2647566E-010  0.4778727E+02  0.7816164E-02  0.1312668E+00
        -11   -1    0    0    0    0  0.00000000000E+00  0.00000000000E+00  0.45593999997E+02  0.45594000000E+02  0.51100000000E-03 0.  1.
         11   -1    0    0    0    0 -0.00000000000E+00 -0.00000000000E+00 -0.45593999997E+02  0.45594000000E+02  0.51100000000E-03 0. -1.
    9900012    2    1    2    0    0  0.34646556863E+02  0.94452049364E+01  0.24372679150E+02  0.47787270885E+02  0.19999999274E+02 0.  0.
         12    1    1    2    0    0 -0.34646556863E+02 -0.94452049364E+01 -0.24372679150E+02  0.43400729115E+02  0.00000000000E+00 0. -1.
         11    1    3    3    0    0  0.16484714296E+01 -0.20137800151E+01  0.68102731048E+01  0.72905821459E+01  0.51100000000E-03 0. -1.
        -11    1    3    3    0    0  0.14487052763E+02 -0.35449865331E+00  0.79079517117E+01  0.16508666439E+02  0.51100000000E-03 0.  1.
        -12    1    3    3    0    0  0.18511032670E+02  0.11813483605E+02  0.96544543334E+01  0.23988022300E+02  0.00000000000E+00 0.  1.
</event>
<event>
 7    1  0.2647566E-010  0.4778727E+02  0.7816164E-02  0.1312668E+00
        -11   -1    0    0    0    0  0.00000000000E+00  0.00000000000E+00  0.45593999997E+02  0.45594000000E+02  0.51100000000E-03 0. -1.
         11   -1    0    0    0    0 -0.00000000000E+00 -0.00000000000E+00 -0.45593999997E+02  0.45594000000E+02  0.51100000000E-03 0.  1.
    9900012    2    1    2    0    0  0.35249172712E+02 -0.39360514318E+01  0.25012532287E+02  0.47787269025E+02  0.19999990792E+02 0.  0.
         12    1    1    2    0    0 -0.35249172712E+02  0.39360514318E+01 -0.25012532287E+02  0.43400730975E+02  0.00000000000E+00 0. -1.
         11    1    3    3    0    0  0.57120697994E+00 -0.16011401553E+01 -0.18454373867E+00  0.17099660416E+01  0.51100000000E-03 0. -1.
        -11    1    3    3    0    0  0.23189055692E+02 -0.53476741680E+00  0.65519009176E+01  0.24102814897E+02  0.51100000000E-03 0.  1.
         12    1    3    3    0    0  0.11488910040E+02 -0.18001438597E+01  0.18645175109E+02  0.21974488086E+02  0.00000000000E+00 0. -1.
</event>
<event>
 7    1  0.2647566E-010  0.4778726E+02  0.7816164E-02  0.1312668E+00
        -11   -1    0    0    0    0  0.00000000000E+00  0.00000000000E+00  0.45593999997E+02  0.45594000000E+02  0.51100000000E-03 0. -1.
         11   -1    0    0    0    0 -0.00000000000E+00 -0.00000000000E+00 -0.45593999997E+02  0.45594000000E+02  0.51100000000E-03 0.  1.
    9900012    2    1    2    0    0 -0.23494117111E+02 -0.25620367652E+02  0.25985520733E+02  0.47787261928E+02  0.19999958435E+02 0.  0.
         12    1    1    2    0    0  0.23494117111E+02  0.25620367652E+02 -0.25985520733E+02  0.43400738072E+02  0.00000000000E+00 0. -1.
         11    1    3    3    0    0 -0.57010093811E+01 -0.33672125195E+01  0.14825355404E+02  0.16236711220E+02  0.51100000000E-03 0. -1.
        -11    1    3    3    0    0 -0.67056254609E+01 -0.44765165241E+01  0.57785446443E+01  0.99194854443E+01  0.51100000000E-03 0.  1.
         12    1    3    3    0    0 -0.11087482269E+02 -0.17776638608E+02  0.53816206849E+01  0.21631065264E+02  0.00000000000E+00 0. -1.
</event>
<event>
 7    1  0.2647566E-010  0.4778727E+02  0.7816164E-02  0.1312668E+00
        -11   -1    0    0    0    0  0.00000000000E+00  0.00000000000E+00  0.45593999997E+02  0.45594000000E+02  0.51100000000E-03 0.  1.
         11   -1    0    0    0    0 -0.00000000000E+00 -0.00000000000E+00 -0.45593999997E+02  0.45594000000E+02  0.51100000000E-03 0. -1.
    9900012    2    1    2    0    0 -0.15141019528E+02 -0.40668009873E+02 -0.69692154829E+00  0.47787271907E+02  0.20000003934E+02 0.  0.
         12    1    1    2    0    0  0.15141019528E+02  0.40668009873E+02  0.69692154829E+00  0.43400728093E+02  0.00000000000E+00 0. -1.
         11    1    3    3    0    0  0.58804112227E+00 -0.10577496599E+02  0.47362550121E+01  0.11604367215E+02  0.51100000000E-03 0. -1.
        -11    1    3    3    0    0 -0.98695079441E+01 -0.73941379190E+01 -0.18857578813E+01  0.12475437695E+02  0.51100000000E-03 0.  1.
         12    1    3    3    0    0 -0.58595527060E+01 -0.22696375354E+02 -0.35474186790E+01  0.23707466997E+02  0.00000000000E+00 0. -1.
</event>
<event>
 7    1  0.2647566E-010  0.4778727E+02  0.7816164E-02  0.1312668E+00
        -11   -1    0    0    0    0  0.00000000000E+00  0.00000000000E+00  0.45593999997E+02  0.45594000000E+02  0.51100000000E-03 0. -1.
         11   -1    0    0    0    0 -0.00000000000E+00 -0.00000000000E+00 -0.45593999997E+02  0.45594000000E+02  0.51100000000E-03 0.  1.
    9900012    2    1    2    0    0  0.10420724360E+02  0.41700605075E+02 -0.60076016102E+01  0.47787271470E+02  0.20000001942E+02 0.  0.
         12    1    1    2    0    0 -0.10420724360E+02 -0.41700605075E+02  0.60076016102E+01  0.43400728530E+02  0.00000000000E+00 0. -1.
         11    1    3    3    0    0  0.72570437610E+00  0.52727304076E+01  0.44787240793E+01  0.69560982189E+01  0.51100000000E-03 0. -1.
        -11    1    3    3    0    0 -0.15637198898E+01  0.16151729556E+02 -0.33903857221E+01  0.16577644680E+02  0.51100000000E-03 0.  1.
        -12    1    3    3    0    0  0.11258739874E+02  0.20276145111E+02 -0.70959399674E+01  0.24253528571E+02  0.00000000000E+00 0.  1.
</event>
<event>
 7    1  0.2647566E-010  0.4778727E+02  0.7816164E-02  0.1312668E+00
        -11   -1    0    0    0    0  0.00000000000E+00  0.00000000000E+00  0.45593999997E+02  0.45594000000E+02  0.51100000000E-03 0. -1.
         11   -1    0    0    0    0 -0.00000000000E+00 -0.00000000000E+00 -0.45593999997E+02  0.45594000000E+02  0.51100000000E-03 0.  1.
    9900012    2    1    2    0    0  0.30836302892E+02 -0.56639492822E+01  0.30011091637E+02  0.47787268223E+02  0.19999987135E+02 0.  0.
         12    1    1    2    0    0 -0.30836302892E+02  0.56639492822E+01 -0.30011091637E+02  0.43400731777E+02  0.00000000000E+00 0. -1.
         11    1    3    3    0    0  0.13121971733E+02 -0.80733195162E+01  0.14997470818E+02  0.21500901408E+02  0.51100000000E-03 0.  1.
        -11    1    3    3    0    0  0.72202817797E+01  0.45029575064E+01  0.12781818199E+02  0.15355258774E+02  0.51100000000E-03 0. -1.
         12    1    3    3    0    0  0.10494049380E+02 -0.20935872723E+01  0.22318026197E+01  0.10931108040E+02  0.00000000000E+00 0. -1.
</event>
<event>
 7    1  0.2647566E-010  0.4778724E+02  0.7816164E-02  0.1312668E+00
        -11   -1    0    0    0    0  0.00000000000E+00  0.00000000000E+00  0.45593999997E+02  0.45594000000E+02  0.51100000000E-03 0.  1.
         11   -1    0    0    0    0 -0.00000000000E+00 -0.00000000000E+00 -0.45593999997E+02  0.45594000000E+02  0.51100000000E-03 0. -1.
    9900012    2    1    2    0    0  0.33575437539E+02  0.23471218715E+02  0.14332392772E+02  0.47787244287E+02  0.19999878001E+02 0.  0.
         12    1    1    2    0    0 -0.33575437539E+02 -0.23471218715E+02 -0.14332392772E+02  0.43400755713E+02  0.00000000000E+00 0. -1.
         11    1    3    3    0    0  0.61811618408E+01 -0.25977363175E+01  0.67250912699E+00  0.67384912603E+01  0.51100000000E-03 0. -1.
        -11    1    3    3    0    0  0.87979186285E+01  0.65076762144E+01  0.77763271856E+01  0.13424771382E+02  0.51100000000E-03 0.  1.
         12    1    3    3    0    0  0.18596357070E+02  0.19561278818E+02  0.58835564593E+01  0.27623981644E+02  0.00000000000E+00 0. -1.
</event>
<event>
 7    1  0.2647566E-010  0.4778728E+02  0.7816164E-02  0.1312668E+00
        -11   -1    0    0    0    0  0.00000000000E+00  0.00000000000E+00  0.45593999997E+02  0.45594000000E+02  0.51100000000E-03 0.  1.
         11   -1    0    0    0    0 -0.00000000000E+00 -0.00000000000E+00 -0.45593999997E+02  0.45594000000E+02  0.51100000000E-03 0. -1.
    9900012    2    1    2    0    0  0.29746285494E+01  0.26730061715E+02  0.34062854149E+02  0.47787278265E+02  0.20000032924E+02 0.  0.
         12    1    1    2    0    0 -0.29746285494E+01 -0.26730061715E+02 -0.34062854149E+02  0.43400721735E+02  0.00000000000E+00 0. -1.
         11    1    3    3    0    0  0.94017837340E+01  0.93237843394E+01  0.94527860770E+01  0.16269039820E+02  0.51100000000E-03 0. -1.
        -11    1    3    3    0    0  0.62559478598E+00  0.47811903008E+01  0.36238857786E+01  0.60318900791E+01  0.51100000000E-03 0.  1.
         12    1    3    3    0    0 -0.70527499706E+01  0.12625087075E+02  0.20986182293E+02  0.25486348366E+02  0.00000000000E+00 0. -1.
</event>
<event>
 7    1  0.2647566E-010  0.4778726E+02  0.7816164E-02  0.1312668E+00
        -11   -1    0    0    0    0  0.00000000000E+00  0.00000000000E+00  0.45593999997E+02  0.45594000000E+02  0.51100000000E-03 0.  1.
         11   -1    0    0    0    0 -0.00000000000E+00 -0.00000000000E+00 -0.45593999997E+02  0.45594000000E+02  0.51100000000E-03 0. -1.
    9900012    2    1    2    0    0 -0.85564911340E+01  0.99949214923E+01  0.41358344549E+02  0.47787255076E+02  0.19999927193E+02 0.  0.
         12    1    1    2    0    0  0.85564911340E+01 -0.99949214923E+01 -0.41358344549E+02  0.43400744924E+02  0.00000000000E+00 0. -1.
         11    1    3    3    0    0 -0.23786367758E+01 -0.41204328764E+01  0.69059317833E+01  0.83861656350E+01  0.51100000000E-03 0. -1.
        -11    1    3    3    0    0 -0.49430555319E+01  0.21570527696E+01  0.19407713949E+02  0.20143138674E+02  0.51100000000E-03 0.  1.
         12    1    3    3    0    0 -0.12347988263E+01  0.11958301599E+02  0.15044698817E+02  0.19257950767E+02  0.00000000000E+00 0. -1.
</event>
<event>
 7    1  0.2647566E-010  0.4778727E+02  0.7816164E-02  0.1312668E+00
        -11   -1    0    0    0    0  0.00000000000E+00  0.00000000000E+00  0.45593999997E+02  0.45594000000E+02  0.51100000000E-03 0. -1.
         11   -1    0    0    0    0 -0.00000000000E+00 -0.00000000000E+00 -0.45593999997E+02  0.45594000000E+02  0.51100000000E-03 0.  1.
    9900012    2    1    2    0    0 -0.56040744576E+01  0.36079652029E+02  0.23462235958E+02  0.47787268932E+02  0.19999990369E+02 0.  0.
         12    1    1    2    0    0  0.56040744576E+01 -0.36079652029E+02 -0.23462235958E+02  0.43400731068E+02  0.00000000000E+00 0. -1.
         11    1    3    3    0    0 -0.14623846665E+01  0.78499759279E+01  0.60541414332E+00  0.80079471482E+01  0.51100000000E-03 0. -1.
        -11    1    3    3    0    0 -0.36191301267E+01  0.15018401937E+02  0.27141021221E+01  0.15684924297E+02  0.51100000000E-03 0.  1.
         12    1    3    3    0    0 -0.52255966433E+00  0.13211274165E+02  0.20142719692E+02  0.24094397487E+02  0.00000000000E+00 0. -1.
</event>
<event>
 7    1  0.2647566E-010  0.4778727E+02  0.7816164E-02  0.1312668E+00
        -11   -1    0    0    0    0  0.00000000000E+00  0.00000000000E+00  0.45593999997E+02  0.45594000000E+02  0.51100000000E-03 0. -1.
         11   -1    0    0    0    0 -0.00000000000E+00 -0.00000000000E+00 -0.45593999997E+02  0.45594000000E+02  0.51100000000E-03 0.  1.
    9900012    2    1    2    0    0  0.51714692662E+01  0.28244718497E+02 -0.32544048521E+02  0.47787270611E+02  0.19999998023E+02 0.  0.
         12    1    1    2    0    0 -0.51714692662E+01 -0.28244718497E+02  0.32544048521E+02  0.43400729389E+02  0.00000000000E+00 0. -1.
         11    1    3    3    0    0  0.58173609460E+01  0.69985396066E+01 -0.65165828399E+01  0.11193171899E+02  0.51100000000E-03 0. -1.
        -11    1    3    3    0    0  0.61539072974E+01  0.14434732011E+02 -0.12883657556E+02  0.20303218847E+02  0.51100000000E-03 0.  1.
         12    1    3    3    0    0 -0.67997989771E+01  0.68114468789E+01 -0.13143808126E+02  0.16290879864E+02  0.00000000000E+00 0. -1.
</event>
<event>
 7    1  0.2647566E-010  0.4778727E+02  0.7816164E-02  0.1312668E+00
        -11   -1    0    0    0    0  0.00000000000E+00  0.00000000000E+00  0.45593999997E+02  0.45594000000E+02  0.51100000000E-03 0. -1.
         11   -1    0    0    0    0 -0.00000000000E+00 -0.00000000000E+00 -0.45593999997E+02  0.45594000000E+02  0.51100000000E-03 0.  1.
    9900012    2    1    2    0    0  0.58433698358E+01 -0.20041235086E+02 -0.38050325481E+02  0.47787270237E+02  0.19999996317E+02 0.  0.
         12    1    1    2    0    0 -0.58433698358E+01  0.20041235086E+02  0.38050325481E+02  0.43400729763E+02  0.00000000000E+00 0. -1.
         11    1    3    3    0    0 -0.95074792720E+00 -0.81625664086E+01 -0.16545639821E+02  0.18474025261E+02  0.51100000000E-03 0. -1.
        -11    1    3    3    0    0  0.47515461486E+00 -0.13407592752E+02 -0.14718754777E+02  0.19915598353E+02  0.51100000000E-03 0.  1.
         12    1    3    3    0    0  0.63189631482E+01  0.15289240752E+01 -0.67859308819E+01  0.93976466219E+01  0.00000000000E+00 0. -1.
</event>
<event>
 7    1  0.2647566E-010  0.4778725E+02  0.7816164E-02  0.1312668E+00
        -11   -1    0    0    0    0  0.00000000000E+00  0.00000000000E+00  0.45593999997E+02  0.45594000000E+02  0.51100000000E-03 0.  1.
         11   -1    0    0    0    0 -0.00000000000E+00 -0.00000000000E+00 -0.45593999997E+02  0.45594000000E+02  0.51100000000E-03 0. -1.
    9900012    2    1    2    0    0 -0.97067948198E+01 -0.42098742189E+02  0.41351455561E+01  0.47787246684E+02  0.19999888932E+02 0.  0.
         12    1    1    2    0    0  0.97067948198E+01  0.42098742189E+02 -0.41351455561E+01  0.43400753316E+02  0.00000000000E+00 0. -1.
         11    1    3    3    0    0 -0.44010325577E+01 -0.10621880192E+02  0.28191830891E+01  0.11838125694E+02  0.51100000000E-03 0. -1.
        -11    1    3    3    0    0 -0.92774105497E+01 -0.12155423018E+02 -0.34067427967E+01  0.15666223284E+02  0.51100000000E-03 0.  1.
         12    1    3    3    0    0  0.39716482876E+01 -0.19321438980E+02  0.47227052637E+01  0.20282897706E+02  0.00000000000E+00 0. -1.
</event>
<event>
 7    1  0.2647566E-010  0.4778727E+02  0.7816164E-02  0.1312668E+00
        -11   -1    0    0    0    0  0.00000000000E+00  0.00000000000E+00  0.45593999997E+02  0.45594000000E+02  0.51100000000E-03 0.  1.
         11   -1    0    0    0    0 -0.00000000000E+00 -0.00000000000E+00 -0.45593999997E+02  0.45594000000E+02  0.51100000000E-03 0. -1.
    9900012    2    1    2    0    0  0.15235750597E+02  0.25771112034E+02  0.31422048902E+02  0.47787268798E+02  0.19999989757E+02 0.  0.
         12    1    1    2    0    0 -0.15235750597E+02 -0.25771112034E+02 -0.31422048902E+02  0.43400731202E+02  0.00000000000E+00 0. -1.
         11    1    3    3    0    0  0.56512837304E+01  0.10099540275E-02  0.43017152371E+01  0.71022364833E+01  0.51100000000E-03 0. -1.
        -11    1    3    3    0    0  0.95866457786E+01  0.82741803554E+01  0.13522692677E+02  0.18526442058E+02  0.51100000000E-03 0.  1.
        -12    1    3    3    0    0 -0.21789124861E-02  0.17495921724E+02  0.13597640988E+02  0.22158590257E+02  0.00000000000E+00 0.  1.
</event>
<event>
 7    1  0.2647566E-010  0.4778727E+02  0.7816164E-02  0.1312668E+00
        -11   -1    0    0    0    0  0.00000000000E+00  0.00000000000E+00  0.45593999997E+02  0.45594000000E+02  0.51100000000E-03 0.  1.
         11   -1    0    0    0    0 -0.00000000000E+00 -0.00000000000E+00 -0.45593999997E+02  0.45594000000E+02  0.51100000000E-03 0. -1.
    9900012    2    1    2    0    0  0.38332796845E+02  0.33255707325E+01  0.20078855523E+02  0.47787272198E+02  0.20000005258E+02 0.  0.
         12    1    1    2    0    0 -0.38332796845E+02 -0.33255707325E+01 -0.20078855523E+02  0.43400727802E+02  0.00000000000E+00 0. -1.
         11    1    3    3    0    0  0.63950735602E+01  0.11743740627E+01  0.94221325443E+01  0.11447825218E+02  0.51100000000E-03 0. -1.
        -11    1    3    3    0    0  0.18284371685E+02  0.33135678800E+01  0.12668588255E+02  0.22489800102E+02  0.51100000000E-03 0.  1.
         12    1    3    3    0    0  0.13653351600E+02 -0.11623712103E+01 -0.20118652758E+01  0.13849646878E+02  0.00000000000E+00 0. -1.
</event>
<event>
 7    1  0.2647566E-010  0.4778725E+02  0.7816164E-02  0.1312668E+00
        -11   -1    0    0    0    0  0.00000000000E+00  0.00000000000E+00  0.45593999997E+02  0.45594000000E+02  0.51100000000E-03 0. -1.
         11   -1    0    0    0    0 -0.00000000000E+00 -0.00000000000E+00 -0.45593999997E+02  0.45594000000E+02  0.51100000000E-03 0.  1.
    9900012    2    1    2    0    0  0.14414619746E+01 -0.12371578918E+02 -0.41575125793E+02  0.47787252746E+02  0.19999916569E+02 0.  0.
         12    1    1    2    0    0 -0.14414619746E+01  0.12371578918E+02  0.41575125793E+02  0.43400747254E+02  0.00000000000E+00 0. -1.
         11    1    3    3    0    0 -0.26721957011E+01  0.72547736662E+00 -0.85619035186E+01  0.89985076205E+01  0.51100000000E-03 0. -1.
        -11    1    3    3    0    0 -0.48794875913E+01 -0.21972700227E+01 -0.46046770955E+01  0.70597766339E+01  0.51100000000E-03 0.  1.
        -12    1    3    3    0    0  0.89931452669E+01 -0.10899786262E+02 -0.28408545179E+02  0.31728968491E+02  0.00000000000E+00 0.  1.
</event>
<event>
 7    1  0.2647566E-010  0.4778728E+02  0.7816164E-02  0.1312668E+00
        -11   -1    0    0    0    0  0.00000000000E+00  0.00000000000E+00  0.45593999997E+02  0.45594000000E+02  0.51100000000E-03 0.  1.
         11   -1    0    0    0    0 -0.00000000000E+00 -0.00000000000E+00 -0.45593999997E+02  0.45594000000E+02  0.51100000000E-03 0. -1.
    9900012    2    1    2    0    0  0.10935790623E+02 -0.21138626682E+02  0.36293106088E+02  0.47787278761E+02  0.20000035183E+02 0.  0.
         12    1    1    2    0    0 -0.10935790623E+02  0.21138626682E+02 -0.36293106088E+02  0.43400721239E+02  0.00000000000E+00 0. -1.
         11    1    3    3    0    0 -0.31199356142E+01 -0.61519401245E+01  0.72399159249E+01  0.99998374184E+01  0.51100000000E-03 0.  1.
        -11    1    3    3    0    0 -0.11692497360E+01 -0.42078485213E+01  0.17165781158E+01  0.46925232884E+01  0.51100000000E-03 0. -1.
         12    1    3    3    0    0  0.15224975973E+02 -0.10778838037E+02  0.27336612047E+02  0.33094918054E+02  0.00000000000E+00 0. -1.
</event>
<event>
 7    1  0.2647566E-010  0.4778727E+02  0.7816164E-02  0.1312668E+00
        -11   -1    0    0    0    0  0.00000000000E+00  0.00000000000E+00  0.45593999997E+02  0.45594000000E+02  0.51100000000E-03 0.  1.
         11   -1    0    0    0    0 -0.00000000000E+00 -0.00000000000E+00 -0.45593999997E+02  0.45594000000E+02  0.51100000000E-03 0. -1.
    9900012    2    1    2    0    0  0.62549720141E+01 -0.15552347343E+02  0.40032773646E+02  0.47787272488E+02  0.20000006581E+02 0.  0.
         12    1    1    2    0    0 -0.62549720141E+01  0.15552347343E+02 -0.40032773646E+02  0.43400727512E+02  0.00000000000E+00 0. -1.
         11    1    3    3    0    0 -0.28762052582E+01  0.63504833190E+00  0.96486510261E+01  0.10088226304E+02  0.51100000000E-03 0. -1.
        -11    1    3    3    0    0 -0.25451888833E+01 -0.43224194572E+01  0.36415461039E+01  0.61985606961E+01  0.51100000000E-03 0.  1.
        -12    1    3    3    0    0  0.11676366156E+02 -0.11864976218E+02  0.26742576516E+02  0.31500485488E+02  0.00000000000E+00 0.  1.
</event>
<event>
 7    1  0.2647566E-010  0.4778727E+02  0.7816164E-02  0.1312668E+00
        -11   -1    0    0    0    0  0.00000000000E+00  0.00000000000E+00  0.45593999997E+02  0.45594000000E+02  0.51100000000E-03 0.  1.
         11   -1    0    0    0    0 -0.00000000000E+00 -0.00000000000E+00 -0.45593999997E+02  0.45594000000E+02  0.51100000000E-03 0. -1.
    9900012    2    1    2    0    0 -0.35315187648E+01  0.41785529902E+02 -0.11185757871E+02  0.47787270593E+02  0.19999997940E+02 0.  0.
         12    1    1    2    0    0  0.35315187648E+01 -0.41785529902E+02  0.11185757871E+02  0.43400729407E+02  0.00000000000E+00 0. -1.
         11    1    3    3    0    0  0.24102834393E+01  0.33627207553E+01 -0.16419904163E+01  0.44512346517E+01  0.51100000000E-03 0. -1.
        -11    1    3    3    0    0 -0.11029270833E+02  0.22749632316E+02 -0.90411018193E+01  0.26850178919E+02  0.51100000000E-03 0.  1.
        -12    1    3    3    0    0  0.50874686287E+01  0.15673176831E+02 -0.50266563551E+00  0.16485857022E+02  0.00000000000E+00 0.  1.
</event>
<event>
 7    1  0.2647566E-010  0.4778727E+02  0.7816164E-02  0.1312668E+00
        -11   -1    0    0    0    0  0.00000000000E+00  0.00000000000E+00  0.45593999997E+02  0.45594000000E+02  0.51100000000E-03 0.  1.
         11   -1    0    0    0    0 -0.00000000000E+00 -0.00000000000E+00 -0.45593999997E+02  0.45594000000E+02  0.51100000000E-03 0. -1.
    9900012    2    1    2    0    0 -0.28310625781E+02  0.30584058115E+02  0.12113917820E+02  0.47787272496E+02  0.20000006620E+02 0.  0.
         12    1    1    2    0    0  0.28310625781E+02 -0.30584058115E+02 -0.12113917820E+02  0.43400727504E+02  0.00000000000E+00 0. -1.
         11    1    3    3    0    0 -0.96793826668E+00  0.12263984630E+01 -0.19174435151E+01  0.24733676583E+01  0.51100000000E-03 0. -1.
        -11    1    3    3    0    0 -0.26055222932E+02  0.23299291369E+02  0.64824702735E+01  0.35549318438E+02  0.51100000000E-03 0.  1.
        -12    1    3    3    0    0 -0.12874645831E+01  0.60583682829E+01  0.75488910616E+01  0.97645864000E+01  0.00000000000E+00 0.  1.
</event>
<event>
 7    1  0.2647566E-010  0.4778727E+02  0.7816164E-02  0.1312668E+00
        -11   -1    0    0    0    0  0.00000000000E+00  0.00000000000E+00  0.45593999997E+02  0.45594000000E+02  0.51100000000E-03 0.  1.
         11   -1    0    0    0    0 -0.00000000000E+00 -0.00000000000E+00 -0.45593999997E+02  0.45594000000E+02  0.51100000000E-03 0. -1.
    9900012    2    1    2    0    0  0.18199261964E+01 -0.21587146325E+02  0.37607265727E+02  0.47787268978E+02  0.19999990578E+02 0.  0.
         12    1    1    2    0    0 -0.18199261964E+01  0.21587146325E+02 -0.37607265727E+02  0.43400731022E+02  0.00000000000E+00 0. -1.
         11    1    3    3    0    0  0.29780156658E+01 -0.13603380968E+01  0.30389714404E+01  0.44670398163E+01  0.51100000000E-03 0. -1.
        -11    1    3    3    0    0  0.71101277619E+01 -0.13913054364E+02  0.19058176595E+02  0.24644291305E+02  0.51100000000E-03 0.  1.
         12    1    3    3    0    0 -0.82682172313E+01 -0.63137538633E+01  0.15510117691E+02  0.18675937857E+02  0.00000000000E+00 0. -1.
</event>
<event>
 7    1  0.2647566E-010  0.4778727E+02  0.7816164E-02  0.1312668E+00
        -11   -1    0    0    0    0  0.00000000000E+00  0.00000000000E+00  0.45593999997E+02  0.45594000000E+02  0.51100000000E-03 0.  1.
         11   -1    0    0    0    0 -0.00000000000E+00 -0.00000000000E+00 -0.45593999997E+02  0.45594000000E+02  0.51100000000E-03 0. -1.
    9900012    2    1    2    0    0  0.91415572355E+01  0.42336445940E+02  0.27714344949E+01  0.47787267602E+02  0.19999984304E+02 0.  0.
         12    1    1    2    0    0 -0.91415572355E+01 -0.42336445940E+02 -0.27714344949E+01  0.43400732398E+02  0.00000000000E+00 0. -1.
         11    1    3    3    0    0 -0.23344404416E+01  0.41325893980E+01  0.30174804658E+00  0.47559393870E+01  0.51100000000E-03 0. -1.
        -11    1    3    3    0    0  0.40246399972E+01  0.21373520614E+01  0.41518713187E+01  0.61647414098E+01  0.51100000000E-03 0.  1.
         12    1    3    3    0    0  0.74513576799E+01  0.36066504481E+02 -0.16821848704E+01  0.36866586805E+02  0.00000000000E+00 0. -1.
</event>
<event>
 7    1  0.2647566E-010  0.4778727E+02  0.7816164E-02  0.1312668E+00
        -11   -1    0    0    0    0  0.00000000000E+00  0.00000000000E+00  0.45593999997E+02  0.45594000000E+02  0.51100000000E-03 0. -1.
         11   -1    0    0    0    0 -0.00000000000E+00 -0.00000000000E+00 -0.45593999997E+02  0.45594000000E+02  0.51100000000E-03 0.  1.
    9900012    2    1    2    0    0  0.21116454708E+02 -0.20030308567E+02 -0.32194806274E+02  0.47787268765E+02  0.19999989606E+02 0.  0.
         12    1    1    2    0    0 -0.21116454708E+02  0.20030308567E+02  0.32194806274E+02  0.43400731235E+02  0.00000000000E+00 0. -1.
         11    1    3    3    0    0  0.50511159362E+01  0.53763830510E+00 -0.49815665250E+01  0.71146913111E+01  0.51100000000E-03 0. -1.
        -11    1    3    3    0    0  0.92584030162E+01 -0.13712028731E+02 -0.26161704001E+02  0.30954361806E+02  0.51100000000E-03 0.  1.
        -12    1    3    3    0    0  0.68069357558E+01 -0.68559181410E+01 -0.10515357477E+01  0.97182156473E+01  0.00000000000E+00 0.  1.
</event>
<event>
 7    1  0.2647566E-010  0.4778728E+02  0.7816164E-02  0.1312668E+00
        -11   -1    0    0    0    0  0.00000000000E+00  0.00000000000E+00  0.45593999997E+02  0.45594000000E+02  0.51100000000E-03 0.  1.
         11   -1    0    0    0    0 -0.00000000000E+00 -0.00000000000E+00 -0.45593999997E+02  0.45594000000E+02  0.51100000000E-03 0. -1.
    9900012    2    1    2    0    0  0.22283368042E+02 -0.35967251492E+02  0.96659653807E+01  0.47787279293E+02  0.20000037607E+02 0.  0.
         12    1    1    2    0    0 -0.22283368042E+02  0.35967251492E+02 -0.96659653807E+01  0.43400720707E+02  0.00000000000E+00 0. -1.
         11    1    3    3    0    0 -0.24880495435E+01 -0.57418818895E+01  0.18877266960E+01  0.65362918007E+01  0.51100000000E-03 0. -1.
        -11    1    3    3    0    0  0.79438342490E+01 -0.12807529627E+02 -0.18588136868E+01  0.15185272678E+02  0.51100000000E-03 0.  1.
        -12    1    3    3    0    0  0.16827583337E+02 -0.17417839976E+02  0.96370523714E+01  0.26065714814E+02  0.00000000000E+00 0.  1.
</event>
<event>
 7    1  0.2647566E-010  0.4778727E+02  0.7816164E-02  0.1312668E+00
        -11   -1    0    0    0    0  0.00000000000E+00  0.00000000000E+00  0.45593999997E+02  0.45594000000E+02  0.51100000000E-03 0.  1.
         11   -1    0    0    0    0 -0.00000000000E+00 -0.00000000000E+00 -0.45593999997E+02  0.45594000000E+02  0.51100000000E-03 0. -1.
    9900012    2    1    2    0    0  0.26955896391E+02 -0.67107633338E+01  0.33346187774E+02  0.47787274962E+02  0.20000017862E+02 0.  0.
         12    1    1    2    0    0 -0.26955896391E+02  0.67107633338E+01 -0.33346187774E+02  0.43400725038E+02  0.00000000000E+00 0. -1.
         11    1    3    3    0    0  0.66422602482E+01 -0.63033542605E+01  0.29526181239E+01  0.96213226838E+01  0.51100000000E-03 0. -1.
        -11    1    3    3    0    0  0.55519873512E+01 -0.51556526730E+01  0.10130122733E+02  0.12650087149E+02  0.51100000000E-03 0.  1.
         12    1    3    3    0    0  0.14761648791E+02  0.47482435998E+01  0.20263446917E+02  0.25515865129E+02  0.00000000000E+00 0. -1.
</event>
<event>
 7    1  0.2647566E-010  0.4778726E+02  0.7816164E-02  0.1312668E+00
        -11   -1    0    0    0    0  0.00000000000E+00  0.00000000000E+00  0.45593999997E+02  0.45594000000E+02  0.51100000000E-03 0.  1.
         11   -1    0    0    0    0 -0.00000000000E+00 -0.00000000000E+00 -0.45593999997E+02  0.45594000000E+02  0.51100000000E-03 0. -1.
    9900012    2    1    2    0    0  0.36407320878E+01 -0.84346426490E+01  0.42417282784E+02  0.47787262615E+02  0.19999961566E+02 0.  0.
         12    1    1    2    0    0 -0.36407320878E+01  0.84346426490E+01 -0.42417282784E+02  0.43400737385E+02  0.00000000000E+00 0. -1.
         11    1    3    3    0    0 -0.49737975218E+01 -0.29592128738E+01  0.15597278732E+02  0.16636427102E+02  0.51100000000E-03 0. -1.
        -11    1    3    3    0    0 -0.20289446080E+01 -0.23413646261E+00  0.25666838119E+00  0.20584739552E+01  0.51100000000E-03 0.  1.
        -12    1    3    3    0    0  0.10643474218E+02 -0.52412933126E+01  0.26563335671E+02  0.29092361557E+02  0.00000000000E+00 0.  1.
</event>
<event>
 7    1  0.2647566E-010  0.4778727E+02  0.7816164E-02  0.1312668E+00
        -11   -1    0    0    0    0  0.00000000000E+00  0.00000000000E+00  0.45593999997E+02  0.45594000000E+02  0.51100000000E-03 0. -1.
         11   -1    0    0    0    0 -0.00000000000E+00 -0.00000000000E+00 -0.45593999997E+02  0.45594000000E+02  0.51100000000E-03 0.  1.
    9900012    2    1    2    0    0 -0.37551563853E+02 -0.26841562942E+01 -0.21593955636E+02  0.47787267716E+02  0.19999984822E+02 0.  0.
         12    1    1    2    0    0  0.37551563853E+02  0.26841562942E+01  0.21593955636E+02  0.43400732284E+02  0.00000000000E+00 0. -1.
         11    1    3    3    0    0 -0.32729065144E+01 -0.22022749717E+01 -0.29630716908E+01  0.49337334959E+01  0.51100000000E-03 0.  1.
        -11    1    3    3    0    0 -0.32535893897E+02 -0.20784819743E+00 -0.99918744903E+01  0.34036232879E+02  0.51100000000E-03 0. -1.
        -12    1    3    3    0    0 -0.17427634422E+01 -0.27403312506E+00 -0.86390094547E+01  0.88173013404E+01  0.00000000000E+00 0.  1.
</event>
<event>
 7    1  0.2647566E-010  0.4778725E+02  0.7816164E-02  0.1312668E+00
        -11   -1    0    0    0    0  0.00000000000E+00  0.00000000000E+00  0.45593999997E+02  0.45594000000E+02  0.51100000000E-03 0. -1.
         11   -1    0    0    0    0 -0.00000000000E+00 -0.00000000000E+00 -0.45593999997E+02  0.45594000000E+02  0.51100000000E-03 0.  1.
    9900012    2    1    2    0    0 -0.28805113817E+02 -0.19126122902E+02 -0.26231323588E+02  0.47787245439E+02  0.19999883255E+02 0.  0.
         12    1    1    2    0    0  0.28805113817E+02  0.19126122902E+02  0.26231323588E+02  0.43400754561E+02  0.00000000000E+00 0. -1.
         11    1    3    3    0    0 -0.60598605250E+01 -0.36784671616E+01 -0.70525933960E+01  0.99996051978E+01  0.51100000000E-03 0. -1.
        -11    1    3    3    0    0 -0.14761039113E+02 -0.68567068929E+01 -0.20284930440E+02  0.26007327973E+02  0.51100000000E-03 0.  1.
         12    1    3    3    0    0 -0.79842141789E+01 -0.85909488474E+01  0.11062002472E+01  0.11780312268E+02  0.00000000000E+00 0. -1.
</event>
<event>
 7    1  0.2647566E-010  0.4778727E+02  0.7816164E-02  0.1312668E+00
        -11   -1    0    0    0    0  0.00000000000E+00  0.00000000000E+00  0.45593999997E+02  0.45594000000E+02  0.51100000000E-03 0. -1.
         11   -1    0    0    0    0 -0.00000000000E+00 -0.00000000000E+00 -0.45593999997E+02  0.45594000000E+02  0.51100000000E-03 0.  1.
    9900012    2    1    2    0    0 -0.16667971648E+02  0.14370197844E+02 -0.37407216660E+02  0.47787265869E+02  0.19999976402E+02 0.  0.
         12    1    1    2    0    0  0.16667971648E+02 -0.14370197844E+02  0.37407216660E+02  0.43400734131E+02  0.00000000000E+00 0. -1.
         11    1    3    3    0    0  0.16656516863E+01 -0.25310307959E+01 -0.43050028841E+01  0.52643672481E+01  0.51100000000E-03 0. -1.
        -11    1    3    3    0    0 -0.47809242347E+01  0.35250900008E+01 -0.15469953650E+02  0.16571148489E+02  0.51100000000E-03 0.  1.
        -12    1    3    3    0    0 -0.13552699099E+02  0.13376138639E+02 -0.17632260126E+02  0.25951750132E+02  0.00000000000E+00 0.  1.
</event>
<event>
 7    1  0.2647566E-010  0.4778727E+02  0.7816164E-02  0.1312668E+00
        -11   -1    0    0    0    0  0.00000000000E+00  0.00000000000E+00  0.45593999997E+02  0.45594000000E+02  0.51100000000E-03 0. -1.
         11   -1    0    0    0    0 -0.00000000000E+00 -0.00000000000E+00 -0.45593999997E+02  0.45594000000E+02  0.51100000000E-03 0.  1.
    9900012    2    1    2    0    0  0.41373803190E+01 -0.68813861736E-01 -0.43203019223E+02  0.47787268194E+02  0.19999987005E+02 0.  0.
         12    1    1    2    0    0 -0.41373803190E+01  0.68813861736E-01  0.43203019223E+02  0.43400731806E+02  0.00000000000E+00 0. -1.
         11    1    3    3    0    0 -0.35274200088E+00 -0.58742719831E+01 -0.15271360914E+02  0.16366000204E+02  0.51100000000E-03 0. -1.
        -11    1    3    3    0    0 -0.42412131711E+01  0.15860112754E+01 -0.11228739292E+02  0.12107349309E+02  0.51100000000E-03 0.  1.
        -12    1    3    3    0    0  0.87313354910E+01  0.42194468460E+01 -0.16702919017E+02  0.19313918682E+02  0.00000000000E+00 0.  1.
</event>
<event>
 7    1  0.2647566E-010  0.4778727E+02  0.7816164E-02  0.1312668E+00
        -11   -1    0    0    0    0  0.00000000000E+00  0.00000000000E+00  0.45593999997E+02  0.45594000000E+02  0.51100000000E-03 0.  1.
         11   -1    0    0    0    0 -0.00000000000E+00 -0.00000000000E+00 -0.45593999997E+02  0.45594000000E+02  0.51100000000E-03 0. -1.
    9900012    2    1    2    0    0 -0.31157398610E+02  0.89804096096E+01  0.28847739428E+02  0.47787270570E+02  0.19999997839E+02 0.  0.
         12    1    1    2    0    0  0.31157398610E+02 -0.89804096096E+01 -0.28847739428E+02  0.43400729430E+02  0.00000000000E+00 0. -1.
         11    1    3    3    0    0 -0.33708492942E+00 -0.20903866765E+01  0.15677931676E+01  0.26346381885E+01  0.51100000000E-03 0. -1.
        -11    1    3    3    0    0 -0.15286200179E+02  0.83765024898E+01  0.55250927051E+01  0.18285523223E+02  0.51100000000E-03 0.  1.
         12    1    3    3    0    0 -0.15534113502E+02  0.26942937963E+01  0.21754853555E+02  0.26867109159E+02  0.00000000000E+00 0. -1.
</event>
<event>
 7    1  0.2647566E-010  0.4778727E+02  0.7816164E-02  0.1312668E+00
        -11   -1    0    0    0    0  0.00000000000E+00  0.00000000000E+00  0.45593999997E+02  0.45594000000E+02  0.51100000000E-03 0. -1.
         11   -1    0    0    0    0 -0.00000000000E+00 -0.00000000000E+00 -0.45593999997E+02  0.45594000000E+02  0.51100000000E-03 0.  1.
    9900012    2    1    2    0    0  0.38292870259E+02 -0.18462550365E+02 -0.87415103011E+01  0.47787266354E+02  0.19999978614E+02 0.  0.
         12    1    1    2    0    0 -0.38292870259E+02  0.18462550365E+02  0.87415103011E+01  0.43400733646E+02  0.00000000000E+00 0. -1.
         11    1    3    3    0    0  0.48978264195E+00 -0.26000724755E+01 -0.18660134542E+01  0.32376334546E+01  0.51100000000E-03 0. -1.
        -11    1    3    3    0    0  0.88131966848E+01 -0.38347196425E+01 -0.88990177226E+01  0.13098474233E+02  0.51100000000E-03 0.  1.
         12    1    3    3    0    0  0.28989890932E+02 -0.12027758247E+02  0.20235208757E+01  0.31451158666E+02  0.00000000000E+00 0. -1.
</event>
<event>
 7    1  0.2647566E-010  0.4778727E+02  0.7816164E-02  0.1312668E+00
        -11   -1    0    0    0    0  0.00000000000E+00  0.00000000000E+00  0.45593999997E+02  0.45594000000E+02  0.51100000000E-03 0.  1.
         11   -1    0    0    0    0 -0.00000000000E+00 -0.00000000000E+00 -0.45593999997E+02  0.45594000000E+02  0.51100000000E-03 0. -1.
    9900012    2    1    2    0    0  0.28436798445E+02  0.21178051135E+02  0.25029220101E+02  0.47787271727E+02  0.20000003114E+02 0.  0.
         12    1    1    2    0    0 -0.28436798445E+02 -0.21178051135E+02 -0.25029220101E+02  0.43400728273E+02  0.00000000000E+00 0. -1.
         11    1    3    3    0    0  0.22026534021E+02  0.86632005664E+01  0.16111015297E+02  0.28631871388E+02  0.51100000000E-03 0. -1.
        -11    1    3    3    0    0  0.39033378303E+01  0.23939748516E+01  0.72806255348E+01  0.86008528790E+01  0.51100000000E-03 0.  1.
        -12    1    3    3    0    0  0.25069265944E+01  0.10120875717E+02  0.16375792699E+01  0.10554547461E+02  0.00000000000E+00 0.  1.
</event>
<event>
 7    1  0.2647566E-010  0.4778726E+02  0.7816164E-02  0.1312668E+00
        -11   -1    0    0    0    0  0.00000000000E+00  0.00000000000E+00  0.45593999997E+02  0.45594000000E+02  0.51100000000E-03 0.  1.
         11   -1    0    0    0    0 -0.00000000000E+00 -0.00000000000E+00 -0.45593999997E+02  0.45594000000E+02  0.51100000000E-03 0. -1.
    9900012    2    1    2    0    0 -0.14979302530E+02  0.39732168943E+02  0.89777438971E+01  0.47787255321E+02  0.19999928312E+02 0.  0.
         12    1    1    2    0    0  0.14979302530E+02 -0.39732168943E+02 -0.89777438971E+01  0.43400744679E+02  0.00000000000E+00 0. -1.
         11    1    3    3    0    0 -0.57828255632E+01  0.13194740554E+02  0.83985154984E+01  0.16675650291E+02  0.51100000000E-03 0. -1.
        -11    1    3    3    0    0 -0.17681385921E+01  0.21448561795E+02  0.31426474391E+01  0.21749559774E+02  0.51100000000E-03 0.  1.
         12    1    3    3    0    0 -0.74283383746E+01  0.50888665940E+01 -0.25634190404E+01  0.93620452571E+01  0.00000000000E+00 0. -1.
</event>
<event>
 7    1  0.2647566E-010  0.4778727E+02  0.7816164E-02  0.1312668E+00
        -11   -1    0    0    0    0  0.00000000000E+00  0.00000000000E+00  0.45593999997E+02  0.45594000000E+02  0.51100000000E-03 0.  1.
         11   -1    0    0    0    0 -0.00000000000E+00 -0.00000000000E+00 -0.45593999997E+02  0.45594000000E+02  0.51100000000E-03 0. -1.
    9900012    2    1    2    0    0 -0.14361010295E+02  0.24039507101E+02  0.33158509521E+02  0.47787271066E+02  0.20000000098E+02 0.  0.
         12    1    1    2    0    0  0.14361010295E+02 -0.24039507101E+02 -0.33158509521E+02  0.43400728934E+02  0.00000000000E+00 0. -1.
         11    1    3    3    0    0  0.14601064917E+01 -0.20164677033E+00  0.10168890362E+02  0.10275159553E+02  0.51100000000E-03 0. -1.
        -11    1    3    3    0    0  0.43994088036E+00  0.68220380951E+00  0.23448258704E-01  0.81209611370E+00  0.51100000000E-03 0.  1.
        -12    1    3    3    0    0 -0.16261057667E+02  0.23558950062E+02  0.22966170900E+02  0.36700015399E+02  0.00000000000E+00 0.  1.
</event>
<event>
 7    1  0.2647566E-010  0.4778729E+02  0.7816164E-02  0.1312668E+00
        -11   -1    0    0    0    0  0.00000000000E+00  0.00000000000E+00  0.45593999997E+02  0.45594000000E+02  0.51100000000E-03 0.  1.
         11   -1    0    0    0    0 -0.00000000000E+00 -0.00000000000E+00 -0.45593999997E+02  0.45594000000E+02  0.51100000000E-03 0. -1.
    9900012    2    1    2    0    0 -0.12469076909E+01 -0.10605896379E+02  0.42066400775E+02  0.47787286976E+02  0.20000072638E+02 0.  0.
         12    1    1    2    0    0  0.12469076909E+01  0.10605896379E+02 -0.42066400775E+02  0.43400713024E+02  0.00000000000E+00 0. -1.
         11    1    3    3    0    0 -0.57793370176E+01 -0.56434921185E+01  0.15000120288E+02  0.17036823312E+02  0.51100000000E-03 0.  1.
        -11    1    3    3    0    0  0.16485909328E+01 -0.65299450924E+01  0.26594957886E+02  0.27434464095E+02  0.51100000000E-03 0. -1.
         12    1    3    3    0    0  0.28838383939E+01  0.15675408319E+01  0.47132260111E+00  0.33159995682E+01  0.00000000000E+00 0. -1.
</event>
<event>
 7    1  0.2647566E-010  0.4778727E+02  0.7816164E-02  0.1312668E+00
        -11   -1    0    0    0    0  0.00000000000E+00  0.00000000000E+00  0.45593999997E+02  0.45594000000E+02  0.51100000000E-03 0.  1.
         11   -1    0    0    0    0 -0.00000000000E+00 -0.00000000000E+00 -0.45593999997E+02  0.45594000000E+02  0.51100000000E-03 0. -1.
    9900012    2    1    2    0    0 -0.13109974307E+02 -0.40981741543E+02 -0.56788108211E+01  0.47787268917E+02  0.19999990300E+02 0.  0.
         12    1    1    2    0    0  0.13109974307E+02  0.40981741543E+02  0.56788108211E+01  0.43400731083E+02  0.00000000000E+00 0. -1.
         11    1    3    3    0    0 -0.11227757042E+02 -0.13759222295E+02 -0.29968518393E+01  0.18009992992E+02  0.51100000000E-03 0. -1.
        -11    1    3    3    0    0 -0.16844969955E+01 -0.18014370554E+01 -0.35709793736E+01  0.43398847381E+01  0.51100000000E-03 0.  1.
        -12    1    3    3    0    0 -0.19772026870E+00 -0.25421082192E+02  0.88902039188E+00  0.25437391186E+02  0.00000000000E+00 0.  1.
</event>
<event>
 7    1  0.2647566E-010  0.4778727E+02  0.7816164E-02  0.1312668E+00
        -11   -1    0    0    0    0  0.00000000000E+00  0.00000000000E+00  0.45593999997E+02  0.45594000000E+02  0.51100000000E-03 0.  1.
         11   -1    0    0    0    0 -0.00000000000E+00 -0.00000000000E+00 -0.45593999997E+02  0.45594000000E+02  0.51100000000E-03 0. -1.
    9900012    2    1    2    0    0 -0.34230768081E+02 -0.64753168940E+00  0.26673174109E+02  0.47787274226E+02  0.20000014504E+02 0.  0.
         12    1    1    2    0    0  0.34230768081E+02  0.64753168940E+00 -0.26673174109E+02  0.43400725774E+02  0.00000000000E+00 0. -1.
         11    1    3    3    0    0  0.10758452239E+01 -0.12223083166E-01  0.10259857078E+01  0.14866873522E+01  0.51100000000E-03 0. -1.
        -11    1    3    3    0    0 -0.36280980765E+02  0.13655088350E+01  0.23843790492E+02  0.43436166094E+02  0.51100000000E-03 0.  1.
         12    1    3    3    0    0  0.97436746047E+00 -0.20008174413E+01  0.18033979092E+01  0.28644207792E+01  0.00000000000E+00 0. -1.
</event>
<event>
 7    1  0.2647566E-010  0.4778727E+02  0.7816164E-02  0.1312668E+00
        -11   -1    0    0    0    0  0.00000000000E+00  0.00000000000E+00  0.45593999997E+02  0.45594000000E+02  0.51100000000E-03 0.  1.
         11   -1    0    0    0    0 -0.00000000000E+00 -0.00000000000E+00 -0.45593999997E+02  0.45594000000E+02  0.51100000000E-03 0. -1.
    9900012    2    1    2    0    0 -0.20706775016E+02 -0.75348286596E+01  0.37390895723E+02  0.47787271233E+02  0.20000000861E+02 0.  0.
         12    1    1    2    0    0  0.20706775016E+02  0.75348286596E+01 -0.37390895723E+02  0.43400728767E+02  0.00000000000E+00 0. -1.
         11    1    3    3    0    0 -0.54177541454E+01  0.16969003795E+00  0.57433989142E+01  0.78973087845E+01  0.51100000000E-03 0. -1.
        -11    1    3    3    0    0  0.17216239786E+01 -0.60741176317E+01  0.13826575170E+02  0.15199772213E+02  0.51100000000E-03 0.  1.
        -12    1    3    3    0    0 -0.17010644849E+02 -0.16304010659E+01  0.17820921639E+02  0.24690190236E+02  0.00000000000E+00 0.  1.
</event>
<event>
 7    1  0.2647566E-010  0.4778727E+02  0.7816164E-02  0.1312668E+00
        -11   -1    0    0    0    0  0.00000000000E+00  0.00000000000E+00  0.45593999997E+02  0.45594000000E+02  0.51100000000E-03 0. -1.
         11   -1    0    0    0    0 -0.00000000000E+00 -0.00000000000E+00 -0.45593999997E+02  0.45594000000E+02  0.51100000000E-03 0.  1.
    9900012    2    1    2    0    0  0.28641669822E+02  0.60501066707E+01 -0.32041756536E+02  0.47787271863E+02  0.20000003732E+02 0.  0.
         12    1    1    2    0    0 -0.28641669822E+02 -0.60501066707E+01  0.32041756536E+02  0.43400728137E+02  0.00000000000E+00 0. -1.
         11    1    3    3    0    0 -0.97700689682E+00  0.16472258634E+01 -0.85167185221E+00  0.20960058985E+01  0.51100000000E-03 0. -1.
        -11    1    3    3    0    0  0.16732460159E+02  0.69303395298E+01 -0.25740956499E+02  0.31473825168E+02  0.51100000000E-03 0.  1.
         12    1    3    3    0    0  0.12886216560E+02 -0.25274587226E+01 -0.54491281846E+01  0.14217440797E+02  0.00000000000E+00 0. -1.
</event>
<event>
 7    1  0.2647566E-010  0.4778728E+02  0.7816164E-02  0.1312668E+00
        -11   -1    0    0    0    0  0.00000000000E+00  0.00000000000E+00  0.45593999997E+02  0.45594000000E+02  0.51100000000E-03 0. -1.
         11   -1    0    0    0    0 -0.00000000000E+00 -0.00000000000E+00 -0.45593999997E+02  0.45594000000E+02  0.51100000000E-03 0.  1.
    9900012    2    1    2    0    0  0.16914591519E+01  0.41070945911E+02  0.13926204236E+02  0.47787276544E+02  0.20000025077E+02 0.  0.
         12    1    1    2    0    0 -0.16914591519E+01 -0.41070945911E+02 -0.13926204236E+02  0.43400723456E+02  0.00000000000E+00 0. -1.
         11    1    3    3    0    0  0.40807754292E+01  0.21849607460E+02 -0.79547763672E+00  0.22241646953E+02  0.51100000000E-03 0. -1.
        -11    1    3    3    0    0 -0.27212428949E+00  0.22044869093E+01 -0.85402403623E+00  0.23797418931E+01  0.51100000000E-03 0.  1.
        -12    1    3    3    0    0 -0.21171919878E+01  0.17016851542E+02  0.15575705909E+02  0.23165887698E+02  0.00000000000E+00 0.  1.
</event>
<event>
 7    1  0.2647566E-010  0.4778727E+02  0.7816164E-02  0.1312668E+00
        -11   -1    0    0    0    0  0.00000000000E+00  0.00000000000E+00  0.45593999997E+02  0.45594000000E+02  0.51100000000E-03 0.  1.
         11   -1    0    0    0    0 -0.00000000000E+00 -0.00000000000E+00 -0.45593999997E+02  0.45594000000E+02  0.51100000000E-03 0. -1.
    9900012    2    1    2    0    0  0.40823049128E+02  0.48199734964E+01  0.13923723175E+02  0.47787267845E+02  0.19999985410E+02 0.  0.
         12    1    1    2    0    0 -0.40823049128E+02 -0.48199734964E+01 -0.13923723175E+02  0.43400732155E+02  0.00000000000E+00 0. -1.
         11    1    3    3    0    0  0.17161558388E+02  0.80903556172E+01  0.46593352138E+01  0.19536692279E+02  0.51100000000E-03 0. -1.
        -11    1    3    3    0    0  0.10107427223E+02  0.42885580608E+01  0.55050118541E+01  0.12282384584E+02  0.51100000000E-03 0.  1.
         12    1    3    3    0    0  0.13554063517E+02 -0.75589401817E+01  0.37593761071E+01  0.15968190981E+02  0.00000000000E+00 0. -1.
</event>
<event>
 7    1  0.2647566E-010  0.4778727E+02  0.7816164E-02  0.1312668E+00
        -11   -1    0    0    0    0  0.00000000000E+00  0.00000000000E+00  0.45593999997E+02  0.45594000000E+02  0.51100000000E-03 0.  1.
         11   -1    0    0    0    0 -0.00000000000E+00 -0.00000000000E+00 -0.45593999997E+02  0.45594000000E+02  0.51100000000E-03 0. -1.
    9900012    2    1    2    0    0 -0.16833177984E+02  0.32144929789E+02  0.23811146462E+02  0.47787273186E+02  0.20000009765E+02 0.  0.
         12    1    1    2    0    0  0.16833177984E+02 -0.32144929789E+02 -0.23811146462E+02  0.43400726814E+02  0.00000000000E+00 0. -1.
         11    1    3    3    0    0  0.12456097746E+01 -0.31446176673E+00  0.34598465192E+01  0.36906595767E+01  0.51100000000E-03 0. -1.
        -11    1    3    3    0    0 -0.17638643304E+02  0.21818114487E+02  0.11794111045E+02  0.30434403444E+02  0.51100000000E-03 0.  1.
         12    1    3    3    0    0 -0.44014445445E+00  0.10641277069E+02  0.85571888972E+01  0.13662210166E+02  0.00000000000E+00 0. -1.
</event>
<event>
 7    1  0.2647566E-010  0.4778727E+02  0.7816164E-02  0.1312668E+00
        -11   -1    0    0    0    0  0.00000000000E+00  0.00000000000E+00  0.45593999997E+02  0.45594000000E+02  0.51100000000E-03 0.  1.
         11   -1    0    0    0    0 -0.00000000000E+00 -0.00000000000E+00 -0.45593999997E+02  0.45594000000E+02  0.51100000000E-03 0. -1.
    9900012    2    1    2    0    0  0.79841317831E+01  0.30089916011E+02  0.30240269363E+02  0.47787270778E+02  0.19999998784E+02 0.  0.
         12    1    1    2    0    0 -0.79841317831E+01 -0.30089916011E+02 -0.30240269363E+02  0.43400729222E+02  0.00000000000E+00 0. -1.
         11    1    3    3    0    0  0.33407256955E+01  0.10545587488E+02  0.17338700735E+02  0.20566973698E+02  0.51100000000E-03 0. -1.
        -11    1    3    3    0    0  0.47817433790E+01  0.65999212450E+01  0.11645801359E+02  0.14214384255E+02  0.51100000000E-03 0.  1.
        -12    1    3    3    0    0 -0.13833729145E+00  0.12944407278E+02  0.12557672682E+01  0.13005912825E+02  0.00000000000E+00 0.  1.
</event>
<event>
 7    1  0.2647566E-010  0.4778727E+02  0.7816164E-02  0.1312668E+00
        -11   -1    0    0    0    0  0.00000000000E+00  0.00000000000E+00  0.45593999997E+02  0.45594000000E+02  0.51100000000E-03 0.  1.
         11   -1    0    0    0    0 -0.00000000000E+00 -0.00000000000E+00 -0.45593999997E+02  0.45594000000E+02  0.51100000000E-03 0. -1.
    9900012    2    1    2    0    0  0.18591011012E+02 -0.15875703610E+02  0.35860280778E+02  0.47787269671E+02  0.19999993740E+02 0.  0.
         12    1    1    2    0    0 -0.18591011012E+02  0.15875703610E+02 -0.35860280778E+02  0.43400730329E+02  0.00000000000E+00 0. -1.
         11    1    3    3    0    0  0.63254920383E+01 -0.13824102061E+01  0.12107189746E+02  0.13729783367E+02  0.51100000000E-03 0. -1.
        -11    1    3    3    0    0  0.65146361064E+01  0.18106990022E+01  0.94468215143E+01  0.11617295359E+02  0.51100000000E-03 0.  1.
         12    1    3    3    0    0  0.57508828675E+01 -0.16303992406E+02  0.14306269517E+02  0.22440190945E+02  0.00000000000E+00 0. -1.
</event>
<event>
 7    1  0.2647566E-010  0.4778726E+02  0.7816164E-02  0.1312668E+00
        -11   -1    0    0    0    0  0.00000000000E+00  0.00000000000E+00  0.45593999997E+02  0.45594000000E+02  0.51100000000E-03 0.  1.
         11   -1    0    0    0    0 -0.00000000000E+00 -0.00000000000E+00 -0.45593999997E+02  0.45594000000E+02  0.51100000000E-03 0. -1.
    9900012    2    1    2    0    0  0.10216489658E+01 -0.37320056408E+02 -0.22131281523E+02  0.47787262694E+02  0.19999961926E+02 0.  0.
         12    1    1    2    0    0 -0.10216489658E+01  0.37320056408E+02  0.22131281523E+02  0.43400737306E+02  0.00000000000E+00 0. -1.
         11    1    3    3    0    0 -0.73234643681E+01 -0.12793511153E+02 -0.84044115582E+01  0.16968830009E+02  0.51100000000E-03 0. -1.
        -11    1    3    3    0    0  0.30325900796E+01 -0.34517711855E+01  0.81741540328E+00  0.46668506630E+01  0.51100000000E-03 0.  1.
        -12    1    3    3    0    0  0.53125232543E+01 -0.21074774069E+02 -0.14544285368E+02  0.26151582022E+02  0.00000000000E+00 0.  1.
</event>
<event>
 7    1  0.2647566E-010  0.4778727E+02  0.7816164E-02  0.1312668E+00
        -11   -1    0    0    0    0  0.00000000000E+00  0.00000000000E+00  0.45593999997E+02  0.45594000000E+02  0.51100000000E-03 0.  1.
         11   -1    0    0    0    0 -0.00000000000E+00 -0.00000000000E+00 -0.45593999997E+02  0.45594000000E+02  0.51100000000E-03 0. -1.
    9900012    2    1    2    0    0 -0.27840715237E+02 -0.13491178598E+02  0.30438557221E+02  0.47787273157E+02  0.20000009630E+02 0.  0.
         12    1    1    2    0    0  0.27840715237E+02  0.13491178598E+02 -0.30438557221E+02  0.43400726843E+02  0.00000000000E+00 0. -1.
         11    1    3    3    0    0 -0.11490999928E+02 -0.53443304654E+00  0.11787194344E+01  0.11563653306E+02  0.51100000000E-03 0. -1.
        -11    1    3    3    0    0 -0.40540658018E+01 -0.94154534413E+00  0.58408303472E+01  0.71719771728E+01  0.51100000000E-03 0.  1.
        -12    1    3    3    0    0 -0.12295649507E+02 -0.12015200208E+02  0.23419007439E+02  0.29051642678E+02  0.00000000000E+00 0.  1.
</event>
<event>
 7    1  0.2647566E-010  0.4778727E+02  0.7816164E-02  0.1312668E+00
        -11   -1    0    0    0    0  0.00000000000E+00  0.00000000000E+00  0.45593999997E+02  0.45594000000E+02  0.51100000000E-03 0.  1.
         11   -1    0    0    0    0 -0.00000000000E+00 -0.00000000000E+00 -0.45593999997E+02  0.45594000000E+02  0.51100000000E-03 0. -1.
    9900012    2    1    2    0    0  0.33425393885E+02  0.22645599596E+02  0.15923036828E+02  0.47787271443E+02  0.20000001818E+02 0.  0.
         12    1    1    2    0    0 -0.33425393885E+02 -0.22645599596E+02 -0.15923036828E+02  0.43400728557E+02  0.00000000000E+00 0. -1.
         11    1    3    3    0    0 -0.60663439623E+00  0.25559795016E+01  0.20191543453E+00  0.26347308415E+01  0.51100000000E-03 0. -1.
        -11    1    3    3    0    0  0.54000115460E+01  0.96317248726E+01  0.82065283172E+01  0.13757810727E+02  0.51100000000E-03 0.  1.
         12    1    3    3    0    0  0.28632016735E+02  0.10457895222E+02  0.75145930763E+01  0.31394729875E+02  0.00000000000E+00 0. -1.
</event>
<event>
 7    1  0.2647566E-010  0.4778727E+02  0.7816164E-02  0.1312668E+00
        -11   -1    0    0    0    0  0.00000000000E+00  0.00000000000E+00  0.45593999997E+02  0.45594000000E+02  0.51100000000E-03 0. -1.
         11   -1    0    0    0    0 -0.00000000000E+00 -0.00000000000E+00 -0.45593999997E+02  0.45594000000E+02  0.51100000000E-03 0.  1.
    9900012    2    1    2    0    0  0.42532183341E+02  0.65031600606E+01 -0.56873200216E+01  0.47787270518E+02  0.19999997601E+02 0.  0.
         12    1    1    2    0    0 -0.42532183341E+02 -0.65031600606E+01  0.56873200216E+01  0.43400729482E+02  0.00000000000E+00 0. -1.
         11    1    3    3    0    0  0.24556885810E+02  0.29906380991E+00 -0.10635603331E+02  0.26762775236E+02  0.51100000000E-03 0. -1.
        -11    1    3    3    0    0  0.99506212095E+01  0.44968575445E+00 -0.41235868328E-01  0.99608624321E+01  0.51100000000E-03 0.  1.
         12    1    3    3    0    0  0.80246763211E+01  0.57544104963E+01  0.49895191776E+01  0.11063632850E+02  0.00000000000E+00 0. -1.
</event>
<event>
 7    1  0.2647566E-010  0.4778728E+02  0.7816164E-02  0.1312668E+00
        -11   -1    0    0    0    0  0.00000000000E+00  0.00000000000E+00  0.45593999997E+02  0.45594000000E+02  0.51100000000E-03 0.  1.
         11   -1    0    0    0    0 -0.00000000000E+00 -0.00000000000E+00 -0.45593999997E+02  0.45594000000E+02  0.51100000000E-03 0. -1.
    9900012    2    1    2    0    0  0.12626365410E+02 -0.40271349728E+02  0.10120079216E+02  0.47787277475E+02  0.20000029320E+02 0.  0.
         12    1    1    2    0    0 -0.12626365410E+02  0.40271349728E+02 -0.10120079216E+02  0.43400722525E+02  0.00000000000E+00 0. -1.
         11    1    3    3    0    0  0.10994469987E+01  0.10396733170E+01 -0.34037419022E+00  0.15509865117E+01  0.51100000000E-03 0. -1.
        -11    1    3    3    0    0  0.12617774254E+00 -0.17710422110E+01 -0.25236781050E+01  0.30856867590E+01  0.51100000000E-03 0.  1.
        -12    1    3    3    0    0  0.11400740668E+02 -0.39539980834E+02  0.12984131511E+02  0.43150604204E+02  0.00000000000E+00 0.  1.
</event>
<event>
 7    1  0.2647566E-010  0.4778727E+02  0.7816164E-02  0.1312668E+00
        -11   -1    0    0    0    0  0.00000000000E+00  0.00000000000E+00  0.45593999997E+02  0.45594000000E+02  0.51100000000E-03 0. -1.
         11   -1    0    0    0    0 -0.00000000000E+00 -0.00000000000E+00 -0.45593999997E+02  0.45594000000E+02  0.51100000000E-03 0.  1.
    9900012    2    1    2    0    0  0.10902083026E+02  0.20524966606E+02 -0.36653696393E+02  0.47787272727E+02  0.20000007673E+02 0.  0.
         12    1    1    2    0    0 -0.10902083026E+02 -0.20524966606E+02  0.36653696393E+02  0.43400727273E+02  0.00000000000E+00 0. -1.
         11    1    3    3    0    0  0.53460822080E+01  0.86988919276E+01 -0.12296549772E+02  0.15983005109E+02  0.51100000000E-03 0. -1.
        -11    1    3    3    0    0 -0.67239147492E+00  0.87457335994E+01 -0.23144303482E+02  0.24750732321E+02  0.51100000000E-03 0.  1.
         12    1    3    3    0    0  0.62283922931E+01  0.30803410792E+01 -0.12128431392E+01  0.70535352981E+01  0.00000000000E+00 0. -1.
</event>
<event>
 7    1  0.2647566E-010  0.4778728E+02  0.7816164E-02  0.1312668E+00
        -11   -1    0    0    0    0  0.00000000000E+00  0.00000000000E+00  0.45593999997E+02  0.45594000000E+02  0.51100000000E-03 0.  1.
         11   -1    0    0    0    0 -0.00000000000E+00 -0.00000000000E+00 -0.45593999997E+02  0.45594000000E+02  0.51100000000E-03 0. -1.
    9900012    2    1    2    0    0  0.42143205981E+02  0.10093245621E+02  0.23872412199E+01  0.47787281824E+02  0.20000049148E+02 0.  0.
         12    1    1    2    0    0 -0.42143205981E+02 -0.10093245621E+02 -0.23872412199E+01  0.43400718176E+02  0.00000000000E+00 0. -1.
         11    1    3    3    0    0  0.36200516366E+02  0.13667898186E+02  0.20965893117E+01  0.38751574329E+02  0.51100000000E-03 0. -1.
        -11    1    3    3    0    0  0.63042139846E+01 -0.16534603604E+01  0.15642446452E+01  0.67025298730E+01  0.51100000000E-03 0.  1.
         12    1    3    3    0    0 -0.36152436968E+00 -0.19211922037E+01 -0.12735927370E+01  0.23331776214E+01  0.00000000000E+00 0. -1.
</event>
<event>
 7    1  0.2647566E-010  0.4778728E+02  0.7816164E-02  0.1312668E+00
        -11   -1    0    0    0    0  0.00000000000E+00  0.00000000000E+00  0.45593999997E+02  0.45594000000E+02  0.51100000000E-03 0.  1.
         11   -1    0    0    0    0 -0.00000000000E+00 -0.00000000000E+00 -0.45593999997E+02  0.45594000000E+02  0.51100000000E-03 0. -1.
    9900012    2    1    2    0    0 -0.19501538745E+02  0.22414920969E+02  0.31636751656E+02  0.47787277071E+02  0.20000027475E+02 0.  0.
         12    1    1    2    0    0  0.19501538745E+02 -0.22414920969E+02 -0.31636751656E+02  0.43400722929E+02  0.00000000000E+00 0. -1.
         11    1    3    3    0    0 -0.70064261904E+01  0.76164167349E+01  0.27069064386E+01  0.10697062895E+02  0.51100000000E-03 0. -1.
        -11    1    3    3    0    0  0.15846165160E+01 -0.10200482071E+01  0.36873949828E+01  0.41410614422E+01  0.51100000000E-03 0.  1.
        -12    1    3    3    0    0 -0.14079729071E+02  0.15818552441E+02  0.25242450234E+02  0.32949152734E+02  0.00000000000E+00 0.  1.
</event>
<event>
 7    1  0.2647566E-010  0.4778727E+02  0.7816164E-02  0.1312668E+00
        -11   -1    0    0    0    0  0.00000000000E+00  0.00000000000E+00  0.45593999997E+02  0.45594000000E+02  0.51100000000E-03 0.  1.
         11   -1    0    0    0    0 -0.00000000000E+00 -0.00000000000E+00 -0.45593999997E+02  0.45594000000E+02  0.51100000000E-03 0. -1.
    9900012    2    1    2    0    0  0.61181258582E-01 -0.35437275943E+02  0.25056316459E+02  0.47787271159E+02  0.20000000523E+02 0.  0.
         12    1    1    2    0    0 -0.61181258582E-01  0.35437275943E+02 -0.25056316459E+02  0.43400728841E+02  0.00000000000E+00 0. -1.
         11    1    3    3    0    0 -0.41168167487E+00 -0.39023151139E+01 -0.50603803897E+00  0.39564655701E+01  0.51100000000E-03 0. -1.
        -11    1    3    3    0    0  0.45998773060E+01 -0.30593876795E+02  0.24507255121E+02  0.39468338227E+02  0.51100000000E-03 0.  1.
        -12    1    3    3    0    0 -0.41270143725E+01 -0.94108403420E+00  0.10550993776E+01  0.43624673623E+01  0.00000000000E+00 0.  1.
</event>
<event>
 7    1  0.2647566E-010  0.4778727E+02  0.7816164E-02  0.1312668E+00
        -11   -1    0    0    0    0  0.00000000000E+00  0.00000000000E+00  0.45593999997E+02  0.45594000000E+02  0.51100000000E-03 0.  1.
         11   -1    0    0    0    0 -0.00000000000E+00 -0.00000000000E+00 -0.45593999997E+02  0.45594000000E+02  0.51100000000E-03 0. -1.
    9900012    2    1    2    0    0  0.60497493380E+01 -0.15440900332E+02  0.40107385434E+02  0.47787271475E+02  0.20000001965E+02 0.  0.
         12    1    1    2    0    0 -0.60497493380E+01  0.15440900332E+02 -0.40107385434E+02  0.43400728525E+02  0.00000000000E+00 0. -1.
         11    1    3    3    0    0  0.19769516955E+01 -0.50837855576E+01  0.11697163554E+01  0.55786602527E+01  0.51100000000E-03 0. -1.
        -11    1    3    3    0    0  0.36477910048E+01 -0.39352592160E+01  0.40250288119E+01  0.67077195461E+01  0.51100000000E-03 0.  1.
         12    1    3    3    0    0  0.42500663762E+00 -0.64218555586E+01  0.34912640267E+02  0.35500891677E+02  0.00000000000E+00 0. -1.
</event>
<event>
 7    1  0.2647566E-010  0.4778727E+02  0.7816164E-02  0.1312668E+00
        -11   -1    0    0    0    0  0.00000000000E+00  0.00000000000E+00  0.45593999997E+02  0.45594000000E+02  0.51100000000E-03 0.  1.
         11   -1    0    0    0    0 -0.00000000000E+00 -0.00000000000E+00 -0.45593999997E+02  0.45594000000E+02  0.51100000000E-03 0. -1.
    9900012    2    1    2    0    0 -0.23488864185E+02  0.29735265439E+02  0.21159167399E+02  0.47787272858E+02  0.20000008268E+02 0.  0.
         12    1    1    2    0    0  0.23488864185E+02 -0.29735265439E+02 -0.21159167399E+02  0.43400727142E+02  0.00000000000E+00 0. -1.
         11    1    3    3    0    0  0.88207949706E+00  0.95610598504E+00  0.11316783659E+01  0.17242096969E+01  0.51100000000E-03 0. -1.
        -11    1    3    3    0    0 -0.20689442640E+02  0.19937602417E+02  0.22118545996E+02  0.36260048319E+02  0.51100000000E-03 0.  1.
        -12    1    3    3    0    0 -0.36815010424E+01  0.88415570369E+01 -0.20910569630E+01  0.98030148416E+01  0.00000000000E+00 0.  1.
</event>
<event>
 7    1  0.2647566E-010  0.4778729E+02  0.7816164E-02  0.1312668E+00
        -11   -1    0    0    0    0  0.00000000000E+00  0.00000000000E+00  0.45593999997E+02  0.45594000000E+02  0.51100000000E-03 0. -1.
         11   -1    0    0    0    0 -0.00000000000E+00 -0.00000000000E+00 -0.45593999997E+02  0.45594000000E+02  0.51100000000E-03 0.  1.
    9900012    2    1    2    0    0  0.19298511688E+01 -0.25855919998E+02 -0.34804726708E+02  0.47787286576E+02  0.20000070815E+02 0.  0.
         12    1    1    2    0    0 -0.19298511688E+01  0.25855919998E+02  0.34804726708E+02  0.43400713424E+02  0.00000000000E+00 0. -1.
         11    1    3    3    0    0 -0.51997904181E+01 -0.45856418912E+01 -0.46282640606E+01  0.83358719053E+01  0.51100000000E-03 0. -1.
        -11    1    3    3    0    0 -0.21205298990E+01 -0.12444142318E+02 -0.14660919866E+02  0.19346728320E+02  0.51100000000E-03 0.  1.
        -12    1    3    3    0    0  0.92501714859E+01 -0.88261357882E+01 -0.15515542781E+02  0.20104686351E+02  0.00000000000E+00 0.  1.
</event>
<event>
 7    1  0.2647566E-010  0.4778727E+02  0.7816164E-02  0.1312668E+00
        -11   -1    0    0    0    0  0.00000000000E+00  0.00000000000E+00  0.45593999997E+02  0.45594000000E+02  0.51100000000E-03 0.  1.
         11   -1    0    0    0    0 -0.00000000000E+00 -0.00000000000E+00 -0.45593999997E+02  0.45594000000E+02  0.51100000000E-03 0. -1.
    9900012    2    1    2    0    0  0.44431682329E+01  0.49026898836E+01  0.42893419148E+02  0.47787268229E+02  0.19999987166E+02 0.  0.
         12    1    1    2    0    0 -0.44431682329E+01 -0.49026898836E+01 -0.42893419148E+02  0.43400731771E+02  0.00000000000E+00 0. -1.
         11    1    3    3    0    0 -0.29789213156E+00  0.24977477772E-01  0.16648499365E+01  0.16914754413E+01  0.51100000000E-03 0. -1.
        -11    1    3    3    0    0 -0.58129439785E+01  0.60371482980E+01  0.27450532935E+02  0.28701380384E+02  0.51100000000E-03 0.  1.
        -12    1    3    3    0    0  0.10554004343E+02 -0.11594358922E+01  0.13778036276E+02  0.17394412404E+02  0.00000000000E+00 0.  1.
</event>
<event>
 7    1  0.2647566E-010  0.4778728E+02  0.7816164E-02  0.1312668E+00
        -11   -1    0    0    0    0  0.00000000000E+00  0.00000000000E+00  0.45593999997E+02  0.45594000000E+02  0.51100000000E-03 0. -1.
         11   -1    0    0    0    0 -0.00000000000E+00 -0.00000000000E+00 -0.45593999997E+02  0.45594000000E+02  0.51100000000E-03 0.  1.
    9900012    2    1    2    0    0 -0.39650675320E+02  0.17528124954E+02  0.20521646492E+01  0.47787278836E+02  0.20000035527E+02 0.  0.
         12    1    1    2    0    0  0.39650675320E+02 -0.17528124954E+02 -0.20521646492E+01  0.43400721164E+02  0.00000000000E+00 0. -1.
         11    1    3    3    0    0 -0.69083087325E+01  0.53735131438E+01  0.28176931266E+00  0.87566413228E+01  0.51100000000E-03 0. -1.
        -11    1    3    3    0    0 -0.34499287821E+01 -0.11536851582E+01 -0.49692582017E+01  0.61584515410E+01  0.51100000000E-03 0.  1.
        -12    1    3    3    0    0 -0.29292437806E+02  0.13308296968E+02  0.67396535383E+01  0.32872185973E+02  0.00000000000E+00 0.  1.
</event>
<event>
 7    1  0.2647566E-010  0.4778727E+02  0.7816164E-02  0.1312668E+00
        -11   -1    0    0    0    0  0.00000000000E+00  0.00000000000E+00  0.45593999997E+02  0.45594000000E+02  0.51100000000E-03 0. -1.
         11   -1    0    0    0    0 -0.00000000000E+00 -0.00000000000E+00 -0.45593999997E+02  0.45594000000E+02  0.51100000000E-03 0.  1.
    9900012    2    1    2    0    0  0.10298541584E+02 -0.15229781459E+02 -0.39314335723E+02  0.47787271948E+02  0.20000004121E+02 0.  0.
         12    1    1    2    0    0 -0.10298541584E+02  0.15229781459E+02  0.39314335723E+02  0.43400728052E+02  0.00000000000E+00 0. -1.
         11    1    3    3    0    0  0.10975892176E+01 -0.37319481475E+01 -0.14472743471E+02  0.14986408606E+02  0.51100000000E-03 0. -1.
        -11    1    3    3    0    0 -0.34667146269E+01 -0.13153797078E+01 -0.81977141855E+00  0.37974148470E+01  0.51100000000E-03 0.  1.
         12    1    3    3    0    0  0.12667666993E+02 -0.10182453604E+02 -0.24021820834E+02  0.29003448495E+02  0.00000000000E+00 0. -1.
</event>
<event>
 7    1  0.2647566E-010  0.4778727E+02  0.7816164E-02  0.1312668E+00
        -11   -1    0    0    0    0  0.00000000000E+00  0.00000000000E+00  0.45593999997E+02  0.45594000000E+02  0.51100000000E-03 0.  1.
         11   -1    0    0    0    0 -0.00000000000E+00 -0.00000000000E+00 -0.45593999997E+02  0.45594000000E+02  0.51100000000E-03 0. -1.
    9900012    2    1    2    0    0  0.19803797430E+01  0.21339928073E+02  0.37740014033E+02  0.47787273125E+02  0.20000009486E+02 0.  0.
         12    1    1    2    0    0 -0.19803797430E+01 -0.21339928073E+02 -0.37740014033E+02  0.43400726875E+02  0.00000000000E+00 0. -1.
         11    1    3    3    0    0 -0.18109761095E+01  0.58901622513E+00  0.47344176679E+00  0.19623256484E+01  0.51100000000E-03 0. -1.
        -11    1    3    3    0    0 -0.13675588773E+01  0.18855479976E+02  0.35195653195E+02  0.39951637595E+02  0.51100000000E-03 0.  1.
        -12    1    3    3    0    0  0.51589147298E+01  0.18954318715E+01  0.20709190706E+01  0.58733098816E+01  0.00000000000E+00 0.  1.
</event>
<event>
 7    1  0.2647566E-010  0.4778727E+02  0.7816164E-02  0.1312668E+00
        -11   -1    0    0    0    0  0.00000000000E+00  0.00000000000E+00  0.45593999997E+02  0.45594000000E+02  0.51100000000E-03 0.  1.
         11   -1    0    0    0    0 -0.00000000000E+00 -0.00000000000E+00 -0.45593999997E+02  0.45594000000E+02  0.51100000000E-03 0. -1.
    9900012    2    1    2    0    0  0.31408150986E+02 -0.26875961743E+02  0.13222491834E+02  0.47787267768E+02  0.19999985061E+02 0.  0.
         12    1    1    2    0    0 -0.31408150986E+02  0.26875961743E+02 -0.13222491834E+02  0.43400732232E+02  0.00000000000E+00 0. -1.
         11    1    3    3    0    0  0.11315888028E+02 -0.10458708813E+02 -0.42759712463E+01  0.15991180140E+02  0.51100000000E-03 0. -1.
        -11    1    3    3    0    0  0.10357511661E+02 -0.77576768703E+01  0.54202717587E+01  0.14029930308E+02  0.51100000000E-03 0.  1.
         12    1    3    3    0    0  0.97347512964E+01 -0.86595760601E+01  0.12078191321E+02  0.17766157320E+02  0.00000000000E+00 0. -1.
</event>
<event>
 7    1  0.2647566E-010  0.4778727E+02  0.7816164E-02  0.1312668E+00
        -11   -1    0    0    0    0  0.00000000000E+00  0.00000000000E+00  0.45593999997E+02  0.45594000000E+02  0.51100000000E-03 0.  1.
         11   -1    0    0    0    0 -0.00000000000E+00 -0.00000000000E+00 -0.45593999997E+02  0.45594000000E+02  0.51100000000E-03 0. -1.
    9900012    2    1    2    0    0  0.11246306600E+02  0.33279261903E+02  0.25487928228E+02  0.47787272238E+02  0.20000005441E+02 0.  0.
         12    1    1    2    0    0 -0.11246306600E+02 -0.33279261903E+02 -0.25487928228E+02  0.43400727762E+02  0.00000000000E+00 0. -1.
         11    1    3    3    0    0  0.98724842582E+01  0.15111912820E+02  0.10438033496E+02  0.20851580229E+02  0.51100000000E-03 0. -1.
        -11    1    3    3    0    0  0.11934075170E+01  0.16909048645E+02  0.62844646055E+01  0.18078568616E+02  0.51100000000E-03 0.  1.
        -12    1    3    3    0    0  0.18041482439E+00  0.12583004384E+01  0.87654301263E+01  0.88571233931E+01  0.00000000000E+00 0.  1.
</event>
<event>
 7    1  0.2647566E-010  0.4778727E+02  0.7816164E-02  0.1312668E+00
        -11   -1    0    0    0    0  0.00000000000E+00  0.00000000000E+00  0.45593999997E+02  0.45594000000E+02  0.51100000000E-03 0.  1.
         11   -1    0    0    0    0 -0.00000000000E+00 -0.00000000000E+00 -0.45593999997E+02  0.45594000000E+02  0.51100000000E-03 0. -1.
    9900012    2    1    2    0    0 -0.11144303282E+02 -0.21149242652E+01  0.41892183308E+02  0.47787269331E+02  0.19999992187E+02 0.  0.
         12    1    1    2    0    0  0.11144303282E+02  0.21149242652E+01 -0.41892183308E+02  0.43400730669E+02  0.00000000000E+00 0. -1.
         11    1    3    3    0    0 -0.37923559969E+01  0.13576567504E+01  0.18374749970E+01  0.44273593128E+01  0.51100000000E-03 0. -1.
        -11    1    3    3    0    0 -0.12533298995E+01 -0.18462807941E+01 -0.52487581950E+00  0.22923968885E+01  0.51100000000E-03 0.  1.
        -12    1    3    3    0    0 -0.60986173854E+01 -0.16263002215E+01  0.40579584131E+02  0.41067513130E+02  0.00000000000E+00 0.  1.
</event>
<event>
 7    1  0.2647566E-010  0.4778727E+02  0.7816164E-02  0.1312668E+00
        -11   -1    0    0    0    0  0.00000000000E+00  0.00000000000E+00  0.45593999997E+02  0.45594000000E+02  0.51100000000E-03 0. -1.
         11   -1    0    0    0    0 -0.00000000000E+00 -0.00000000000E+00 -0.45593999997E+02  0.45594000000E+02  0.51100000000E-03 0.  1.
    9900012    2    1    2    0    0  0.35131985782E+02  0.23868821191E+02 -0.89244951219E+01  0.47787266559E+02  0.19999979550E+02 0.  0.
         12    1    1    2    0    0 -0.35131985782E+02 -0.23868821191E+02  0.89244951219E+01  0.43400733441E+02  0.00000000000E+00 0. -1.
         11    1    3    3    0    0  0.66060437604E+01  0.83841117500E+01 -0.19514228684E+01  0.10850861508E+02  0.51100000000E-03 0. -1.
        -11    1    3    3    0    0  0.24374821388E+02  0.67296992455E+01 -0.93496786044E+01  0.26959919508E+02  0.51100000000E-03 0.  1.
        -12    1    3    3    0    0  0.41511206338E+01  0.87550101956E+01  0.23766063509E+01  0.99764855429E+01  0.00000000000E+00 0.  1.
</event>
<event>
 7    1  0.2647566E-010  0.4778727E+02  0.7816164E-02  0.1312668E+00
        -11   -1    0    0    0    0  0.00000000000E+00  0.00000000000E+00  0.45593999997E+02  0.45594000000E+02  0.51100000000E-03 0. -1.
         11   -1    0    0    0    0 -0.00000000000E+00 -0.00000000000E+00 -0.45593999997E+02  0.45594000000E+02  0.51100000000E-03 0.  1.
    9900012    2    1    2    0    0  0.43279153215E+02 -0.11913070295E+00  0.32440651427E+01  0.47787271275E+02  0.20000001053E+02 0.  0.
         12    1    1    2    0    0 -0.43279153215E+02  0.11913070295E+00 -0.32440651427E+01  0.43400728725E+02  0.00000000000E+00 0. -1.
         11    1    3    3    0    0  0.15700107830E+02  0.18236614667E+01  0.14729941275E+01  0.15874156323E+02  0.51100000000E-03 0. -1.
        -11    1    3    3    0    0  0.22539974601E+02  0.18478556465E+01 -0.44566327677E+01  0.23050522800E+02  0.51100000000E-03 0.  1.
         12    1    3    3    0    0  0.50390707851E+01 -0.37906478161E+01  0.62277037828E+01  0.88625921518E+01  0.00000000000E+00 0. -1.
</event>
<event>
 7    1  0.2647566E-010  0.4778727E+02  0.7816164E-02  0.1312668E+00
        -11   -1    0    0    0    0  0.00000000000E+00  0.00000000000E+00  0.45593999997E+02  0.45594000000E+02  0.51100000000E-03 0. -1.
         11   -1    0    0    0    0 -0.00000000000E+00 -0.00000000000E+00 -0.45593999997E+02  0.45594000000E+02  0.51100000000E-03 0.  1.
    9900012    2    1    2    0    0  0.22126150303E+02 -0.31714049504E+02  0.19704711254E+02  0.47787272946E+02  0.20000008670E+02 0.  0.
         12    1    1    2    0    0 -0.22126150303E+02  0.31714049504E+02 -0.19704711254E+02  0.43400727054E+02  0.00000000000E+00 0. -1.
         11    1    3    3    0    0  0.16305361378E+02 -0.19092273509E+02  0.10023753873E+02  0.27034336674E+02  0.51100000000E-03 0. -1.
        -11    1    3    3    0    0  0.81521426568E+01 -0.12903894481E+02  0.60285341125E+01  0.16410702193E+02  0.51100000000E-03 0.  1.
         12    1    3    3    0    0 -0.23313537319E+01  0.28211848569E+00  0.36524232682E+01  0.43422340786E+01  0.00000000000E+00 0. -1.
</event>
<event>
 7    1  0.2647566E-010  0.4778727E+02  0.7816164E-02  0.1312668E+00
        -11   -1    0    0    0    0  0.00000000000E+00  0.00000000000E+00  0.45593999997E+02  0.45594000000E+02  0.51100000000E-03 0. -1.
         11   -1    0    0    0    0 -0.00000000000E+00 -0.00000000000E+00 -0.45593999997E+02  0.45594000000E+02  0.51100000000E-03 0.  1.
    9900012    2    1    2    0    0  0.38389835509E+02 -0.20183138830E+02 -0.15762490999E+01  0.47787272764E+02  0.20000007839E+02 0.  0.
         12    1    1    2    0    0 -0.38389835509E+02  0.20183138830E+02  0.15762490999E+01  0.43400727236E+02  0.00000000000E+00 0. -1.
         11    1    3    3    0    0  0.84238499696E+01 -0.58171731087E+01 -0.33437109357E+01  0.10769454692E+02  0.51100000000E-03 0. -1.
        -11    1    3    3    0    0  0.15380637286E+02 -0.12669930786E+02 -0.54461298220E+01  0.20657964075E+02  0.51100000000E-03 0.  1.
         12    1    3    3    0    0  0.14585348253E+02 -0.16960349360E+01  0.72135916579E+01  0.16359853996E+02  0.00000000000E+00 0. -1.
</event>
<event>
 7    1  0.2647566E-010  0.4778727E+02  0.7816164E-02  0.1312668E+00
        -11   -1    0    0    0    0  0.00000000000E+00  0.00000000000E+00  0.45593999997E+02  0.45594000000E+02  0.51100000000E-03 0.  1.
         11   -1    0    0    0    0 -0.00000000000E+00 -0.00000000000E+00 -0.45593999997E+02  0.45594000000E+02  0.51100000000E-03 0. -1.
    9900012    2    1    2    0    0  0.39397565625E+02 -0.12250840221E+02  0.13467438194E+02  0.47787272416E+02  0.20000006255E+02 0.  0.
         12    1    1    2    0    0 -0.39397565625E+02  0.12250840221E+02 -0.13467438194E+02  0.43400727584E+02  0.00000000000E+00 0. -1.
         11    1    3    3    0    0  0.28652685368E+01 -0.40722023801E+01  0.33627215969E+01  0.60083685649E+01  0.51100000000E-03 0.  1.
        -11    1    3    3    0    0  0.83809791845E+01  0.46239202093E+01  0.31906862334E+01  0.10089694202E+02  0.51100000000E-03 0. -1.
         12    1    3    3    0    0  0.28151317903E+02 -0.12802558050E+02  0.69140303638E+01  0.31689209649E+02  0.00000000000E+00 0. -1.
</event>
<event>
 7    1  0.2647566E-010  0.4778727E+02  0.7816164E-02  0.1312668E+00
        -11   -1    0    0    0    0  0.00000000000E+00  0.00000000000E+00  0.45593999997E+02  0.45594000000E+02  0.51100000000E-03 0.  1.
         11   -1    0    0    0    0 -0.00000000000E+00 -0.00000000000E+00 -0.45593999997E+02  0.45594000000E+02  0.51100000000E-03 0. -1.
    9900012    2    1    2    0    0 -0.11823135758E+01  0.11708719269E+02  0.41774769917E+02  0.47787269892E+02  0.19999994746E+02 0.  0.
         12    1    1    2    0    0  0.11823135758E+01 -0.11708719269E+02 -0.41774769917E+02  0.43400730108E+02  0.00000000000E+00 0. -1.
         11    1    3    3    0    0  0.98350801012E+00  0.70815901066E+01  0.85862686184E+01  0.11173191822E+02  0.51100000000E-03 0. -1.
        -11    1    3    3    0    0  0.27032296440E+01  0.62322570115E+01  0.63790924016E+01  0.93188678548E+01  0.51100000000E-03 0.  1.
        -12    1    3    3    0    0 -0.48690512299E+01 -0.16051278495E+01  0.26809408897E+02  0.27295210215E+02  0.00000000000E+00 0.  1.
</event>
<event>
 7    1  0.2647566E-010  0.4778727E+02  0.7816164E-02  0.1312668E+00
        -11   -1    0    0    0    0  0.00000000000E+00  0.00000000000E+00  0.45593999997E+02  0.45594000000E+02  0.51100000000E-03 0.  1.
         11   -1    0    0    0    0 -0.00000000000E+00 -0.00000000000E+00 -0.45593999997E+02  0.45594000000E+02  0.51100000000E-03 0. -1.
    9900012    2    1    2    0    0 -0.33630039976E+02 -0.19103072033E+02  0.19690514271E+02  0.47787270719E+02  0.19999998515E+02 0.  0.
         12    1    1    2    0    0  0.33630039976E+02  0.19103072033E+02 -0.19690514271E+02  0.43400729281E+02  0.00000000000E+00 0. -1.
         11    1    3    3    0    0 -0.13622617534E+02 -0.10814818575E+02  0.20435903864E+01  0.17513202769E+02  0.51100000000E-03 0. -1.
        -11    1    3    3    0    0 -0.14680157887E+02 -0.10563260719E+02  0.99534795399E+01  0.20643673797E+02  0.51100000000E-03 0.  1.
         12    1    3    3    0    0 -0.53272645544E+01  0.22750072606E+01  0.76934443443E+01  0.96303941533E+01  0.00000000000E+00 0. -1.
</event>
<event>
 7    1  0.2647566E-010  0.4778727E+02  0.7816164E-02  0.1312668E+00
        -11   -1    0    0    0    0  0.00000000000E+00  0.00000000000E+00  0.45593999997E+02  0.45594000000E+02  0.51100000000E-03 0.  1.
         11   -1    0    0    0    0 -0.00000000000E+00 -0.00000000000E+00 -0.45593999997E+02  0.45594000000E+02  0.51100000000E-03 0. -1.
    9900012    2    1    2    0    0 -0.17180614344E+02 -0.28498003265E+02  0.27862402656E+02  0.47787272113E+02  0.20000004874E+02 0.  0.
         12    1    1    2    0    0  0.17180614344E+02  0.28498003265E+02 -0.27862402656E+02  0.43400727887E+02  0.00000000000E+00 0. -1.
         11    1    3    3    0    0 -0.16708626701E+01  0.71276048545E+00  0.77359063962E+01  0.79463235275E+01  0.51100000000E-03 0.  1.
        -11    1    3    3    0    0 -0.45674681310E+01 -0.35467354429E+01  0.65745709963E+00  0.58200814022E+01  0.51100000000E-03 0. -1.
        -12    1    3    3    0    0 -0.10942283542E+02 -0.25664028307E+02  0.19469039161E+02  0.34020867184E+02  0.00000000000E+00 0.  1.
</event>
<event>
 7    1  0.2647566E-010  0.4778728E+02  0.7816164E-02  0.1312668E+00
        -11   -1    0    0    0    0  0.00000000000E+00  0.00000000000E+00  0.45593999997E+02  0.45594000000E+02  0.51100000000E-03 0. -1.
         11   -1    0    0    0    0 -0.00000000000E+00 -0.00000000000E+00 -0.45593999997E+02  0.45594000000E+02  0.51100000000E-03 0.  1.
    9900012    2    1    2    0    0  0.13633514443E+01  0.41109984654E+02 -0.13846775931E+02  0.47787276859E+02  0.20000026513E+02 0.  0.
         12    1    1    2    0    0 -0.13633514443E+01 -0.41109984654E+02  0.13846775931E+02  0.43400723141E+02  0.00000000000E+00 0. -1.
         11    1    3    3    0    0 -0.11973845946E+00 -0.10452771973E+01 -0.11611086958E+00  0.10585006911E+01  0.51100000000E-03 0. -1.
        -11    1    3    3    0    0  0.19035823535E+01  0.10822544821E+02 -0.10548176628E+02  0.15232042956E+02  0.51100000000E-03 0.  1.
         12    1    3    3    0    0 -0.42049244971E+00  0.31332717031E+02 -0.31824884337E+01  0.31496733213E+02  0.00000000000E+00 0. -1.
</event>
<event>
 7    1  0.2647566E-010  0.4778728E+02  0.7816164E-02  0.1312668E+00
        -11   -1    0    0    0    0  0.00000000000E+00  0.00000000000E+00  0.45593999997E+02  0.45594000000E+02  0.51100000000E-03 0.  1.
         11   -1    0    0    0    0 -0.00000000000E+00 -0.00000000000E+00 -0.45593999997E+02  0.45594000000E+02  0.51100000000E-03 0. -1.
    9900012    2    1    2    0    0 -0.72782169381E+01 -0.42527215626E+02  0.46995822326E+01  0.47787278994E+02  0.20000036245E+02 0.  0.
         12    1    1    2    0    0  0.72782169381E+01  0.42527215626E+02 -0.46995822326E+01  0.43400721006E+02  0.00000000000E+00 0. -1.
         11    1    3    3    0    0 -0.55755789359E+01 -0.93244805755E+01 -0.42343748260E+01  0.11660315129E+02  0.51100000000E-03 0. -1.
        -11    1    3    3    0    0 -0.60546732311E+01 -0.13268443607E+02  0.31786787387E+01  0.14926977674E+02  0.51100000000E-03 0.  1.
        -12    1    3    3    0    0  0.43520352289E+01 -0.19934291444E+02  0.57552783200E+01  0.21199986192E+02  0.00000000000E+00 0.  1.
</event>
<event>
 7    1  0.2647566E-010  0.4778727E+02  0.7816164E-02  0.1312668E+00
        -11   -1    0    0    0    0  0.00000000000E+00  0.00000000000E+00  0.45593999997E+02  0.45594000000E+02  0.51100000000E-03 0. -1.
         11   -1    0    0    0    0 -0.00000000000E+00 -0.00000000000E+00 -0.45593999997E+02  0.45594000000E+02  0.51100000000E-03 0.  1.
    9900012    2    1    2    0    0  0.25490908998E+02 -0.29804270275E+02  0.18588768580E+02  0.47787270911E+02  0.19999999390E+02 0.  0.
         12    1    1    2    0    0 -0.25490908998E+02  0.29804270275E+02 -0.18588768580E+02  0.43400729089E+02  0.00000000000E+00 0. -1.
         11    1    3    3    0    0  0.12861294669E+02 -0.14741091239E+02  0.58567903984E+01  0.20420936940E+02  0.51100000000E-03 0. -1.
        -11    1    3    3    0    0  0.13428105579E+02 -0.81037112781E+01  0.40267048336E+01  0.16192544828E+02  0.51100000000E-03 0.  1.
         12    1    3    3    0    0 -0.79849124942E+00 -0.69594677573E+01  0.87052733480E+01  0.11173789143E+02  0.00000000000E+00 0. -1.
</event>
<event>
 7    1  0.2647566E-010  0.4778727E+02  0.7816164E-02  0.1312668E+00
        -11   -1    0    0    0    0  0.00000000000E+00  0.00000000000E+00  0.45593999997E+02  0.45594000000E+02  0.51100000000E-03 0. -1.
         11   -1    0    0    0    0 -0.00000000000E+00 -0.00000000000E+00 -0.45593999997E+02  0.45594000000E+02  0.51100000000E-03 0.  1.
    9900012    2    1    2    0    0  0.29024043654E+02 -0.20996972225E+02 -0.24502147159E+02  0.47787272264E+02  0.20000005558E+02 0.  0.
         12    1    1    2    0    0 -0.29024043654E+02  0.20996972225E+02  0.24502147159E+02  0.43400727736E+02  0.00000000000E+00 0. -1.
         11    1    3    3    0    0  0.18839344799E+01 -0.15319335690E+01  0.18979181952E+01  0.30819025490E+01  0.51100000000E-03 0. -1.
        -11    1    3    3    0    0  0.19402764648E+02 -0.12035309846E+02 -0.95905656484E+01  0.24764791718E+02  0.51100000000E-03 0.  1.
        -12    1    3    3    0    0  0.77373445257E+01 -0.74297288103E+01 -0.16809499706E+02  0.19940577997E+02  0.00000000000E+00 0.  1.
</event>
<event>
 7    1  0.2647566E-010  0.4778727E+02  0.7816164E-02  0.1312668E+00
        -11   -1    0    0    0    0  0.00000000000E+00  0.00000000000E+00  0.45593999997E+02  0.45594000000E+02  0.51100000000E-03 0.  1.
         11   -1    0    0    0    0 -0.00000000000E+00 -0.00000000000E+00 -0.45593999997E+02  0.45594000000E+02  0.51100000000E-03 0. -1.
    9900012    2    1    2    0    0  0.31182886040E+02 -0.22379330402E+02  0.20258738204E+02  0.47787270920E+02  0.19999999434E+02 0.  0.
         12    1    1    2    0    0 -0.31182886040E+02  0.22379330402E+02 -0.20258738204E+02  0.43400729080E+02  0.00000000000E+00 0. -1.
         11    1    3    3    0    0  0.19913918004E+01 -0.61516302390E+01  0.37021536613E+00  0.64765156974E+01  0.51100000000E-03 0. -1.
        -11    1    3    3    0    0  0.17062881773E+02 -0.16738236960E+02  0.11287976739E+02  0.26433481232E+02  0.51100000000E-03 0.  1.
         12    1    3    3    0    0  0.12128612467E+02  0.51053679731E+00  0.86005460994E+01  0.14877273991E+02  0.00000000000E+00 0. -1.
</event>
<event>
 7    1  0.2647566E-010  0.4778728E+02  0.7816164E-02  0.1312668E+00
        -11   -1    0    0    0    0  0.00000000000E+00  0.00000000000E+00  0.45593999997E+02  0.45594000000E+02  0.51100000000E-03 0.  1.
         11   -1    0    0    0    0 -0.00000000000E+00 -0.00000000000E+00 -0.45593999997E+02  0.45594000000E+02  0.51100000000E-03 0. -1.
    9900012    2    1    2    0    0 -0.19426670782E+01  0.24698600985E+02  0.35634638307E+02  0.47787282342E+02  0.20000051509E+02 0.  0.
         12    1    1    2    0    0  0.19426670782E+01 -0.24698600985E+02 -0.35634638307E+02  0.43400717658E+02  0.00000000000E+00 0. -1.
         11    1    3    3    0    0  0.98904614744E+00  0.62882652099E+01  0.89723026658E+01  0.11001032089E+02  0.51100000000E-03 0. -1.
        -11    1    3    3    0    0 -0.31530578724E+01  0.20715199116E+02  0.27271683138E+02  0.34391946002E+02  0.51100000000E-03 0.  1.
         12    1    3    3    0    0  0.22134464679E+00 -0.23048633407E+01 -0.60934749760E+00  0.23943042506E+01  0.00000000000E+00 0. -1.
</event>
<event>
 7    1  0.2647566E-010  0.4778727E+02  0.7816164E-02  0.1312668E+00
        -11   -1    0    0    0    0  0.00000000000E+00  0.00000000000E+00  0.45593999997E+02  0.45594000000E+02  0.51100000000E-03 0.  1.
         11   -1    0    0    0    0 -0.00000000000E+00 -0.00000000000E+00 -0.45593999997E+02  0.45594000000E+02  0.51100000000E-03 0. -1.
    9900012    2    1    2    0    0 -0.29887568822E+02 -0.75847817004E+01  0.30542223017E+02  0.47787273389E+02  0.20000010689E+02 0.  0.
         12    1    1    2    0    0  0.29887568822E+02  0.75847817004E+01 -0.30542223017E+02  0.43400726611E+02  0.00000000000E+00 0. -1.
         11    1    3    3    0    0 -0.20343454743E+02 -0.71658008871E+01  0.19526492063E+02  0.29094479644E+02  0.51100000000E-03 0. -1.
        -11    1    3    3    0    0 -0.10309167200E+02  0.35558901763E+01  0.68168399768E+01  0.12860505077E+02  0.51100000000E-03 0.  1.
         12    1    3    3    0    0  0.76505312062E+00 -0.39748709896E+01  0.41988909781E+01  0.58322886680E+01  0.00000000000E+00 0. -1.
</event>
<event>
 7    1  0.2647566E-010  0.4778727E+02  0.7816164E-02  0.1312668E+00
        -11   -1    0    0    0    0  0.00000000000E+00  0.00000000000E+00  0.45593999997E+02  0.45594000000E+02  0.51100000000E-03 0.  1.
         11   -1    0    0    0    0 -0.00000000000E+00 -0.00000000000E+00 -0.45593999997E+02  0.45594000000E+02  0.51100000000E-03 0. -1.
    9900012    2    1    2    0    0  0.35260226197E+02 -0.64091737654E+01  0.24479830876E+02  0.47787272131E+02  0.20000004956E+02 0.  0.
         12    1    1    2    0    0 -0.35260226197E+02  0.64091737654E+01 -0.24479830876E+02  0.43400727869E+02  0.00000000000E+00 0. -1.
         11    1    3    3    0    0  0.16422656670E+02 -0.53690045101E+01  0.39113085145E+01  0.17715196755E+02  0.51100000000E-03 0. -1.
        -11    1    3    3    0    0  0.14275972024E+02 -0.57381301074E+01  0.14179356537E+02  0.20923280489E+02  0.51100000000E-03 0.  1.
         12    1    3    3    0    0  0.45615975030E+01  0.46979608522E+01  0.63891658246E+01  0.91487948869E+01  0.00000000000E+00 0. -1.
</event>
<event>
 7    1  0.2647566E-010  0.4778727E+02  0.7816164E-02  0.1312668E+00
        -11   -1    0    0    0    0  0.00000000000E+00  0.00000000000E+00  0.45593999997E+02  0.45594000000E+02  0.51100000000E-03 0.  1.
         11   -1    0    0    0    0 -0.00000000000E+00 -0.00000000000E+00 -0.45593999997E+02  0.45594000000E+02  0.51100000000E-03 0. -1.
    9900012    2    1    2    0    0 -0.18057311896E+02  0.29226266557E+02  0.26521346458E+02  0.47787274341E+02  0.20000015029E+02 0.  0.
         12    1    1    2    0    0  0.18057311896E+02 -0.29226266557E+02 -0.26521346458E+02  0.43400725659E+02  0.00000000000E+00 0. -1.
         11    1    3    3    0    0 -0.47609303323E+01  0.57636036228E+01  0.66813402159E+01  0.10026260105E+02  0.51100000000E-03 0.  1.
        -11    1    3    3    0    0  0.56934653473E+00  0.12372998887E+02  0.19187355378E+01  0.12533826361E+02  0.51100000000E-03 0. -1.
        -12    1    3    3    0    0 -0.13865728099E+02  0.11089664048E+02  0.17921270705E+02  0.25227187875E+02  0.00000000000E+00 0.  1.
</event>
<event>
 7    1  0.2647566E-010  0.4778728E+02  0.7816164E-02  0.1312668E+00
        -11   -1    0    0    0    0  0.00000000000E+00  0.00000000000E+00  0.45593999997E+02  0.45594000000E+02  0.51100000000E-03 0.  1.
         11   -1    0    0    0    0 -0.00000000000E+00 -0.00000000000E+00 -0.45593999997E+02  0.45594000000E+02  0.51100000000E-03 0. -1.
    9900012    2    1    2    0    0 -0.36304392317E+02 -0.23641685193E+02  0.25854109147E+01  0.47787279616E+02  0.20000039080E+02 0.  0.
         12    1    1    2    0    0  0.36304392317E+02  0.23641685193E+02 -0.25854109147E+01  0.43400720384E+02  0.00000000000E+00 0. -1.
         11    1    3    3    0    0 -0.94795755924E+01 -0.60537092556E+01 -0.37909895744E+01  0.11869345027E+02  0.51100000000E-03 0. -1.
        -11    1    3    3    0    0 -0.12484604318E+01 -0.58926949316E+01 -0.23591421056E+01  0.64690075546E+01  0.51100000000E-03 0.  1.
        -12    1    3    3    0    0 -0.25576356293E+02 -0.11695281005E+02  0.87355425947E+01  0.29448927034E+02  0.00000000000E+00 0.  1.
</event>
<event>
 7    1  0.2647566E-010  0.4778727E+02  0.7816164E-02  0.1312668E+00
        -11   -1    0    0    0    0  0.00000000000E+00  0.00000000000E+00  0.45593999997E+02  0.45594000000E+02  0.51100000000E-03 0.  1.
         11   -1    0    0    0    0 -0.00000000000E+00 -0.00000000000E+00 -0.45593999997E+02  0.45594000000E+02  0.51100000000E-03 0. -1.
    9900012    2    1    2    0    0  0.20437044233E+02  0.33688738083E+02  0.18193942979E+02  0.47787269456E+02  0.19999992760E+02 0.  0.
         12    1    1    2    0    0 -0.20437044233E+02 -0.33688738083E+02 -0.18193942979E+02  0.43400730544E+02  0.00000000000E+00 0. -1.
         11    1    3    3    0    0  0.70552765118E+01  0.97924352215E+01 -0.19593281506E+01  0.12227333368E+02  0.51100000000E-03 0. -1.
        -11    1    3    3    0    0  0.20748305298E+01 -0.38695297452E+00  0.12623756230E+00  0.21143770986E+01  0.51100000000E-03 0.  1.
        -12    1    3    3    0    0  0.11306937191E+02  0.24283255836E+02  0.20027033568E+02  0.33445558990E+02  0.00000000000E+00 0.  1.
</event>
<event>
 7    1  0.2647566E-010  0.4778728E+02  0.7816164E-02  0.1312668E+00
        -11   -1    0    0    0    0  0.00000000000E+00  0.00000000000E+00  0.45593999997E+02  0.45594000000E+02  0.51100000000E-03 0. -1.
         11   -1    0    0    0    0 -0.00000000000E+00 -0.00000000000E+00 -0.45593999997E+02  0.45594000000E+02  0.51100000000E-03 0.  1.
    9900012    2    1    2    0    0 -0.64793146360E+01  0.18484263813E+02 -0.38729489762E+02  0.47787275305E+02  0.20000019425E+02 0.  0.
         12    1    1    2    0    0  0.64793146360E+01 -0.18484263813E+02  0.38729489762E+02  0.43400724695E+02  0.00000000000E+00 0. -1.
         11    1    3    3    0    0  0.24515011037E+01  0.65577283972E+01 -0.45847988168E+01  0.83686342879E+01  0.51100000000E-03 0. -1.
        -11    1    3    3    0    0 -0.40229929612E+01  0.13773886408E+02 -0.26712903152E+02  0.30322988214E+02  0.51100000000E-03 0.  1.
        -12    1    3    3    0    0 -0.49078227785E+01 -0.18473509923E+01 -0.74317877933E+01  0.90956528034E+01  0.00000000000E+00 0.  1.
</event>
<event>
 7    1  0.2647566E-010  0.4778727E+02  0.7816164E-02  0.1312668E+00
        -11   -1    0    0    0    0  0.00000000000E+00  0.00000000000E+00  0.45593999997E+02  0.45594000000E+02  0.51100000000E-03 0.  1.
         11   -1    0    0    0    0 -0.00000000000E+00 -0.00000000000E+00 -0.45593999997E+02  0.45594000000E+02  0.51100000000E-03 0. -1.
    9900012    2    1    2    0    0 -0.11899897736E+02  0.29853199317E+02  0.29168513503E+02  0.47787271255E+02  0.20000000962E+02 0.  0.
         12    1    1    2    0    0  0.11899897736E+02 -0.29853199317E+02 -0.29168513503E+02  0.43400728745E+02  0.00000000000E+00 0. -1.
         11    1    3    3    0    0 -0.41492545030E+01 -0.37990281030E+00  0.92768139364E+01  0.10169558306E+02  0.51100000000E-03 0. -1.
        -11    1    3    3    0    0 -0.44151231136E+00  0.38805076943E+01  0.18559464774E+00  0.39099512428E+01  0.51100000000E-03 0.  1.
        -12    1    3    3    0    0 -0.73091309218E+01  0.26352594433E+02  0.19706104918E+02  0.33707761706E+02  0.00000000000E+00 0.  1.
</event>
<event>
 7    1  0.2647566E-010  0.4778726E+02  0.7816164E-02  0.1312668E+00
        -11   -1    0    0    0    0  0.00000000000E+00  0.00000000000E+00  0.45593999997E+02  0.45594000000E+02  0.51100000000E-03 0.  1.
         11   -1    0    0    0    0 -0.00000000000E+00 -0.00000000000E+00 -0.45593999997E+02  0.45594000000E+02  0.51100000000E-03 0. -1.
    9900012    2    1    2    0    0  0.31357608864E+01 -0.37253129777E+02  0.22045314569E+02  0.47787256124E+02  0.19999931974E+02 0.  0.
         12    1    1    2    0    0 -0.31357608864E+01  0.37253129777E+02 -0.22045314569E+02  0.43400743876E+02  0.00000000000E+00 0. -1.
         11    1    3    3    0    0  0.12703934238E+01 -0.21925919711E+01  0.85153298363E+01  0.88843796342E+01  0.51100000000E-03 0. -1.
        -11    1    3    3    0    0  0.11591219381E+01 -0.40976370956E+00  0.20549537532E+01  0.23946409238E+01  0.51100000000E-03 0.  1.
        -12    1    3    3    0    0  0.70624552445E+00 -0.34650774096E+02  0.11475030980E+02  0.36508235567E+02  0.00000000000E+00 0.  1.
</event>
<event>
 7    1  0.2647566E-010  0.4778727E+02  0.7816164E-02  0.1312668E+00
        -11   -1    0    0    0    0  0.00000000000E+00  0.00000000000E+00  0.45593999997E+02  0.45594000000E+02  0.51100000000E-03 0.  1.
         11   -1    0    0    0    0 -0.00000000000E+00 -0.00000000000E+00 -0.45593999997E+02  0.45594000000E+02  0.51100000000E-03 0. -1.
    9900012    2    1    2    0    0  0.32912175717E+02 -0.87360088612E+01  0.26908999239E+02  0.47787269576E+02  0.19999993306E+02 0.  0.
         12    1    1    2    0    0 -0.32912175717E+02  0.87360088612E+01 -0.26908999239E+02  0.43400730424E+02  0.00000000000E+00 0. -1.
         11    1    3    3    0    0  0.12188014962E+02 -0.64174908053E+00  0.14161882344E+02  0.18695412870E+02  0.51100000000E-03 0.  1.
        -11    1    3    3    0    0  0.19300654101E+02 -0.47553089572E+01  0.49404011324E+01  0.20482572485E+02  0.51100000000E-03 0. -1.
         12    1    3    3    0    0  0.14235066546E+01 -0.33389508235E+01  0.78067157632E+01  0.86092842214E+01  0.00000000000E+00 0. -1.
</event>
<event>
 7    1  0.2647566E-010  0.4778727E+02  0.7816164E-02  0.1312668E+00
        -11   -1    0    0    0    0  0.00000000000E+00  0.00000000000E+00  0.45593999997E+02  0.45594000000E+02  0.51100000000E-03 0.  1.
         11   -1    0    0    0    0 -0.00000000000E+00 -0.00000000000E+00 -0.45593999997E+02  0.45594000000E+02  0.51100000000E-03 0. -1.
    9900012    2    1    2    0    0  0.12090037426E+02 -0.41185208323E+02  0.64212745178E+01  0.47787272402E+02  0.20000006190E+02 0.  0.
         12    1    1    2    0    0 -0.12090037426E+02  0.41185208323E+02 -0.64212745178E+01  0.43400727598E+02  0.00000000000E+00 0. -1.
         11    1    3    3    0    0  0.10783468107E+01 -0.18221750709E+02  0.57590923298E+01  0.19140589737E+02  0.51100000000E-03 0. -1.
        -11    1    3    3    0    0  0.57544572910E+01 -0.22061974442E+02  0.26516598642E+01  0.22953775186E+02  0.51100000000E-03 0.  1.
         12    1    3    3    0    0  0.52572333249E+01 -0.90148317204E+00 -0.19894776762E+01  0.56929074791E+01  0.00000000000E+00 0. -1.
</event>
<event>
 7    1  0.2647566E-010  0.4778728E+02  0.7816164E-02  0.1312668E+00
        -11   -1    0    0    0    0  0.00000000000E+00  0.00000000000E+00  0.45593999997E+02  0.45594000000E+02  0.51100000000E-03 0.  1.
         11   -1    0    0    0    0 -0.00000000000E+00 -0.00000000000E+00 -0.45593999997E+02  0.45594000000E+02  0.51100000000E-03 0. -1.
    9900012    2    1    2    0    0  0.23084629223E+02 -0.28242633424E+02  0.23517573831E+02  0.47787277333E+02  0.20000028672E+02 0.  0.
         12    1    1    2    0    0 -0.23084629223E+02  0.28242633424E+02 -0.23517573831E+02  0.43400722667E+02  0.00000000000E+00 0. -1.
         11    1    3    3    0    0 -0.16190435275E-01 -0.76663136528E+01  0.95067633795E+01  0.12212746512E+02  0.51100000000E-03 0. -1.
        -11    1    3    3    0    0  0.17225245704E+01  0.12646021425E+01  0.93226259680E+00  0.23313994263E+01  0.51100000000E-03 0.  1.
         12    1    3    3    0    0  0.21378295088E+02 -0.21840921914E+02  0.13078547855E+02  0.33243131395E+02  0.00000000000E+00 0. -1.
</event>
<event>
 7    1  0.2647566E-010  0.4778727E+02  0.7816164E-02  0.1312668E+00
        -11   -1    0    0    0    0  0.00000000000E+00  0.00000000000E+00  0.45593999997E+02  0.45594000000E+02  0.51100000000E-03 0. -1.
         11   -1    0    0    0    0 -0.00000000000E+00 -0.00000000000E+00 -0.45593999997E+02  0.45594000000E+02  0.51100000000E-03 0.  1.
    9900012    2    1    2    0    0 -0.18744340561E+02  0.13762774309E+02 -0.36645042268E+02  0.47787269792E+02  0.19999994291E+02 0.  0.
         12    1    1    2    0    0  0.18744340561E+02 -0.13762774309E+02  0.36645042268E+02  0.43400730208E+02  0.00000000000E+00 0. -1.
         11    1    3    3    0    0 -0.55586457190E+01  0.57704659708E+01 -0.35478645445E+01  0.87626572931E+01  0.51100000000E-03 0. -1.
        -11    1    3    3    0    0 -0.34366264278E+01  0.63477649026E+01 -0.39119567156E+01  0.82102330094E+01  0.51100000000E-03 0.  1.
        -12    1    3    3    0    0 -0.97490684137E+01  0.16445434359E+01 -0.29185221008E+02  0.30814379490E+02  0.00000000000E+00 0.  1.
</event>
<event>
 7    1  0.2647566E-010  0.4778728E+02  0.7816164E-02  0.1312668E+00
        -11   -1    0    0    0    0  0.00000000000E+00  0.00000000000E+00  0.45593999997E+02  0.45594000000E+02  0.51100000000E-03 0.  1.
         11   -1    0    0    0    0 -0.00000000000E+00 -0.00000000000E+00 -0.45593999997E+02  0.45594000000E+02  0.51100000000E-03 0. -1.
    9900012    2    1    2    0    0 -0.17838989511E+02  0.16796370377E+02  0.35822832394E+02  0.47787275060E+02  0.20000018307E+02 0.  0.
         12    1    1    2    0    0  0.17838989511E+02 -0.16796370377E+02 -0.35822832394E+02  0.43400724940E+02  0.00000000000E+00 0. -1.
         11    1    3    3    0    0 -0.66159027415E+01 -0.32669173029E+01  0.70705340998E+01  0.10219362527E+02  0.51100000000E-03 0. -1.
        -11    1    3    3    0    0 -0.47657073421E+01  0.26476922213E+01  0.83992226716E+01  0.10013450071E+02  0.51100000000E-03 0.  1.
        -12    1    3    3    0    0 -0.64573794271E+01  0.17415595459E+02  0.20353075623E+02  0.27554462462E+02  0.00000000000E+00 0.  1.
</event>
<event>
 7    1  0.2647566E-010  0.4778727E+02  0.7816164E-02  0.1312668E+00
        -11   -1    0    0    0    0  0.00000000000E+00  0.00000000000E+00  0.45593999997E+02  0.45594000000E+02  0.51100000000E-03 0.  1.
         11   -1    0    0    0    0 -0.00000000000E+00 -0.00000000000E+00 -0.45593999997E+02  0.45594000000E+02  0.51100000000E-03 0. -1.
    9900012    2    1    2    0    0  0.28427599710E+02 -0.22402210753E+02  0.23950699886E+02  0.47787268475E+02  0.19999988284E+02 0.  0.
         12    1    1    2    0    0 -0.28427599710E+02  0.22402210753E+02 -0.23950699886E+02  0.43400731525E+02  0.00000000000E+00 0. -1.
         11    1    3    3    0    0  0.15149560845E+02 -0.11007849519E+02  0.62089092144E+01  0.19728976120E+02  0.51100000000E-03 0. -1.
        -11    1    3    3    0    0  0.13181125713E+02 -0.10012299138E+02  0.83029131620E+01  0.18518276819E+02  0.51100000000E-03 0.  1.
         12    1    3    3    0    0  0.96913151543E-01 -0.13820620956E+01  0.94388775095E+01  0.95400155364E+01  0.00000000000E+00 0. -1.
</event>
<event>
 7    1  0.2647566E-010  0.4778727E+02  0.7816164E-02  0.1312668E+00
        -11   -1    0    0    0    0  0.00000000000E+00  0.00000000000E+00  0.45593999997E+02  0.45594000000E+02  0.51100000000E-03 0.  1.
         11   -1    0    0    0    0 -0.00000000000E+00 -0.00000000000E+00 -0.45593999997E+02  0.45594000000E+02  0.51100000000E-03 0. -1.
    9900012    2    1    2    0    0  0.70877093898E+01  0.42694581661E+02  0.32496546746E+01  0.47787272090E+02  0.20000004767E+02 0.  0.
         12    1    1    2    0    0 -0.70877093898E+01 -0.42694581661E+02 -0.32496546746E+01  0.43400727910E+02  0.00000000000E+00 0. -1.
         11    1    3    3    0    0  0.71168817748E+01  0.29640251300E+02  0.27378783707E+00  0.30483921391E+02  0.51100000000E-03 0. -1.
        -11    1    3    3    0    0  0.32702106485E+01  0.41544117153E+01  0.53473084280E+01  0.75197820494E+01  0.51100000000E-03 0.  1.
         12    1    3    3    0    0 -0.32993830336E+01  0.88999186463E+01 -0.23714415905E+01  0.97835686500E+01  0.00000000000E+00 0. -1.
</event>
<event>
 7    1  0.2647566E-010  0.4778726E+02  0.7816164E-02  0.1312668E+00
        -11   -1    0    0    0    0  0.00000000000E+00  0.00000000000E+00  0.45593999997E+02  0.45594000000E+02  0.51100000000E-03 0.  1.
         11   -1    0    0    0    0 -0.00000000000E+00 -0.00000000000E+00 -0.45593999997E+02  0.45594000000E+02  0.51100000000E-03 0. -1.
    9900012    2    1    2    0    0  0.45266185789E+01  0.15120194273E+02  0.40429115893E+02  0.47787263111E+02  0.19999963830E+02 0.  0.
         12    1    1    2    0    0 -0.45266185789E+01 -0.15120194273E+02 -0.40429115893E+02  0.43400736889E+02  0.00000000000E+00 0. -1.
         11    1    3    3    0    0 -0.45912232407E+00  0.40865664706E+01  0.13580807217E+01  0.43307276912E+01  0.51100000000E-03 0. -1.
        -11    1    3    3    0    0  0.13666931158E+01  0.41396514592E+01  0.83864269551E+00  0.44393564971E+01  0.51100000000E-03 0.  1.
        -12    1    3    3    0    0  0.36190477872E+01  0.68939763432E+01  0.38232392476E+02  0.39017178923E+02  0.00000000000E+00 0.  1.
</event>
<event>
 7    1  0.2647566E-010  0.4778727E+02  0.7816164E-02  0.1312668E+00
        -11   -1    0    0    0    0  0.00000000000E+00  0.00000000000E+00  0.45593999997E+02  0.45594000000E+02  0.51100000000E-03 0.  1.
         11   -1    0    0    0    0 -0.00000000000E+00 -0.00000000000E+00 -0.45593999997E+02  0.45594000000E+02  0.51100000000E-03 0. -1.
    9900012    2    1    2    0    0 -0.18611839740E+02  0.30564245761E+02  0.24557068820E+02  0.47787270439E+02  0.19999997238E+02 0.  0.
         12    1    1    2    0    0  0.18611839740E+02 -0.30564245761E+02 -0.24557068820E+02  0.43400729561E+02  0.00000000000E+00 0. -1.
         11    1    3    3    0    0 -0.13065726247E+02  0.13370248527E+02  0.94208231146E+01  0.20933911638E+02  0.51100000000E-03 0. -1.
        -11    1    3    3    0    0 -0.94732017667E+01  0.11562848591E+02  0.12547716413E+02  0.19516306174E+02  0.51100000000E-03 0.  1.
        -12    1    3    3    0    0  0.39270882737E+01  0.56311486432E+01  0.25885292917E+01  0.73370526265E+01  0.00000000000E+00 0.  1.
</event>
<event>
 7    1  0.2647566E-010  0.4778727E+02  0.7816164E-02  0.1312668E+00
        -11   -1    0    0    0    0  0.00000000000E+00  0.00000000000E+00  0.45593999997E+02  0.45594000000E+02  0.51100000000E-03 0.  1.
         11   -1    0    0    0    0 -0.00000000000E+00 -0.00000000000E+00 -0.45593999997E+02  0.45594000000E+02  0.51100000000E-03 0. -1.
    9900012    2    1    2    0    0 -0.27560740170E+02 -0.24142306807E+02  0.23263240267E+02  0.47787265854E+02  0.19999976334E+02 0.  0.
         12    1    1    2    0    0  0.27560740170E+02  0.24142306807E+02 -0.23263240267E+02  0.43400734146E+02  0.00000000000E+00 0. -1.
         11    1    3    3    0    0 -0.66715242078E+01 -0.42420581706E+01  0.93500380833E+01  0.12244488768E+02  0.51100000000E-03 0.  1.
        -11    1    3    3    0    0 -0.20669065209E+02 -0.12037197780E+02  0.66249801919E+01  0.24819241524E+02  0.51100000000E-03 0. -1.
        -12    1    3    3    0    0 -0.22015075277E+00 -0.78630508568E+01  0.72882219921E+01  0.10723535561E+02  0.00000000000E+00 0.  1.
</event>
<event>
 7    1  0.2647566E-010  0.4778727E+02  0.7816164E-02  0.1312668E+00
        -11   -1    0    0    0    0  0.00000000000E+00  0.00000000000E+00  0.45593999997E+02  0.45594000000E+02  0.51100000000E-03 0.  1.
         11   -1    0    0    0    0 -0.00000000000E+00 -0.00000000000E+00 -0.45593999997E+02  0.45594000000E+02  0.51100000000E-03 0. -1.
    9900012    2    1    2    0    0  0.17865879639E+02  0.28421773021E+02  0.27507026289E+02  0.47787270373E+02  0.19999996937E+02 0.  0.
         12    1    1    2    0    0 -0.17865879639E+02 -0.28421773021E+02 -0.27507026289E+02  0.43400729627E+02  0.00000000000E+00 0. -1.
         11    1    3    3    0    0  0.17687056499E+02  0.22571548587E+02  0.11974235405E+02  0.31075538402E+02  0.51100000000E-03 0. -1.
        -11    1    3    3    0    0  0.51432007004E+00  0.21268863930E+01  0.36595771265E+01  0.42638803770E+01  0.51100000000E-03 0.  1.
        -12    1    3    3    0    0 -0.33549692980E+00  0.37233380410E+01  0.11873213757E+02  0.12447851593E+02  0.00000000000E+00 0.  1.
</event>
<event>
 7    1  0.2647566E-010  0.4778727E+02  0.7816164E-02  0.1312668E+00
        -11   -1    0    0    0    0  0.00000000000E+00  0.00000000000E+00  0.45593999997E+02  0.45594000000E+02  0.51100000000E-03 0.  1.
         11   -1    0    0    0    0 -0.00000000000E+00 -0.00000000000E+00 -0.45593999997E+02  0.45594000000E+02  0.51100000000E-03 0. -1.
    9900012    2    1    2    0    0 -0.15176285235E+02  0.38994641617E+02  0.11520498028E+02  0.47787267481E+02  0.19999983754E+02 0.  0.
         12    1    1    2    0    0  0.15176285235E+02 -0.38994641617E+02 -0.11520498028E+02  0.43400732519E+02  0.00000000000E+00 0. -1.
         11    1    3    3    0    0 -0.23080703948E+01  0.11242434701E+01  0.48317622762E+01  0.54714750554E+01  0.51100000000E-03 0. -1.
        -11    1    3    3    0    0 -0.30637146277E+01  0.70447027162E+01 -0.34436990603E+01  0.84186250159E+01  0.51100000000E-03 0.  1.
        -12    1    3    3    0    0 -0.98045002126E+01  0.30825695431E+02  0.10132434812E+02  0.33897167410E+02  0.00000000000E+00 0.  1.
</event>
<event>
 7    1  0.2647566E-010  0.4778727E+02  0.7816164E-02  0.1312668E+00
        -11   -1    0    0    0    0  0.00000000000E+00  0.00000000000E+00  0.45593999997E+02  0.45594000000E+02  0.51100000000E-03 0. -1.
         11   -1    0    0    0    0 -0.00000000000E+00 -0.00000000000E+00 -0.45593999997E+02  0.45594000000E+02  0.51100000000E-03 0.  1.
    9900012    2    1    2    0    0 -0.56235383971E+01  0.42390460439E+02  0.74194232116E+01  0.47787272344E+02  0.20000005924E+02 0.  0.
         12    1    1    2    0    0  0.56235383971E+01 -0.42390460439E+02 -0.74194232116E+01  0.43400727656E+02  0.00000000000E+00 0. -1.
         11    1    3    3    0    0 -0.23028508577E+01 -0.68513804782E-02 -0.63536146230E+00  0.23889021460E+01  0.51100000000E-03 0. -1.
        -11    1    3    3    0    0  0.43768116746E+01  0.12084479554E+02 -0.84915721445E+00  0.12880690772E+02  0.51100000000E-03 0.  1.
         12    1    3    3    0    0 -0.76974992141E+01  0.30312832265E+02  0.89039418884E+01  0.32517679426E+02  0.00000000000E+00 0. -1.
</event>
<event>
 7    1  0.2647566E-010  0.4778727E+02  0.7816164E-02  0.1312668E+00
        -11   -1    0    0    0    0  0.00000000000E+00  0.00000000000E+00  0.45593999997E+02  0.45594000000E+02  0.51100000000E-03 0.  1.
         11   -1    0    0    0    0 -0.00000000000E+00 -0.00000000000E+00 -0.45593999997E+02  0.45594000000E+02  0.51100000000E-03 0. -1.
    9900012    2    1    2    0    0  0.25883574812E+02  0.31978252716E+01  0.34690599115E+02  0.47787271913E+02  0.20000003960E+02 0.  0.
         12    1    1    2    0    0 -0.25883574812E+02 -0.31978252716E+01 -0.34690599115E+02  0.43400728087E+02  0.00000000000E+00 0. -1.
         11    1    3    3    0    0  0.53432435859E+01 -0.45796361283E+00  0.18465557041E+01  0.56718384073E+01  0.51100000000E-03 0. -1.
        -11    1    3    3    0    0  0.15873859236E+02  0.86026973100E+01  0.16686502030E+02  0.24585059656E+02  0.51100000000E-03 0.  1.
         12    1    3    3    0    0  0.46664719898E+01 -0.49469084255E+01  0.16157541381E+02  0.17530373849E+02  0.00000000000E+00 0. -1.
</event>
<event>
 7    1  0.2647566E-010  0.4778727E+02  0.7816164E-02  0.1312668E+00
        -11   -1    0    0    0    0  0.00000000000E+00  0.00000000000E+00  0.45593999997E+02  0.45594000000E+02  0.51100000000E-03 0.  1.
         11   -1    0    0    0    0 -0.00000000000E+00 -0.00000000000E+00 -0.45593999997E+02  0.45594000000E+02  0.51100000000E-03 0. -1.
    9900012    2    1    2    0    0  0.74466401655E+01 -0.22377895998E+02  0.36433508631E+02  0.47787271547E+02  0.20000002292E+02 0.  0.
         12    1    1    2    0    0 -0.74466401655E+01  0.22377895998E+02 -0.36433508631E+02  0.43400728453E+02  0.00000000000E+00 0. -1.
         11    1    3    3    0    0  0.69699763554E+01 -0.72770693730E+01  0.16091427517E+02  0.18986056696E+02  0.51100000000E-03 0.  1.
        -11    1    3    3    0    0  0.65623166583E+01 -0.11540786966E+02  0.14339506784E+02  0.19541627844E+02  0.51100000000E-03 0. -1.
         12    1    3    3    0    0 -0.60856528482E+01 -0.35600396586E+01  0.60025743300E+01  0.92595870074E+01  0.00000000000E+00 0. -1.
</event>
<event>
 7    1  0.2647566E-010  0.4778728E+02  0.7816164E-02  0.1312668E+00
        -11   -1    0    0    0    0  0.00000000000E+00  0.00000000000E+00  0.45593999997E+02  0.45594000000E+02  0.51100000000E-03 0.  1.
         11   -1    0    0    0    0 -0.00000000000E+00 -0.00000000000E+00 -0.45593999997E+02  0.45594000000E+02  0.51100000000E-03 0. -1.
    9900012    2    1    2    0    0  0.14414091162E+01 -0.32423247133E+01  0.43255431899E+02  0.47787277442E+02  0.20000029170E+02 0.  0.
         12    1    1    2    0    0 -0.14414091162E+01  0.32423247133E+01 -0.43255431899E+02  0.43400722558E+02  0.00000000000E+00 0. -1.
         11    1    3    3    0    0 -0.79064787582E+00  0.27362161040E+01  0.24353528651E+01  0.37473919557E+01  0.51100000000E-03 0. -1.
        -11    1    3    3    0    0 -0.53268133548E+01 -0.71021437332E+01  0.21170521800E+02  0.22956619518E+02  0.51100000000E-03 0.  1.
        -12    1    3    3    0    0  0.75588703468E+01  0.11236029159E+01  0.19649557233E+02  0.21083265969E+02  0.00000000000E+00 0.  1.
</event>
<event>
 7    1  0.2647566E-010  0.4778727E+02  0.7816164E-02  0.1312668E+00
        -11   -1    0    0    0    0  0.00000000000E+00  0.00000000000E+00  0.45593999997E+02  0.45594000000E+02  0.51100000000E-03 0.  1.
         11   -1    0    0    0    0 -0.00000000000E+00 -0.00000000000E+00 -0.45593999997E+02  0.45594000000E+02  0.51100000000E-03 0. -1.
    9900012    2    1    2    0    0 -0.29656799386E+02 -0.13291396884E+02  0.28765194558E+02  0.47787269604E+02  0.19999993431E+02 0.  0.
         12    1    1    2    0    0  0.29656799386E+02  0.13291396884E+02 -0.28765194558E+02  0.43400730396E+02  0.00000000000E+00 0. -1.
         11    1    3    3    0    0 -0.14877436206E+02  0.47515587555E+00  0.15590108292E+02  0.21554938135E+02  0.51100000000E-03 0. -1.
        -11    1    3    3    0    0 -0.90373934936E+00  0.14930334947E+01 -0.24197186034E-01  0.17454167390E+01  0.51100000000E-03 0.  1.
        -12    1    3    3    0    0 -0.13875623831E+02 -0.15259586254E+02  0.13199283452E+02  0.24486914730E+02  0.00000000000E+00 0.  1.
</event>
<event>
 7    1  0.2647566E-010  0.4778727E+02  0.7816164E-02  0.1312668E+00
        -11   -1    0    0    0    0  0.00000000000E+00  0.00000000000E+00  0.45593999997E+02  0.45594000000E+02  0.51100000000E-03 0.  1.
         11   -1    0    0    0    0 -0.00000000000E+00 -0.00000000000E+00 -0.45593999997E+02  0.45594000000E+02  0.51100000000E-03 0. -1.
    9900012    2    1    2    0    0  0.18019980543E+02  0.38028865308E+02 -0.10616450816E+02  0.47787270474E+02  0.19999997401E+02 0.  0.
         12    1    1    2    0    0 -0.18019980543E+02 -0.38028865308E+02  0.10616450816E+02  0.43400729526E+02  0.00000000000E+00 0. -1.
         11    1    3    3    0    0  0.14285663932E+01 -0.16027352957E+01  0.71997786049E+00  0.22644934861E+01  0.51100000000E-03 0. -1.
        -11    1    3    3    0    0  0.82530761092E+01  0.96388112011E+01 -0.10315380578E+01  0.12731222159E+02  0.51100000000E-03 0.  1.
         12    1    3    3    0    0  0.83383380410E+01  0.29992789403E+02 -0.10304890619E+02  0.32791554829E+02  0.00000000000E+00 0. -1.
</event>
<event>
 7    1  0.2647566E-010  0.4778727E+02  0.7816164E-02  0.1312668E+00
        -11   -1    0    0    0    0  0.00000000000E+00  0.00000000000E+00  0.45593999997E+02  0.45594000000E+02  0.51100000000E-03 0.  1.
         11   -1    0    0    0    0 -0.00000000000E+00 -0.00000000000E+00 -0.45593999997E+02  0.45594000000E+02  0.51100000000E-03 0. -1.
    9900012    2    1    2    0    0  0.31836862420E+01  0.24602278535E+02  0.35612006923E+02  0.47787274151E+02  0.20000014163E+02 0.  0.
         12    1    1    2    0    0 -0.31836862420E+01 -0.24602278535E+02 -0.35612006923E+02  0.43400725849E+02  0.00000000000E+00 0. -1.
         11    1    3    3    0    0 -0.21186052138E+01  0.27690909487E+01  0.32655755595E+01  0.47770636096E+01  0.51100000000E-03 0. -1.
        -11    1    3    3    0    0 -0.57509633218E+01  0.89266102451E+01  0.17375202266E+02  0.20363094157E+02  0.51100000000E-03 0.  1.
         12    1    3    3    0    0  0.11053254778E+02  0.12906577341E+02  0.14971229097E+02  0.22647116384E+02  0.00000000000E+00 0. -1.
</event>
<event>
 7    1  0.2647566E-010  0.4778727E+02  0.7816164E-02  0.1312668E+00
        -11   -1    0    0    0    0  0.00000000000E+00  0.00000000000E+00  0.45593999997E+02  0.45594000000E+02  0.51100000000E-03 0. -1.
         11   -1    0    0    0    0 -0.00000000000E+00 -0.00000000000E+00 -0.45593999997E+02  0.45594000000E+02  0.51100000000E-03 0.  1.
    9900012    2    1    2    0    0  0.22267164852E+02  0.16962444465E+02 -0.33167335848E+02  0.47787270513E+02  0.19999997576E+02 0.  0.
         12    1    1    2    0    0 -0.22267164852E+02 -0.16962444465E+02  0.33167335848E+02  0.43400729487E+02  0.00000000000E+00 0. -1.
         11    1    3    3    0    0  0.89418550979E+01  0.42203501147E+01 -0.79367841210E+01  0.12679143115E+02  0.51100000000E-03 0. -1.
        -11    1    3    3    0    0  0.16697711796E+02  0.87848388579E+01 -0.17137417155E+02  0.25488782630E+02  0.51100000000E-03 0.  1.
         12    1    3    3    0    0 -0.33724020416E+01  0.39572554927E+01 -0.80931345717E+01  0.96193447678E+01  0.00000000000E+00 0. -1.
</event>
<event>
 7    1  0.2647566E-010  0.4778727E+02  0.7816164E-02  0.1312668E+00
        -11   -1    0    0    0    0  0.00000000000E+00  0.00000000000E+00  0.45593999997E+02  0.45594000000E+02  0.51100000000E-03 0.  1.
         11   -1    0    0    0    0 -0.00000000000E+00 -0.00000000000E+00 -0.45593999997E+02  0.45594000000E+02  0.51100000000E-03 0. -1.
    9900012    2    1    2    0    0  0.32961267417E+02 -0.22422642953E+01  0.28145168431E+02  0.47787269534E+02  0.19999993116E+02 0.  0.
         12    1    1    2    0    0 -0.32961267417E+02  0.22422642953E+01 -0.28145168431E+02  0.43400730466E+02  0.00000000000E+00 0. -1.
         11    1    3    3    0    0  0.23484611758E+02 -0.15207406054E+01  0.16027326173E+02  0.28473054384E+02  0.51100000000E-03 0. -1.
        -11    1    3    3    0    0  0.10374781701E+02 -0.43879741944E+01  0.90130594079E+01  0.14426560679E+02  0.51100000000E-03 0.  1.
         12    1    3    3    0    0 -0.89812604172E+00  0.36664505046E+01  0.31047828497E+01  0.48876544716E+01  0.00000000000E+00 0. -1.
</event>
<event>
 7    1  0.2647566E-010  0.4778727E+02  0.7816164E-02  0.1312668E+00
        -11   -1    0    0    0    0  0.00000000000E+00  0.00000000000E+00  0.45593999997E+02  0.45594000000E+02  0.51100000000E-03 0.  1.
         11   -1    0    0    0    0 -0.00000000000E+00 -0.00000000000E+00 -0.45593999997E+02  0.45594000000E+02  0.51100000000E-03 0. -1.
    9900012    2    1    2    0    0 -0.43021973861E+02  0.63227790144E+00  0.56862166225E+01  0.47787273397E+02  0.20000010725E+02 0.  0.
         12    1    1    2    0    0  0.43021973861E+02 -0.63227790144E+00 -0.56862166225E+01  0.43400726603E+02  0.00000000000E+00 0. -1.
         11    1    3    3    0    0  0.14493770098E+00 -0.21046073990E+01 -0.80438772034E+00  0.22577464665E+01  0.51100000000E-03 0. -1.
        -11    1    3    3    0    0 -0.81841830349E+01  0.53364409681E+01  0.32692760163E+01  0.10302748181E+02  0.51100000000E-03 0.  1.
         12    1    3    3    0    0 -0.34982728527E+02 -0.25995556676E+01  0.32213283266E+01  0.35226778749E+02  0.00000000000E+00 0. -1.
</event>
