<event>
 7    1  0.3910495E-008  0.4614232E+02  0.7816164E-02  0.1320468E+00
        -11   -1    0    0    0    0  0.00000000000E+00  0.00000000000E+00  0.45593999997E+02  0.45594000000E+02  0.51100000000E-03 0.  1.
         11   -1    0    0    0    0 -0.00000000000E+00 -0.00000000000E+00 -0.45593999997E+02  0.45594000000E+02  0.51100000000E-03 0. -1.
    9900012    2    1    2    0    0  0.22231100209E+01  0.86940530676E+01 -0.44142776561E+02  0.46142317638E+02  0.99999988784E+01 0.  0.
        -12    1    1    2    0    0 -0.22231100209E+01 -0.86940530676E+01  0.44142776561E+02  0.45045682362E+02  0.00000000000E+00 0.  1.
         11    1    3    3    0    0 -0.22629221380E+01 -0.39718339784E+00 -0.12537326418E+02  0.12746102354E+02  0.51100000000E-03 0. -1.
        -11    1    3    3    0    0  0.20101406256E+01  0.72896964990E+01 -0.19646355482E+02  0.21051356830E+02  0.51100000000E-03 0.  1.
        -12    1    3    3    0    0  0.24758915333E+01  0.18015399664E+01 -0.11959094661E+02  0.12344858454E+02  0.00000000000E+00 0.  1.
</event>
<event>
 7    1  0.3910495E-008  0.4614232E+02  0.7816164E-02  0.1320468E+00
        -11   -1    0    0    0    0  0.00000000000E+00  0.00000000000E+00  0.45593999997E+02  0.45594000000E+02  0.51100000000E-03 0.  1.
         11   -1    0    0    0    0 -0.00000000000E+00 -0.00000000000E+00 -0.45593999997E+02  0.45594000000E+02  0.51100000000E-03 0. -1.
    9900012    2    1    2    0    0  0.35057250967E+02  0.24861862273E+02 -0.13490370083E+02  0.46142321783E+02  0.10000036674E+02 0.  0.
        -12    1    1    2    0    0 -0.35057250967E+02 -0.24861862273E+02  0.13490370083E+02  0.45045678217E+02  0.00000000000E+00 0.  1.
         11    1    3    3    0    0  0.12568472096E+02  0.10404362083E+02 -0.37925901344E+01  0.16751148658E+02  0.51100000000E-03 0. -1.
        -11    1    3    3    0    0  0.13412290917E+02  0.12751294529E+02 -0.62537113936E+01  0.19534430278E+02  0.51100000000E-03 0.  1.
        -12    1    3    3    0    0  0.90764879547E+01  0.17062056607E+01 -0.34440685552E+01  0.98567428474E+01  0.00000000000E+00 0.  1.
</event>
<event>
 7    1  0.3910495E-008  0.4614232E+02  0.7816164E-02  0.1320468E+00
        -11   -1    0    0    0    0  0.00000000000E+00  0.00000000000E+00  0.45593999997E+02  0.45594000000E+02  0.51100000000E-03 0.  1.
         11   -1    0    0    0    0 -0.00000000000E+00 -0.00000000000E+00 -0.45593999997E+02  0.45594000000E+02  0.51100000000E-03 0. -1.
    9900012    2    1    2    0    0 -0.26659537897E+02 -0.18769099242E+02 -0.31082205063E+02  0.46142317423E+02  0.99999969146E+01 0.  0.
        -12    1    1    2    0    0  0.26659537897E+02  0.18769099242E+02  0.31082205063E+02  0.45045682577E+02  0.00000000000E+00 0.  1.
         11    1    3    3    0    0 -0.12162981788E+02 -0.71922317627E+01 -0.13804827316E+02  0.19754482559E+02  0.51100000000E-03 0. -1.
        -11    1    3    3    0    0 -0.92792362556E+01 -0.89515414202E+01 -0.72722505159E+01  0.14802700670E+02  0.51100000000E-03 0.  1.
        -12    1    3    3    0    0 -0.52173198536E+01 -0.26253260595E+01 -0.10005127232E+02  0.11585134194E+02  0.00000000000E+00 0.  1.
</event>
<event>
 7    1  0.3910495E-008  0.4614232E+02  0.7816164E-02  0.1320468E+00
        -11   -1    0    0    0    0  0.00000000000E+00  0.00000000000E+00  0.45593999997E+02  0.45594000000E+02  0.51100000000E-03 0.  1.
         11   -1    0    0    0    0 -0.00000000000E+00 -0.00000000000E+00 -0.45593999997E+02  0.45594000000E+02  0.51100000000E-03 0. -1.
    9900012    2    1    2    0    0 -0.37282205068E+02  0.16149382017E+02 -0.19451170624E+02  0.46142318821E+02  0.10000009665E+02 0.  0.
        -12    1    1    2    0    0  0.37282205068E+02 -0.16149382017E+02  0.19451170624E+02  0.45045681179E+02  0.00000000000E+00 0.  1.
         11    1    3    3    0    0 -0.21674594426E+02  0.98385907150E+01 -0.10623841339E+02  0.26066298469E+02  0.51100000000E-03 0. -1.
        -11    1    3    3    0    0 -0.15196190167E+02  0.59039485719E+01 -0.62909209146E+01  0.17474452510E+02  0.51100000000E-03 0.  1.
        -12    1    3    3    0    0 -0.41142047480E+00  0.40684272962E+00 -0.25364083707E+01  0.26015678421E+01  0.00000000000E+00 0.  1.
</event>
<event>
 7    1  0.3910495E-008  0.4614233E+02  0.7816164E-02  0.1320468E+00
        -11   -1    0    0    0    0  0.00000000000E+00  0.00000000000E+00  0.45593999997E+02  0.45594000000E+02  0.51100000000E-03 0.  1.
         11   -1    0    0    0    0 -0.00000000000E+00 -0.00000000000E+00 -0.45593999997E+02  0.45594000000E+02  0.51100000000E-03 0. -1.
    9900012    2    1    2    0    0  0.10514124111E+02  0.19539875425E+02 -0.39201520263E+02  0.46142326197E+02  0.10000076923E+02 0.  0.
        -12    1    1    2    0    0 -0.10514124111E+02 -0.19539875425E+02  0.39201520263E+02  0.45045673803E+02  0.00000000000E+00 0.  1.
         11    1    3    3    0    0  0.35325280576E+01  0.10274123614E+01 -0.66748184128E+01  0.76215176797E+01  0.51100000000E-03 0. -1.
        -11    1    3    3    0    0  0.11148328483E+01  0.50591188968E+00 -0.47297734066E+01  0.48856479466E+01  0.51100000000E-03 0.  1.
        -12    1    3    3    0    0  0.58667632049E+01  0.18006551174E+02 -0.27796928444E+02  0.33635160570E+02  0.00000000000E+00 0.  1.
</event>
<event>
 7    1  0.3910495E-008  0.4614232E+02  0.7816164E-02  0.1320468E+00
        -11   -1    0    0    0    0  0.00000000000E+00  0.00000000000E+00  0.45593999997E+02  0.45594000000E+02  0.51100000000E-03 0.  1.
         11   -1    0    0    0    0 -0.00000000000E+00 -0.00000000000E+00 -0.45593999997E+02  0.45594000000E+02  0.51100000000E-03 0. -1.
    9900012    2    1    2    0    0  0.24855404335E+02  0.33225343056E+02 -0.17532790973E+02  0.46142319795E+02  0.10000018546E+02 0.  0.
        -12    1    1    2    0    0 -0.24855404335E+02 -0.33225343056E+02  0.17532790973E+02  0.45045680205E+02  0.00000000000E+00 0.  1.
         11    1    3    3    0    0  0.13524805831E+02  0.23100270068E+02 -0.11276574024E+02  0.29046582793E+02  0.51100000000E-03 0. -1.
        -11    1    3    3    0    0  0.37138564005E+01  0.46413201333E+01 -0.47093129896E+01  0.75836805733E+01  0.51100000000E-03 0.  1.
        -12    1    3    3    0    0  0.76167421032E+01  0.54837528546E+01 -0.15469039599E+01  0.95120564285E+01  0.00000000000E+00 0.  1.
</event>
<event>
 7    1  0.3910495E-008  0.4614232E+02  0.7816164E-02  0.1320468E+00
        -11   -1    0    0    0    0  0.00000000000E+00  0.00000000000E+00  0.45593999997E+02  0.45594000000E+02  0.51100000000E-03 0.  1.
         11   -1    0    0    0    0 -0.00000000000E+00 -0.00000000000E+00 -0.45593999997E+02  0.45594000000E+02  0.51100000000E-03 0. -1.
    9900012    2    1    2    0    0  0.12457705540E+02  0.93625729735E+01 -0.42264183032E+02  0.46142319104E+02  0.10000012248E+02 0.  0.
        -12    1    1    2    0    0 -0.12457705540E+02 -0.93625729735E+01  0.42264183032E+02  0.45045680896E+02  0.00000000000E+00 0.  1.
         11    1    3    3    0    0  0.31437560148E+01  0.48846816556E+01 -0.12426549512E+02  0.13717231856E+02  0.51100000000E-03 0. -1.
        -11    1    3    3    0    0  0.57376803452E+01  0.38028914110E+01 -0.93158711588E+01  0.11583109019E+02  0.51100000000E-03 0.  1.
         12    1    3    3    0    0  0.35762691795E+01  0.67499990694E+00 -0.20521762361E+02  0.20841978230E+02  0.00000000000E+00 0. -1.
</event>
<event>
 7    1  0.3910495E-008  0.4614232E+02  0.7816164E-02  0.1320468E+00
        -11   -1    0    0    0    0  0.00000000000E+00  0.00000000000E+00  0.45593999997E+02  0.45594000000E+02  0.51100000000E-03 0. -1.
         11   -1    0    0    0    0 -0.00000000000E+00 -0.00000000000E+00 -0.45593999997E+02  0.45594000000E+02  0.51100000000E-03 0.  1.
    9900012    2    1    2    0    0 -0.72919401043E+01 -0.44107658076E+02  0.55186569858E+01  0.46142318005E+02  0.10000002225E+02 0.  0.
        -12    1    1    2    0    0  0.72919401043E+01  0.44107658076E+02 -0.55186569858E+01  0.45045681995E+02  0.00000000000E+00 0.  1.
         11    1    3    3    0    0 -0.28600050285E+01 -0.12035781676E+02  0.47363537990E+01  0.13246611525E+02  0.51100000000E-03 0. -1.
        -11    1    3    3    0    0  0.13785291041E+01 -0.67854856768E+01 -0.26528728711E+00  0.69291800356E+01  0.51100000000E-03 0.  1.
         12    1    3    3    0    0 -0.58104641799E+01 -0.25286390723E+02  0.10475904740E+01  0.25966526445E+02  0.00000000000E+00 0. -1.
</event>
<event>
 7    1  0.3910495E-008  0.4614232E+02  0.7816164E-02  0.1320468E+00
        -11   -1    0    0    0    0  0.00000000000E+00  0.00000000000E+00  0.45593999997E+02  0.45594000000E+02  0.51100000000E-03 0. -1.
         11   -1    0    0    0    0 -0.00000000000E+00 -0.00000000000E+00 -0.45593999997E+02  0.45594000000E+02  0.51100000000E-03 0.  1.
    9900012    2    1    2    0    0  0.75663396143E+01  0.30468667656E+02  0.32303626111E+02  0.46142318034E+02  0.10000002486E+02 0.  0.
        -12    1    1    2    0    0 -0.75663396143E+01 -0.30468667656E+02 -0.32303626111E+02  0.45045681966E+02  0.00000000000E+00 0.  1.
         11    1    3    3    0    0  0.53901642878E+01  0.21213624632E+02  0.23629517357E+02  0.32209095484E+02  0.51100000000E-03 0. -1.
        -11    1    3    3    0    0  0.21040048721E+01  0.31718204727E+01  0.64635981750E+00  0.38607075630E+01  0.51100000000E-03 0.  1.
         12    1    3    3    0    0  0.72170454391E-01  0.60832225510E+01  0.80277489359E+01  0.10072514987E+02  0.00000000000E+00 0. -1.
</event>
<event>
 7    1  0.3910495E-008  0.4614232E+02  0.7816164E-02  0.1320468E+00
        -11   -1    0    0    0    0  0.00000000000E+00  0.00000000000E+00  0.45593999997E+02  0.45594000000E+02  0.51100000000E-03 0. -1.
         11   -1    0    0    0    0 -0.00000000000E+00 -0.00000000000E+00 -0.45593999997E+02  0.45594000000E+02  0.51100000000E-03 0.  1.
    9900012    2    1    2    0    0 -0.13531860588E+02  0.36515727768E+02  0.22640756401E+02  0.46142317901E+02  0.10000001273E+02 0.  0.
        -12    1    1    2    0    0  0.13531860588E+02 -0.36515727768E+02 -0.22640756401E+02  0.45045682099E+02  0.00000000000E+00 0.  1.
         11    1    3    3    0    0 -0.42089642040E+01  0.10106062020E+02  0.55029155320E+01  0.12252752705E+02  0.51100000000E-03 0. -1.
        -11    1    3    3    0    0 -0.79649012717E+01  0.26255431755E+02  0.17411995508E+02  0.32495614115E+02  0.51100000000E-03 0.  1.
        -12    1    3    3    0    0 -0.13579951122E+01  0.15423399253E+00 -0.27415463889E+00  0.13939510807E+01  0.00000000000E+00 0.  1.
</event>
<event>
 7    1  0.3910495E-008  0.4614233E+02  0.7816164E-02  0.1320468E+00
        -11   -1    0    0    0    0  0.00000000000E+00  0.00000000000E+00  0.45593999997E+02  0.45594000000E+02  0.51100000000E-03 0.  1.
         11   -1    0    0    0    0 -0.00000000000E+00 -0.00000000000E+00 -0.45593999997E+02  0.45594000000E+02  0.51100000000E-03 0. -1.
    9900012    2    1    2    0    0 -0.80015076395E+01 -0.88531237850E+01 -0.43436282537E+02  0.46142328000E+02  0.10000093370E+02 0.  0.
        -12    1    1    2    0    0  0.80015076395E+01  0.88531237850E+01  0.43436282537E+02  0.45045672000E+02  0.00000000000E+00 0.  1.
         11    1    3    3    0    0 -0.32139420983E+01 -0.40502788061E+01 -0.17851110823E+02  0.18584841676E+02  0.51100000000E-03 0. -1.
        -11    1    3    3    0    0 -0.38952718498E+01 -0.65297786910E+01 -0.23533133618E+02  0.24730942778E+02  0.51100000000E-03 0.  1.
        -12    1    3    3    0    0 -0.89229369147E+00  0.17269337121E+01 -0.20520380960E+01  0.28265435474E+01  0.00000000000E+00 0.  1.
</event>
<event>
 7    1  0.3910495E-008  0.4614232E+02  0.7816164E-02  0.1320468E+00
        -11   -1    0    0    0    0  0.00000000000E+00  0.00000000000E+00  0.45593999997E+02  0.45594000000E+02  0.51100000000E-03 0. -1.
         11   -1    0    0    0    0 -0.00000000000E+00 -0.00000000000E+00 -0.45593999997E+02  0.45594000000E+02  0.51100000000E-03 0.  1.
    9900012    2    1    2    0    0  0.26681000823E+02 -0.12568006551E+02  0.34048242646E+02  0.46142318510E+02  0.10000006831E+02 0.  0.
        -12    1    1    2    0    0 -0.26681000823E+02  0.12568006551E+02 -0.34048242646E+02  0.45045681490E+02  0.00000000000E+00 0.  1.
         11    1    3    3    0    0  0.62583924810E+01  0.90283476399E-01  0.10787909417E+02  0.12472153679E+02  0.51100000000E-03 0. -1.
        -11    1    3    3    0    0  0.14098456713E+02 -0.83025007273E+01  0.13250171257E+02  0.21053860421E+02  0.51100000000E-03 0.  1.
        -12    1    3    3    0    0  0.63241516284E+01 -0.43557893004E+01  0.10010161973E+02  0.12616304410E+02  0.00000000000E+00 0.  1.
</event>
<event>
 7    1  0.3910495E-008  0.4614232E+02  0.7816164E-02  0.1320468E+00
        -11   -1    0    0    0    0  0.00000000000E+00  0.00000000000E+00  0.45593999997E+02  0.45594000000E+02  0.51100000000E-03 0.  1.
         11   -1    0    0    0    0 -0.00000000000E+00 -0.00000000000E+00 -0.45593999997E+02  0.45594000000E+02  0.51100000000E-03 0. -1.
    9900012    2    1    2    0    0  0.12000385544E+02 -0.21437611761E+01 -0.43364831206E+02  0.46142317069E+02  0.99999936870E+01 0.  0.
        -12    1    1    2    0    0 -0.12000385544E+02  0.21437611761E+01  0.43364831206E+02  0.45045682931E+02  0.00000000000E+00 0.  1.
         11    1    3    3    0    0  0.12738830913E+01 -0.22666164914E+01 -0.79387870028E+01  0.83537217925E+01  0.51100000000E-03 0. -1.
        -11    1    3    3    0    0  0.13024250733E+01 -0.23912245572E+01 -0.36791317716E+01  0.45771472347E+01  0.51100000000E-03 0.  1.
        -12    1    3    3    0    0  0.94240773796E+01  0.25140798725E+01 -0.31746912432E+02  0.33211448042E+02  0.00000000000E+00 0.  1.
</event>
<event>
 7    1  0.3910495E-008  0.4614232E+02  0.7816164E-02  0.1320468E+00
        -11   -1    0    0    0    0  0.00000000000E+00  0.00000000000E+00  0.45593999997E+02  0.45594000000E+02  0.51100000000E-03 0. -1.
         11   -1    0    0    0    0 -0.00000000000E+00 -0.00000000000E+00 -0.45593999997E+02  0.45594000000E+02  0.51100000000E-03 0.  1.
    9900012    2    1    2    0    0  0.31062384025E+02 -0.16085486334E+02  0.28381313294E+02  0.46142317452E+02  0.99999971823E+01 0.  0.
        -12    1    1    2    0    0 -0.31062384025E+02  0.16085486334E+02 -0.28381313294E+02  0.45045682548E+02  0.00000000000E+00 0.  1.
         11    1    3    3    0    0  0.18189016085E+02 -0.10682838547E+02  0.16178269737E+02  0.26583825110E+02  0.51100000000E-03 0. -1.
        -11    1    3    3    0    0  0.35946904433E+01 -0.47056621966E+01  0.39243014927E+01  0.71038861589E+01  0.51100000000E-03 0.  1.
        -12    1    3    3    0    0  0.92786774972E+01 -0.69698559046E+00  0.82787420640E+01  0.12454606183E+02  0.00000000000E+00 0.  1.
</event>
<event>
 7    1  0.3910495E-008  0.4614232E+02  0.7816164E-02  0.1320468E+00
        -11   -1    0    0    0    0  0.00000000000E+00  0.00000000000E+00  0.45593999997E+02  0.45594000000E+02  0.51100000000E-03 0. -1.
         11   -1    0    0    0    0 -0.00000000000E+00 -0.00000000000E+00 -0.45593999997E+02  0.45594000000E+02  0.51100000000E-03 0.  1.
    9900012    2    1    2    0    0  0.16347948578E+02 -0.23681097095E+02  0.34656362453E+02  0.46142320509E+02  0.10000025056E+02 0.  0.
        -12    1    1    2    0    0 -0.16347948578E+02  0.23681097095E+02 -0.34656362453E+02  0.45045679491E+02  0.00000000000E+00 0.  1.
         11    1    3    3    0    0  0.39979925043E+01 -0.74768353055E+01  0.16808060891E+02  0.18825459394E+02  0.51100000000E-03 0. -1.
        -11    1    3    3    0    0  0.20805288550E-01 -0.35515394538E+00  0.11413808019E+01  0.11955407065E+01  0.51100000000E-03 0.  1.
        -12    1    3    3    0    0  0.12329150786E+02 -0.15849107844E+02  0.16706920761E+02  0.26121320408E+02  0.00000000000E+00 0.  1.
</event>
<event>
 7    1  0.3910495E-008  0.4614231E+02  0.7816164E-02  0.1320468E+00
        -11   -1    0    0    0    0  0.00000000000E+00  0.00000000000E+00  0.45593999997E+02  0.45594000000E+02  0.51100000000E-03 0.  1.
         11   -1    0    0    0    0 -0.00000000000E+00 -0.00000000000E+00 -0.45593999997E+02  0.45594000000E+02  0.51100000000E-03 0. -1.
    9900012    2    1    2    0    0  0.19290638168E+02 -0.16178125047E+02 -0.37353089995E+02  0.46142314489E+02  0.99999701648E+01 0.  0.
        -12    1    1    2    0    0 -0.19290638168E+02  0.16178125047E+02  0.37353089995E+02  0.45045685511E+02  0.00000000000E+00 0.  1.
         11    1    3    3    0    0  0.61305329188E+01 -0.93236089318E+01 -0.18217692132E+02  0.21363460025E+02  0.51100000000E-03 0. -1.
        -11    1    3    3    0    0  0.87113591452E+01 -0.60753679227E+01 -0.16271615095E+02  0.19430988951E+02  0.51100000000E-03 0.  1.
        -12    1    3    3    0    0  0.44487461039E+01 -0.77914819276E+00 -0.28637827681E+01  0.53478655131E+01  0.00000000000E+00 0.  1.
</event>
<event>
 7    1  0.3910495E-008  0.4614232E+02  0.7816164E-02  0.1320468E+00
        -11   -1    0    0    0    0  0.00000000000E+00  0.00000000000E+00  0.45593999997E+02  0.45594000000E+02  0.51100000000E-03 0.  1.
         11   -1    0    0    0    0 -0.00000000000E+00 -0.00000000000E+00 -0.45593999997E+02  0.45594000000E+02  0.51100000000E-03 0. -1.
    9900012    2    1    2    0    0 -0.44403415544E+02 -0.31194688529E+00 -0.75731431964E+01  0.46142321842E+02  0.10000037211E+02 0.  0.
        -12    1    1    2    0    0  0.44403415544E+02  0.31194688529E+00  0.75731431964E+01  0.45045678158E+02  0.00000000000E+00 0.  1.
         11    1    3    3    0    0 -0.26382260202E+02  0.91904024781E+00 -0.65135687748E+01  0.27189977322E+02  0.51100000000E-03 0. -1.
        -11    1    3    3    0    0 -0.10434833557E+02 -0.34332849041E+01 -0.23412266857E-01  0.10985160217E+02  0.51100000000E-03 0.  1.
         12    1    3    3    0    0 -0.75863217851E+01  0.22022977710E+01 -0.10361621548E+01  0.79671843025E+01  0.00000000000E+00 0. -1.
</event>
<event>
 7    1  0.3910495E-008  0.4614232E+02  0.7816164E-02  0.1320468E+00
        -11   -1    0    0    0    0  0.00000000000E+00  0.00000000000E+00  0.45593999997E+02  0.45594000000E+02  0.51100000000E-03 0.  1.
         11   -1    0    0    0    0 -0.00000000000E+00 -0.00000000000E+00 -0.45593999997E+02  0.45594000000E+02  0.51100000000E-03 0. -1.
    9900012    2    1    2    0    0  0.27783430579E+02 -0.21818283085E+02 -0.27949187834E+02  0.46142316610E+02  0.99999895016E+01 0.  0.
        -12    1    1    2    0    0 -0.27783430579E+02  0.21818283085E+02  0.27949187834E+02  0.45045683390E+02  0.00000000000E+00 0.  1.
         11    1    3    3    0    0  0.42287438169E+01 -0.61622161617E+01 -0.62195229366E+01  0.97230472647E+01  0.51100000000E-03 0. -1.
        -11    1    3    3    0    0  0.59265149323E+01 -0.44637535277E+00 -0.43448474477E+01  0.73621009096E+01  0.51100000000E-03 0.  1.
         12    1    3    3    0    0  0.17628171830E+02 -0.15209691571E+02 -0.17384817450E+02  0.29057168435E+02  0.00000000000E+00 0. -1.
</event>
<event>
 7    1  0.3910495E-008  0.4614232E+02  0.7816164E-02  0.1320468E+00
        -11   -1    0    0    0    0  0.00000000000E+00  0.00000000000E+00  0.45593999997E+02  0.45594000000E+02  0.51100000000E-03 0.  1.
         11   -1    0    0    0    0 -0.00000000000E+00 -0.00000000000E+00 -0.45593999997E+02  0.45594000000E+02  0.51100000000E-03 0. -1.
    9900012    2    1    2    0    0 -0.20810507183E+02  0.19437724787E+02 -0.34902880120E+02  0.46142318800E+02  0.10000009475E+02 0.  0.
        -12    1    1    2    0    0  0.20810507183E+02 -0.19437724787E+02  0.34902880120E+02  0.45045681200E+02  0.00000000000E+00 0.  1.
         11    1    3    3    0    0 -0.23429752041E+01  0.76857163573E+01 -0.10347956962E+02  0.13101144312E+02  0.51100000000E-03 0. -1.
        -11    1    3    3    0    0 -0.69146625504E+01  0.41712941162E+01 -0.11338338404E+02  0.13920135445E+02  0.51100000000E-03 0.  1.
         12    1    3    3    0    0 -0.11552869428E+02  0.75807143134E+01 -0.13216584754E+02  0.19121039043E+02  0.00000000000E+00 0. -1.
</event>
<event>
 7    1  0.3910495E-008  0.4614232E+02  0.7816164E-02  0.1320468E+00
        -11   -1    0    0    0    0  0.00000000000E+00  0.00000000000E+00  0.45593999997E+02  0.45594000000E+02  0.51100000000E-03 0.  1.
         11   -1    0    0    0    0 -0.00000000000E+00 -0.00000000000E+00 -0.45593999997E+02  0.45594000000E+02  0.51100000000E-03 0. -1.
    9900012    2    1    2    0    0 -0.34399011460E+02 -0.19660537696E+01 -0.29016480356E+02  0.46142317752E+02  0.99999999200E+01 0.  0.
        -12    1    1    2    0    0  0.34399011460E+02  0.19660537696E+01  0.29016480356E+02  0.45045682248E+02  0.00000000000E+00 0.  1.
         11    1    3    3    0    0 -0.12592923241E+02  0.96023169257E+00 -0.69197213115E+01  0.14400913303E+02  0.51100000000E-03 0. -1.
        -11    1    3    3    0    0 -0.65119762875E+01 -0.28778935763E+01 -0.98203714254E+01  0.12129624965E+02  0.51100000000E-03 0.  1.
         12    1    3    3    0    0 -0.15294111932E+02 -0.48391885914E-01 -0.12276387620E+02  0.19611779484E+02  0.00000000000E+00 0. -1.
</event>
<event>
 7    1  0.3910495E-008  0.4614232E+02  0.7816164E-02  0.1320468E+00
        -11   -1    0    0    0    0  0.00000000000E+00  0.00000000000E+00  0.45593999997E+02  0.45594000000E+02  0.51100000000E-03 0.  1.
         11   -1    0    0    0    0 -0.00000000000E+00 -0.00000000000E+00 -0.45593999997E+02  0.45594000000E+02  0.51100000000E-03 0. -1.
    9900012    2    1    2    0    0 -0.25992987360E+02 -0.88618784193E+01 -0.35706375707E+02  0.46142317108E+02  0.99999940483E+01 0.  0.
        -12    1    1    2    0    0  0.25992987360E+02  0.88618784193E+01  0.35706375707E+02  0.45045682892E+02  0.00000000000E+00 0.  1.
         11    1    3    3    0    0 -0.21969672127E+01  0.58190780410E+00 -0.14014711548E+01  0.26700942465E+01  0.51100000000E-03 0.  1.
        -11    1    3    3    0    0 -0.12416229909E+01 -0.29767745685E+01 -0.37059554141E+01  0.49129339784E+01  0.51100000000E-03 0. -1.
         12    1    3    3    0    0 -0.22554397156E+02 -0.64670116549E+01 -0.30598949138E+02  0.38559288884E+02  0.00000000000E+00 0. -1.
</event>
<event>
 7    1  0.3910495E-008  0.4614232E+02  0.7816164E-02  0.1320468E+00
        -11   -1    0    0    0    0  0.00000000000E+00  0.00000000000E+00  0.45593999997E+02  0.45594000000E+02  0.51100000000E-03 0.  1.
         11   -1    0    0    0    0 -0.00000000000E+00 -0.00000000000E+00 -0.45593999997E+02  0.45594000000E+02  0.51100000000E-03 0. -1.
    9900012    2    1    2    0    0  0.38927834551E+02  0.18604751541E+02 -0.12946055833E+02  0.46142318249E+02  0.10000004451E+02 0.  0.
        -12    1    1    2    0    0 -0.38927834551E+02 -0.18604751541E+02  0.12946055833E+02  0.45045681751E+02  0.00000000000E+00 0.  1.
         11    1    3    3    0    0  0.43678102610E+01  0.80661518754E+00 -0.10857216203E+01  0.45724376687E+01  0.51100000000E-03 0. -1.
        -11    1    3    3    0    0  0.52059761369E+01  0.63922596366E+01 -0.37090966533E+01  0.90399429779E+01  0.51100000000E-03 0.  1.
        -12    1    3    3    0    0  0.29354048153E+02  0.11405876717E+02 -0.81512375592E+01  0.32529937603E+02  0.00000000000E+00 0.  1.
</event>
<event>
 7    1  0.3910495E-008  0.4614231E+02  0.7816164E-02  0.1320468E+00
        -11   -1    0    0    0    0  0.00000000000E+00  0.00000000000E+00  0.45593999997E+02  0.45594000000E+02  0.51100000000E-03 0.  1.
         11   -1    0    0    0    0 -0.00000000000E+00 -0.00000000000E+00 -0.45593999997E+02  0.45594000000E+02  0.51100000000E-03 0. -1.
    9900012    2    1    2    0    0  0.20584155340E+02  0.28152476953E+02 -0.28510431367E+02  0.46142310902E+02  0.99999374499E+01 0.  0.
        -12    1    1    2    0    0 -0.20584155340E+02 -0.28152476953E+02  0.28510431367E+02  0.45045689098E+02  0.00000000000E+00 0.  1.
         11    1    3    3    0    0  0.57948665573E+01  0.47836786675E+01 -0.75506998032E+01  0.10652564376E+02  0.51100000000E-03 0. -1.
        -11    1    3    3    0    0  0.15144107219E+02  0.19981318900E+02 -0.19593891318E+02  0.31820082742E+02  0.51100000000E-03 0.  1.
        -12    1    3    3    0    0 -0.35481843661E+00  0.33874793855E+01 -0.13658402455E+01  0.36696637839E+01  0.00000000000E+00 0.  1.
</event>
<event>
 7    1  0.3910495E-008  0.4614232E+02  0.7816164E-02  0.1320468E+00
        -11   -1    0    0    0    0  0.00000000000E+00  0.00000000000E+00  0.45593999997E+02  0.45594000000E+02  0.51100000000E-03 0.  1.
         11   -1    0    0    0    0 -0.00000000000E+00 -0.00000000000E+00 -0.45593999997E+02  0.45594000000E+02  0.51100000000E-03 0. -1.
    9900012    2    1    2    0    0 -0.10136383755E+02  0.16531503392E+02 -0.40658046900E+02  0.46142315881E+02  0.99999828514E+01 0.  0.
        -12    1    1    2    0    0  0.10136383755E+02 -0.16531503392E+02  0.40658046900E+02  0.45045684119E+02  0.00000000000E+00 0.  1.
         11    1    3    3    0    0 -0.52624315497E+01  0.53126913970E+01 -0.13578406402E+02  0.15501322407E+02  0.51100000000E-03 0. -1.
        -11    1    3    3    0    0  0.12346651566E+01  0.45378773132E+01 -0.13715954376E+02  0.14499797697E+02  0.51100000000E-03 0.  1.
        -12    1    3    3    0    0 -0.61086173619E+01  0.66809346822E+01 -0.13363686123E+02  0.16141195776E+02  0.00000000000E+00 0.  1.
</event>
<event>
 7    1  0.3910495E-008  0.4614232E+02  0.7816164E-02  0.1320468E+00
        -11   -1    0    0    0    0  0.00000000000E+00  0.00000000000E+00  0.45593999997E+02  0.45594000000E+02  0.51100000000E-03 0.  1.
         11   -1    0    0    0    0 -0.00000000000E+00 -0.00000000000E+00 -0.45593999997E+02  0.45594000000E+02  0.51100000000E-03 0. -1.
    9900012    2    1    2    0    0 -0.25115971323E+02  0.12664966565E+02 -0.35183803672E+02  0.46142318360E+02  0.10000005462E+02 0.  0.
        -12    1    1    2    0    0  0.25115971323E+02 -0.12664966565E+02  0.35183803672E+02  0.45045681640E+02  0.00000000000E+00 0.  1.
         11    1    3    3    0    0 -0.79994696527E+01  0.22074908093E+01 -0.61599280443E+01  0.10334855789E+02  0.51100000000E-03 0. -1.
        -11    1    3    3    0    0 -0.22045937981E+01 -0.73736361655E+00 -0.32480166080E+01  0.39941896630E+01  0.51100000000E-03 0.  1.
         12    1    3    3    0    0 -0.14911907872E+02  0.11194839372E+02 -0.25775859019E+02  0.31813272908E+02  0.00000000000E+00 0. -1.
</event>
<event>
 7    1  0.3910495E-008  0.4614232E+02  0.7816164E-02  0.1320468E+00
        -11   -1    0    0    0    0  0.00000000000E+00  0.00000000000E+00  0.45593999997E+02  0.45594000000E+02  0.51100000000E-03 0.  1.
         11   -1    0    0    0    0 -0.00000000000E+00 -0.00000000000E+00 -0.45593999997E+02  0.45594000000E+02  0.51100000000E-03 0. -1.
    9900012    2    1    2    0    0  0.75807681591E+00 -0.22796132842E+02 -0.38844241453E+02  0.46142318220E+02  0.10000004181E+02 0.  0.
        -12    1    1    2    0    0 -0.75807681591E+00  0.22796132842E+02  0.38844241453E+02  0.45045681780E+02  0.00000000000E+00 0.  1.
         11    1    3    3    0    0 -0.27091626568E+01 -0.62635800682E+01 -0.13515215476E+02  0.15140444089E+02  0.51100000000E-03 0. -1.
        -11    1    3    3    0    0 -0.10152770781E+01 -0.20935104435E+01 -0.61823671083E+01  0.66056973020E+01  0.51100000000E-03 0.  1.
         12    1    3    3    0    0  0.44825165508E+01 -0.14439042331E+02 -0.19146658868E+02  0.24396176829E+02  0.00000000000E+00 0. -1.
</event>
<event>
 7    1  0.3910495E-008  0.4614232E+02  0.7816164E-02  0.1320468E+00
        -11   -1    0    0    0    0  0.00000000000E+00  0.00000000000E+00  0.45593999997E+02  0.45594000000E+02  0.51100000000E-03 0. -1.
         11   -1    0    0    0    0 -0.00000000000E+00 -0.00000000000E+00 -0.45593999997E+02  0.45594000000E+02  0.51100000000E-03 0.  1.
    9900012    2    1    2    0    0 -0.24632533934E+02  0.17808281683E+02  0.33244800742E+02  0.46142318732E+02  0.10000008851E+02 0.  0.
        -12    1    1    2    0    0  0.24632533934E+02 -0.17808281683E+02 -0.33244800742E+02  0.45045681268E+02  0.00000000000E+00 0.  1.
         11    1    3    3    0    0 -0.11090238030E+02  0.66254732528E+01  0.11790774762E+02  0.17490358634E+02  0.51100000000E-03 0. -1.
        -11    1    3    3    0    0 -0.90954232919E+01  0.51292193830E+01  0.76772203908E+01  0.12960529678E+02  0.51100000000E-03 0.  1.
         12    1    3    3    0    0 -0.44468726121E+01  0.60535890476E+01  0.13776805590E+02  0.15691430420E+02  0.00000000000E+00 0. -1.
</event>
<event>
 7    1  0.3910495E-008  0.4614232E+02  0.7816164E-02  0.1320468E+00
        -11   -1    0    0    0    0  0.00000000000E+00  0.00000000000E+00  0.45593999997E+02  0.45594000000E+02  0.51100000000E-03 0.  1.
         11   -1    0    0    0    0 -0.00000000000E+00 -0.00000000000E+00 -0.45593999997E+02  0.45594000000E+02  0.51100000000E-03 0. -1.
    9900012    2    1    2    0    0  0.40715467524E+02  0.18633153561E+02  0.49162749844E+01  0.46142317998E+02  0.10000002158E+02 0.  0.
        -12    1    1    2    0    0 -0.40715467524E+02 -0.18633153561E+02 -0.49162749844E+01  0.45045682002E+02  0.00000000000E+00 0.  1.
         11    1    3    3    0    0  0.23644115337E+02  0.69147813899E+01  0.99538066223E-01  0.24634697072E+02  0.51100000000E-03 0. -1.
        -11    1    3    3    0    0  0.91020694964E+01  0.45365896672E+01  0.15085782877E+01  0.10281251074E+02  0.51100000000E-03 0.  1.
        -12    1    3    3    0    0  0.79692826908E+01  0.71817825039E+01  0.33081586305E+01  0.11226369852E+02  0.00000000000E+00 0.  1.
</event>
<event>
 7    1  0.3910495E-008  0.4614232E+02  0.7816164E-02  0.1320468E+00
        -11   -1    0    0    0    0  0.00000000000E+00  0.00000000000E+00  0.45593999997E+02  0.45594000000E+02  0.51100000000E-03 0.  1.
         11   -1    0    0    0    0 -0.00000000000E+00 -0.00000000000E+00 -0.45593999997E+02  0.45594000000E+02  0.51100000000E-03 0. -1.
    9900012    2    1    2    0    0  0.20195900943E+02 -0.23520386134E+01 -0.40195857987E+02  0.46142317634E+02  0.99999988372E+01 0.  0.
        -12    1    1    2    0    0 -0.20195900943E+02  0.23520386134E+01  0.40195857987E+02  0.45045682366E+02  0.00000000000E+00 0.  1.
         11    1    3    3    0    0  0.64385633616E+01 -0.22413021696E+01 -0.68580123830E+01  0.96701017411E+01  0.51100000000E-03 0. -1.
        -11    1    3    3    0    0  0.25529904611E+01 -0.21598818722E+01 -0.89911086308E+01  0.95928559182E+01  0.51100000000E-03 0.  1.
        -12    1    3    3    0    0  0.11204347120E+02  0.20491454283E+01 -0.24346736973E+02  0.26879359974E+02  0.00000000000E+00 0.  1.
</event>
<event>
 7    1  0.3910495E-008  0.4614232E+02  0.7816164E-02  0.1320468E+00
        -11   -1    0    0    0    0  0.00000000000E+00  0.00000000000E+00  0.45593999997E+02  0.45594000000E+02  0.51100000000E-03 0. -1.
         11   -1    0    0    0    0 -0.00000000000E+00 -0.00000000000E+00 -0.45593999997E+02  0.45594000000E+02  0.51100000000E-03 0.  1.
    9900012    2    1    2    0    0 -0.20295830337E+02  0.19200708246E+02  0.35334480922E+02  0.46142317985E+02  0.10000002039E+02 0.  0.
        -12    1    1    2    0    0  0.20295830337E+02 -0.19200708246E+02 -0.35334480922E+02  0.45045682015E+02  0.00000000000E+00 0.  1.
         11    1    3    3    0    0  0.32356360976E+00  0.15930631638E+01  0.51785838968E+01  0.54277320393E+01  0.51100000000E-03 0. -1.
        -11    1    3    3    0    0 -0.10233337929E+02  0.98248076729E+01  0.13344110284E+02  0.19475968025E+02  0.51100000000E-03 0.  1.
        -12    1    3    3    0    0 -0.10386056017E+02  0.77828374098E+01  0.16811786741E+02  0.21238617920E+02  0.00000000000E+00 0.  1.
</event>
<event>
 7    1  0.3910495E-008  0.4614232E+02  0.7816164E-02  0.1320468E+00
        -11   -1    0    0    0    0  0.00000000000E+00  0.00000000000E+00  0.45593999997E+02  0.45594000000E+02  0.51100000000E-03 0.  1.
         11   -1    0    0    0    0 -0.00000000000E+00 -0.00000000000E+00 -0.45593999997E+02  0.45594000000E+02  0.51100000000E-03 0. -1.
    9900012    2    1    2    0    0  0.35657882331E+02  0.20042144261E+02 -0.18866401237E+02  0.46142320800E+02  0.10000027715E+02 0.  0.
        -12    1    1    2    0    0 -0.35657882331E+02 -0.20042144261E+02  0.18866401237E+02  0.45045679200E+02  0.00000000000E+00 0.  1.
         11    1    3    3    0    0  0.81639100874E+01  0.36549953291E+01 -0.21652377258E+01  0.92030795629E+01  0.51100000000E-03 0. -1.
        -11    1    3    3    0    0  0.95396518570E+01  0.89453558349E+01 -0.96956322457E+01  0.16279730756E+02  0.51100000000E-03 0.  1.
        -12    1    3    3    0    0  0.17954320387E+02  0.74417930966E+01 -0.70055312659E+01  0.20659510482E+02  0.00000000000E+00 0.  1.
</event>
<event>
 7    1  0.3910495E-008  0.4614232E+02  0.7816164E-02  0.1320468E+00
        -11   -1    0    0    0    0  0.00000000000E+00  0.00000000000E+00  0.45593999997E+02  0.45594000000E+02  0.51100000000E-03 0.  1.
         11   -1    0    0    0    0 -0.00000000000E+00 -0.00000000000E+00 -0.45593999997E+02  0.45594000000E+02  0.51100000000E-03 0. -1.
    9900012    2    1    2    0    0 -0.16330686085E+02  0.11077064687E+02 -0.40493466349E+02  0.46142317776E+02  0.10000000134E+02 0.  0.
        -12    1    1    2    0    0  0.16330686085E+02 -0.11077064687E+02  0.40493466349E+02  0.45045682224E+02  0.00000000000E+00 0.  1.
         11    1    3    3    0    0 -0.48712169762E+01  0.11928849666E+00 -0.59889465319E+01  0.77207813981E+01  0.51100000000E-03 0. -1.
        -11    1    3    3    0    0 -0.48383599327E+01  0.67557871511E+01 -0.12052636936E+02  0.14639550684E+02  0.51100000000E-03 0.  1.
         12    1    3    3    0    0 -0.66211091762E+01  0.42019890395E+01 -0.22451882881E+02  0.23781985694E+02  0.00000000000E+00 0. -1.
</event>
<event>
 7    1  0.3910495E-008  0.4614232E+02  0.7816164E-02  0.1320468E+00
        -11   -1    0    0    0    0  0.00000000000E+00  0.00000000000E+00  0.45593999997E+02  0.45594000000E+02  0.51100000000E-03 0.  1.
         11   -1    0    0    0    0 -0.00000000000E+00 -0.00000000000E+00 -0.45593999997E+02  0.45594000000E+02  0.51100000000E-03 0. -1.
    9900012    2    1    2    0    0 -0.11278019490E+02  0.42784123447E+02 -0.84521318884E+01  0.46142317896E+02  0.10000001230E+02 0.  0.
        -12    1    1    2    0    0  0.11278019490E+02 -0.42784123447E+02  0.84521318884E+01  0.45045682104E+02  0.00000000000E+00 0.  1.
         11    1    3    3    0    0 -0.17890336518E+00  0.64997160760E+01  0.87864999097E+00  0.65612759088E+01  0.51100000000E-03 0. -1.
        -11    1    3    3    0    0  0.35482252140E+00  0.51622362548E+01 -0.23891759252E+01  0.56993634763E+01  0.51100000000E-03 0.  1.
        -12    1    3    3    0    0 -0.11453938646E+02  0.31122171116E+02 -0.69416059542E+01  0.33881678511E+02  0.00000000000E+00 0.  1.
</event>
<event>
 7    1  0.3910495E-008  0.4614232E+02  0.7816164E-02  0.1320468E+00
        -11   -1    0    0    0    0  0.00000000000E+00  0.00000000000E+00  0.45593999997E+02  0.45594000000E+02  0.51100000000E-03 0. -1.
         11   -1    0    0    0    0 -0.00000000000E+00 -0.00000000000E+00 -0.45593999997E+02  0.45594000000E+02  0.51100000000E-03 0.  1.
    9900012    2    1    2    0    0 -0.11004553213E+02  0.53885153927E+01  0.43347171209E+02  0.46142317173E+02  0.99999946352E+01 0.  0.
        -12    1    1    2    0    0  0.11004553213E+02 -0.53885153927E+01 -0.43347171209E+02  0.45045682827E+02  0.00000000000E+00 0.  1.
         11    1    3    3    0    0 -0.71338873200E+01  0.58748968270E+01  0.21163822173E+02  0.23093595005E+02  0.51100000000E-03 0. -1.
        -11    1    3    3    0    0 -0.12363250643E+01 -0.70185836226E+00  0.10926318014E+01  0.17930279808E+01  0.51100000000E-03 0.  1.
         12    1    3    3    0    0 -0.26343408290E+01  0.21547692802E+00  0.21090717234E+02  0.21255694187E+02  0.00000000000E+00 0. -1.
</event>
<event>
 7    1  0.3910495E-008  0.4614232E+02  0.7816164E-02  0.1320468E+00
        -11   -1    0    0    0    0  0.00000000000E+00  0.00000000000E+00  0.45593999997E+02  0.45594000000E+02  0.51100000000E-03 0.  1.
         11   -1    0    0    0    0 -0.00000000000E+00 -0.00000000000E+00 -0.45593999997E+02  0.45594000000E+02  0.51100000000E-03 0. -1.
    9900012    2    1    2    0    0 -0.26578635199E+02  0.36321700191E+02 -0.18503409445E+01  0.46142317461E+02  0.99999972608E+01 0.  0.
        -12    1    1    2    0    0  0.26578635199E+02 -0.36321700191E+02  0.18503409445E+01  0.45045682539E+02  0.00000000000E+00 0.  1.
         11    1    3    3    0    0 -0.14183852383E+02  0.25995587279E+02  0.34095967682E-01  0.29613398812E+02  0.51100000000E-03 0. -1.
        -11    1    3    3    0    0 -0.99295705874E+01  0.89055318339E+01 -0.26135752399E+01  0.13591749155E+02  0.51100000000E-03 0.  1.
        -12    1    3    3    0    0 -0.24652122292E+01  0.14205810778E+01  0.72913832774E+00  0.29371694937E+01  0.00000000000E+00 0.  1.
</event>
<event>
 7    1  0.3910495E-008  0.4614232E+02  0.7816164E-02  0.1320468E+00
        -11   -1    0    0    0    0  0.00000000000E+00  0.00000000000E+00  0.45593999997E+02  0.45594000000E+02  0.51100000000E-03 0.  1.
         11   -1    0    0    0    0 -0.00000000000E+00 -0.00000000000E+00 -0.45593999997E+02  0.45594000000E+02  0.51100000000E-03 0. -1.
    9900012    2    1    2    0    0 -0.21963349620E+02 -0.29054631473E+01 -0.39220950908E+02  0.46142318379E+02  0.10000005632E+02 0.  0.
        -12    1    1    2    0    0  0.21963349620E+02  0.29054631473E+01  0.39220950908E+02  0.45045681621E+02  0.00000000000E+00 0.  1.
         11    1    3    3    0    0 -0.37145924032E+01  0.12363169108E+01 -0.59594503466E+01  0.71303383454E+01  0.51100000000E-03 0. -1.
        -11    1    3    3    0    0 -0.63950875700E+01 -0.24518763141E+00 -0.19069443179E+02  0.20114694266E+02  0.51100000000E-03 0.  1.
         12    1    3    3    0    0 -0.11853669646E+02 -0.38965924267E+01 -0.14192057382E+02  0.18897285767E+02  0.00000000000E+00 0. -1.
</event>
<event>
 7    1  0.3910495E-008  0.4614232E+02  0.7816164E-02  0.1320468E+00
        -11   -1    0    0    0    0  0.00000000000E+00  0.00000000000E+00  0.45593999997E+02  0.45594000000E+02  0.51100000000E-03 0. -1.
         11   -1    0    0    0    0 -0.00000000000E+00 -0.00000000000E+00 -0.45593999997E+02  0.45594000000E+02  0.51100000000E-03 0.  1.
    9900012    2    1    2    0    0  0.23494924545E+02 -0.30239441769E+02  0.23720840795E+02  0.46142316456E+02  0.99999880970E+01 0.  0.
        -12    1    1    2    0    0 -0.23494924545E+02  0.30239441769E+02 -0.23720840795E+02  0.45045683544E+02  0.00000000000E+00 0.  1.
         11    1    3    3    0    0  0.14779179843E+02 -0.16226917500E+02  0.13696022655E+02  0.25871181751E+02  0.51100000000E-03 0. -1.
        -11    1    3    3    0    0  0.90747490672E+01 -0.13138415268E+02  0.10599120860E+02  0.19165343453E+02  0.51100000000E-03 0.  1.
        -12    1    3    3    0    0 -0.35900436433E+00 -0.87410900106E+00 -0.57430271947E+00  0.11057912520E+01  0.00000000000E+00 0.  1.
</event>
<event>
 7    1  0.3910495E-008  0.4614231E+02  0.7816164E-02  0.1320468E+00
        -11   -1    0    0    0    0  0.00000000000E+00  0.00000000000E+00  0.45593999997E+02  0.45594000000E+02  0.51100000000E-03 0.  1.
         11   -1    0    0    0    0 -0.00000000000E+00 -0.00000000000E+00 -0.45593999997E+02  0.45594000000E+02  0.51100000000E-03 0. -1.
    9900012    2    1    2    0    0 -0.18610942560E+02  0.16495108562E+02 -0.37558730855E+02  0.46142311495E+02  0.99999428604E+01 0.  0.
        -12    1    1    2    0    0  0.18610942560E+02 -0.16495108562E+02  0.37558730855E+02  0.45045688505E+02  0.00000000000E+00 0.  1.
         11    1    3    3    0    0 -0.99490289561E+01  0.66333663364E+01 -0.15790002781E+02  0.19806789599E+02  0.51100000000E-03 0. -1.
        -11    1    3    3    0    0  0.78772026310E+00  0.17087644882E+01 -0.10681800629E+01  0.21636515886E+01  0.51100000000E-03 0.  1.
         12    1    3    3    0    0 -0.94496338670E+01  0.81529777373E+01 -0.20700548011E+02  0.24171870308E+02  0.00000000000E+00 0. -1.
</event>
<event>
 7    1  0.3969466E-008  0.4614231E+02  0.7816164E-02  0.1320468E+00
        -11   -1    0    0    0    0  0.00000000000E+00  0.00000000000E+00  0.45593999997E+02  0.45594000000E+02  0.51100000000E-03 0.  1.
         11   -1    0    0    0    0 -0.00000000000E+00 -0.00000000000E+00 -0.45593999997E+02  0.45594000000E+02  0.51100000000E-03 0. -1.
    9900012    2    1    2    0    0  0.44235877609E+02  0.60549132054E+01  0.59698502492E+01  0.46142312595E+02  0.99999528912E+01 0.  0.
        -12    1    1    2    0    0 -0.44235877609E+02 -0.60549132054E+01 -0.59698502492E+01  0.45045687405E+02  0.00000000000E+00 0.  1.
         11    1    3    3    0    0  0.18971558679E+02  0.83345603849E+00  0.26487909318E+01  0.19173700252E+02  0.51100000000E-03 0. -1.
        -11    1    3    3    0    0  0.39035770911E+01 -0.84950628845E+00 -0.14594321276E+01  0.42531773343E+01  0.51100000000E-03 0.  1.
         12    1    3    3    0    0  0.21360741839E+02  0.60709634554E+01  0.47804914449E+01  0.22715435009E+02  0.00000000000E+00 0. -1.
</event>
<event>
 7    1  0.3910495E-008  0.4614232E+02  0.7816164E-02  0.1320468E+00
        -11   -1    0    0    0    0  0.00000000000E+00  0.00000000000E+00  0.45593999997E+02  0.45594000000E+02  0.51100000000E-03 0.  1.
         11   -1    0    0    0    0 -0.00000000000E+00 -0.00000000000E+00 -0.45593999997E+02  0.45594000000E+02  0.51100000000E-03 0. -1.
    9900012    2    1    2    0    0 -0.19097747909E+02 -0.15537523644E+02 -0.37722339505E+02  0.46142317477E+02  0.99999974099E+01 0.  0.
        -12    1    1    2    0    0  0.19097747909E+02  0.15537523644E+02  0.37722339505E+02  0.45045682523E+02  0.00000000000E+00 0.  1.
         11    1    3    3    0    0 -0.44875362405E+01 -0.18523775981E+01 -0.69314057234E+01  0.84624860319E+01  0.51100000000E-03 0. -1.
        -11    1    3    3    0    0 -0.62512561446E+01 -0.13879493938E+01 -0.60207252871E+01  0.87894106827E+01  0.51100000000E-03 0.  1.
         12    1    3    3    0    0 -0.83589555242E+01 -0.12297196652E+02 -0.24770208495E+02  0.28890420762E+02  0.00000000000E+00 0. -1.
</event>
<event>
 7    1  0.3910495E-008  0.4614232E+02  0.7816164E-02  0.1320468E+00
        -11   -1    0    0    0    0  0.00000000000E+00  0.00000000000E+00  0.45593999997E+02  0.45594000000E+02  0.51100000000E-03 0.  1.
         11   -1    0    0    0    0 -0.00000000000E+00 -0.00000000000E+00 -0.45593999997E+02  0.45594000000E+02  0.51100000000E-03 0. -1.
    9900012    2    1    2    0    0 -0.24749169071E+02 -0.37466278237E+02 -0.35874862398E+01  0.46142318385E+02  0.10000005690E+02 0.  0.
        -12    1    1    2    0    0  0.24749169071E+02  0.37466278237E+02  0.35874862398E+01  0.45045681615E+02  0.00000000000E+00 0.  1.
         11    1    3    3    0    0 -0.19098382636E+02 -0.29665878483E+02 -0.49170344688E+01  0.35622883007E+02  0.51100000000E-03 0. -1.
        -11    1    3    3    0    0 -0.62143519800E+01 -0.76124317835E+01  0.11246721494E+01  0.98910149072E+01  0.51100000000E-03 0.  1.
         12    1    3    3    0    0  0.56356554453E+00 -0.18796797015E+00  0.20487607957E+00  0.62842047131E+00  0.00000000000E+00 0. -1.
</event>
<event>
 7    1  0.3955904E-008  0.4614232E+02  0.7816164E-02  0.1320468E+00
        -11   -1    0    0    0    0  0.00000000000E+00  0.00000000000E+00  0.45593999997E+02  0.45594000000E+02  0.51100000000E-03 0. -1.
         11   -1    0    0    0    0 -0.00000000000E+00 -0.00000000000E+00 -0.45593999997E+02  0.45594000000E+02  0.51100000000E-03 0.  1.
    9900012    2    1    2    0    0 -0.38420006071E+02  0.13738667741E+02  0.19085743756E+02  0.46142317938E+02  0.10000001608E+02 0.  0.
        -12    1    1    2    0    0  0.38420006071E+02 -0.13738667741E+02 -0.19085743756E+02  0.45045682062E+02  0.00000000000E+00 0.  1.
         11    1    3    3    0    0 -0.26645348280E+02  0.63931031340E+01  0.14688579025E+02  0.31090202744E+02  0.51100000000E-03 0. -1.
        -11    1    3    3    0    0 -0.15099185695E+01  0.22043903711E+01  0.19659169807E+01  0.33172308981E+01  0.51100000000E-03 0.  1.
         12    1    3    3    0    0 -0.10264739221E+02  0.51411742356E+01  0.24312477503E+01  0.11734884295E+02  0.00000000000E+00 0. -1.
</event>
<event>
 7    1  0.3910495E-008  0.4614232E+02  0.7816164E-02  0.1320468E+00
        -11   -1    0    0    0    0  0.00000000000E+00  0.00000000000E+00  0.45593999997E+02  0.45594000000E+02  0.51100000000E-03 0.  1.
         11   -1    0    0    0    0 -0.00000000000E+00 -0.00000000000E+00 -0.45593999997E+02  0.45594000000E+02  0.51100000000E-03 0. -1.
    9900012    2    1    2    0    0 -0.16744648447E+02  0.32807597923E+02 -0.25930520418E+02  0.46142316276E+02  0.99999864534E+01 0.  0.
        -12    1    1    2    0    0  0.16744648447E+02 -0.32807597923E+02  0.25930520418E+02  0.45045683724E+02  0.00000000000E+00 0.  1.
         11    1    3    3    0    0 -0.82442344975E+01  0.92319258691E+01 -0.98378572108E+01  0.15810733457E+02  0.51100000000E-03 0. -1.
        -11    1    3    3    0    0 -0.60717053863E+01  0.15509687642E+02 -0.73958525669E+01  0.18224013073E+02  0.51100000000E-03 0.  1.
         12    1    3    3    0    0 -0.24287085633E+01  0.80659844119E+01 -0.86968106400E+01  0.12107569745E+02  0.00000000000E+00 0. -1.
</event>
<event>
 7    1  0.3910495E-008  0.4614232E+02  0.7816164E-02  0.1320468E+00
        -11   -1    0    0    0    0  0.00000000000E+00  0.00000000000E+00  0.45593999997E+02  0.45594000000E+02  0.51100000000E-03 0. -1.
         11   -1    0    0    0    0 -0.00000000000E+00 -0.00000000000E+00 -0.45593999997E+02  0.45594000000E+02  0.51100000000E-03 0.  1.
    9900012    2    1    2    0    0  0.34626821844E+02  0.20294570028E+02  0.20450601984E+02  0.46142317797E+02  0.10000000329E+02 0.  0.
        -12    1    1    2    0    0 -0.34626821844E+02 -0.20294570028E+02 -0.20450601984E+02  0.45045682203E+02  0.00000000000E+00 0.  1.
         11    1    3    3    0    0  0.22253533050E+02  0.14153779556E+02  0.13247993540E+02  0.29513700920E+02  0.51100000000E-03 0. -1.
        -11    1    3    3    0    0  0.88345034651E+01  0.43695029038E+01  0.19416529750E+01  0.10045447906E+02  0.51100000000E-03 0.  1.
        -12    1    3    3    0    0  0.35387853289E+01  0.17712875684E+01  0.52609554686E+01  0.65831689707E+01  0.00000000000E+00 0.  1.
</event>
<event>
 7    1  0.3910495E-008  0.4614232E+02  0.7816164E-02  0.1320468E+00
        -11   -1    0    0    0    0  0.00000000000E+00  0.00000000000E+00  0.45593999997E+02  0.45594000000E+02  0.51100000000E-03 0.  1.
         11   -1    0    0    0    0 -0.00000000000E+00 -0.00000000000E+00 -0.45593999997E+02  0.45594000000E+02  0.51100000000E-03 0. -1.
    9900012    2    1    2    0    0 -0.26790981022E+02  0.33023033662E+02 -0.14860554256E+02  0.46142317752E+02  0.99999999214E+01 0.  0.
        -12    1    1    2    0    0  0.26790981022E+02 -0.33023033662E+02  0.14860554256E+02  0.45045682248E+02  0.00000000000E+00 0.  1.
         11    1    3    3    0    0 -0.11074048375E+02  0.10831708394E+02 -0.79184251599E+01  0.17397181134E+02  0.51100000000E-03 0. -1.
        -11    1    3    3    0    0  0.40817749650E+00  0.18565155570E+01 -0.87708432750E-01  0.19028798996E+01  0.51100000000E-03 0.  1.
         12    1    3    3    0    0 -0.16125110144E+02  0.20334809711E+02 -0.68544206631E+01  0.26842256719E+02  0.00000000000E+00 0. -1.
</event>
<event>
 7    1  0.3910495E-008  0.4614232E+02  0.7816164E-02  0.1320468E+00
        -11   -1    0    0    0    0  0.00000000000E+00  0.00000000000E+00  0.45593999997E+02  0.45594000000E+02  0.51100000000E-03 0.  1.
         11   -1    0    0    0    0 -0.00000000000E+00 -0.00000000000E+00 -0.45593999997E+02  0.45594000000E+02  0.51100000000E-03 0. -1.
    9900012    2    1    2    0    0 -0.31469780226E+02  0.31974637497E+02 -0.40483286174E+01  0.46142317908E+02  0.10000001341E+02 0.  0.
        -12    1    1    2    0    0  0.31469780226E+02 -0.31974637497E+02  0.40483286174E+01  0.45045682092E+02  0.00000000000E+00 0.  1.
         11    1    3    3    0    0 -0.28078193954E+02  0.29906731946E+02 -0.57979044435E+01  0.41429618482E+02  0.51100000000E-03 0. -1.
        -11    1    3    3    0    0 -0.55769292204E+00  0.10549352192E+01  0.11231267211E+01  0.16386957023E+01  0.51100000000E-03 0.  1.
        -12    1    3    3    0    0 -0.28338933497E+01  0.10129703320E+01  0.62644910500E+00  0.30740037235E+01  0.00000000000E+00 0.  1.
</event>
<event>
 7    1  0.3910495E-008  0.4614232E+02  0.7816164E-02  0.1320468E+00
        -11   -1    0    0    0    0  0.00000000000E+00  0.00000000000E+00  0.45593999997E+02  0.45594000000E+02  0.51100000000E-03 0. -1.
         11   -1    0    0    0    0 -0.00000000000E+00 -0.00000000000E+00 -0.45593999997E+02  0.45594000000E+02  0.51100000000E-03 0.  1.
    9900012    2    1    2    0    0  0.30460305806E+02 -0.33036131041E+02  0.31460044255E+01  0.46142317323E+02  0.99999960090E+01 0.  0.
        -12    1    1    2    0    0 -0.30460305806E+02  0.33036131041E+02 -0.31460044255E+01  0.45045682677E+02  0.00000000000E+00 0.  1.
         11    1    3    3    0    0  0.14148023378E+02 -0.14363794802E+02  0.45056622834E+01  0.20658803437E+02  0.51100000000E-03 0. -1.
        -11    1    3    3    0    0 -0.29444185518E+00 -0.99062867925E+00 -0.63952296871E+00  0.12153316728E+01  0.51100000000E-03 0.  1.
         12    1    3    3    0    0  0.16606724283E+02 -0.17681707560E+02 -0.72013488922E+00  0.24268182213E+02  0.00000000000E+00 0. -1.
</event>
<event>
 7    1  0.3910495E-008  0.4614232E+02  0.7816164E-02  0.1320468E+00
        -11   -1    0    0    0    0  0.00000000000E+00  0.00000000000E+00  0.45593999997E+02  0.45594000000E+02  0.51100000000E-03 0. -1.
         11   -1    0    0    0    0 -0.00000000000E+00 -0.00000000000E+00 -0.45593999997E+02  0.45594000000E+02  0.51100000000E-03 0.  1.
    9900012    2    1    2    0    0  0.28992667631E+02 -0.15179333658E+02  0.30953619626E+02  0.46142317470E+02  0.99999973411E+01 0.  0.
        -12    1    1    2    0    0 -0.28992667631E+02  0.15179333658E+02 -0.30953619626E+02  0.45045682530E+02  0.00000000000E+00 0.  1.
         11    1    3    3    0    0  0.20557588231E+02 -0.76675760209E+01  0.19322106181E+02  0.29236106845E+02  0.51100000000E-03 0. -1.
        -11    1    3    3    0    0  0.87441280903E+01 -0.78883414118E+01  0.11262350137E+02  0.16294975826E+02  0.51100000000E-03 0.  1.
        -12    1    3    3    0    0 -0.30904869003E+00  0.37658377416E+00  0.36916330814E+00  0.61123479928E+00  0.00000000000E+00 0.  1.
</event>
<event>
 7    1  0.3910495E-008  0.4614232E+02  0.7816164E-02  0.1320468E+00
        -11   -1    0    0    0    0  0.00000000000E+00  0.00000000000E+00  0.45593999997E+02  0.45594000000E+02  0.51100000000E-03 0.  1.
         11   -1    0    0    0    0 -0.00000000000E+00 -0.00000000000E+00 -0.45593999997E+02  0.45594000000E+02  0.51100000000E-03 0. -1.
    9900012    2    1    2    0    0 -0.26030221690E+02  0.16359786396E+02 -0.32922612582E+02  0.46142317950E+02  0.10000001720E+02 0.  0.
        -12    1    1    2    0    0  0.26030221690E+02 -0.16359786396E+02  0.32922612582E+02  0.45045682050E+02  0.00000000000E+00 0.  1.
         11    1    3    3    0    0 -0.11087521079E+02  0.40354451502E+01 -0.91193041696E+01  0.14912399205E+02  0.51100000000E-03 0. -1.
        -11    1    3    3    0    0 -0.36748955277E+01  0.43373011031E+00 -0.30840687861E+01  0.48171007346E+01  0.51100000000E-03 0.  1.
         12    1    3    3    0    0 -0.11267805083E+02  0.11890611135E+02 -0.20719239626E+02  0.26412818011E+02  0.00000000000E+00 0. -1.
</event>
<event>
 7    1  0.3910495E-008  0.4614232E+02  0.7816164E-02  0.1320468E+00
        -11   -1    0    0    0    0  0.00000000000E+00  0.00000000000E+00  0.45593999997E+02  0.45594000000E+02  0.51100000000E-03 0.  1.
         11   -1    0    0    0    0 -0.00000000000E+00 -0.00000000000E+00 -0.45593999997E+02  0.45594000000E+02  0.51100000000E-03 0. -1.
    9900012    2    1    2    0    0 -0.20204776210E+02 -0.35392740664E+00 -0.40258599713E+02  0.46142322103E+02  0.10000039595E+02 0.  0.
        -12    1    1    2    0    0  0.20204776210E+02  0.35392740664E+00  0.40258599713E+02  0.45045677897E+02  0.00000000000E+00 0.  1.
         11    1    3    3    0    0 -0.14144237348E+02 -0.39908184964E+01 -0.27185113283E+02  0.30903340708E+02  0.51100000000E-03 0. -1.
        -11    1    3    3    0    0 -0.32590540104E+01  0.31298765845E+01 -0.10375210854E+02  0.11316472993E+02  0.51100000000E-03 0.  1.
         12    1    3    3    0    0 -0.28014848514E+01  0.50701450523E+00 -0.26982755760E+01  0.39225084022E+01  0.00000000000E+00 0. -1.
</event>
<event>
 7    1  0.3910495E-008  0.4614232E+02  0.7816164E-02  0.1320468E+00
        -11   -1    0    0    0    0  0.00000000000E+00  0.00000000000E+00  0.45593999997E+02  0.45594000000E+02  0.51100000000E-03 0.  1.
         11   -1    0    0    0    0 -0.00000000000E+00 -0.00000000000E+00 -0.45593999997E+02  0.45594000000E+02  0.51100000000E-03 0. -1.
    9900012    2    1    2    0    0 -0.41200240679E+02 -0.65062529718E+00 -0.18199731504E+02  0.46142319052E+02  0.10000011771E+02 0.  0.
        -12    1    1    2    0    0  0.41200240679E+02  0.65062529718E+00  0.18199731504E+02  0.45045680948E+02  0.00000000000E+00 0.  1.
         11    1    3    3    0    0 -0.24607591993E+01  0.22828796200E+00  0.71914874233E+00  0.25738349608E+01  0.51100000000E-03 0. -1.
        -11    1    3    3    0    0 -0.45184621401E-02  0.21928453949E-01 -0.79215924814E+00  0.79247574671E+00  0.51100000000E-03 0.  1.
         12    1    3    3    0    0 -0.38734963017E+02 -0.90084171313E+00 -0.18126720998E+02  0.42776008344E+02  0.00000000000E+00 0. -1.
</event>
<event>
 7    1  0.3910495E-008  0.4614232E+02  0.7816164E-02  0.1320468E+00
        -11   -1    0    0    0    0  0.00000000000E+00  0.00000000000E+00  0.45593999997E+02  0.45594000000E+02  0.51100000000E-03 0.  1.
         11   -1    0    0    0    0 -0.00000000000E+00 -0.00000000000E+00 -0.45593999997E+02  0.45594000000E+02  0.51100000000E-03 0. -1.
    9900012    2    1    2    0    0  0.27084162108E+02  0.26607087935E+02 -0.24240968218E+02  0.46142317570E+02  0.99999982539E+01 0.  0.
        -12    1    1    2    0    0 -0.27084162108E+02 -0.26607087935E+02  0.24240968218E+02  0.45045682430E+02  0.00000000000E+00 0.  1.
         11    1    3    3    0    0  0.66286802568E+01  0.10946841078E+02 -0.72426050986E+01  0.14704695182E+02  0.51100000000E-03 0. -1.
        -11    1    3    3    0    0  0.63071945890E+01  0.17420751814E+01 -0.51146624676E+01  0.83051370814E+01  0.51100000000E-03 0.  1.
        -12    1    3    3    0    0  0.14148287262E+02  0.13918171676E+02 -0.11883700652E+02  0.23132485306E+02  0.00000000000E+00 0.  1.
</event>
<event>
 7    1  0.3910495E-008  0.4614232E+02  0.7816164E-02  0.1320468E+00
        -11   -1    0    0    0    0  0.00000000000E+00  0.00000000000E+00  0.45593999997E+02  0.45594000000E+02  0.51100000000E-03 0.  1.
         11   -1    0    0    0    0 -0.00000000000E+00 -0.00000000000E+00 -0.45593999997E+02  0.45594000000E+02  0.51100000000E-03 0. -1.
    9900012    2    1    2    0    0 -0.32639320753E+02 -0.11937059155E+02 -0.28658243212E+02  0.46142317138E+02  0.99999943208E+01 0.  0.
        -12    1    1    2    0    0  0.32639320753E+02  0.11937059155E+02  0.28658243212E+02  0.45045682862E+02  0.00000000000E+00 0.  1.
         11    1    3    3    0    0 -0.23323037322E+02 -0.11472085403E+02 -0.18545589622E+02  0.31929793424E+02  0.51100000000E-03 0. -1.
        -11    1    3    3    0    0 -0.30946493113E+01  0.10605020845E+01 -0.18522861537E+01  0.37593195245E+01  0.51100000000E-03 0.  1.
         12    1    3    3    0    0 -0.62216341190E+01 -0.15254758363E+01 -0.82603674367E+01  0.10453204189E+02  0.00000000000E+00 0. -1.
</event>
<event>
 7    1  0.3910495E-008  0.4614232E+02  0.7816164E-02  0.1320468E+00
        -11   -1    0    0    0    0  0.00000000000E+00  0.00000000000E+00  0.45593999997E+02  0.45594000000E+02  0.51100000000E-03 0. -1.
         11   -1    0    0    0    0 -0.00000000000E+00 -0.00000000000E+00 -0.45593999997E+02  0.45594000000E+02  0.51100000000E-03 0.  1.
    9900012    2    1    2    0    0  0.41907629216E+02  0.20294561338E+01  0.16393458584E+02  0.46142316932E+02  0.99999924419E+01 0.  0.
        -12    1    1    2    0    0 -0.41907629216E+02 -0.20294561338E+01 -0.16393458584E+02  0.45045683068E+02  0.00000000000E+00 0.  1.
         11    1    3    3    0    0  0.53724469954E+01 -0.52477674521E+00  0.42165505564E+01  0.68496624885E+01  0.51100000000E-03 0. -1.
        -11    1    3    3    0    0  0.20960964664E+02  0.50708903352E+01  0.76056312626E+01  0.22867478995E+02  0.51100000000E-03 0.  1.
        -12    1    3    3    0    0  0.15574217557E+02 -0.25166574562E+01  0.45712767647E+01  0.16425175449E+02  0.00000000000E+00 0.  1.
</event>
<event>
 7    1  0.3910495E-008  0.4614232E+02  0.7816164E-02  0.1320468E+00
        -11   -1    0    0    0    0  0.00000000000E+00  0.00000000000E+00  0.45593999997E+02  0.45594000000E+02  0.51100000000E-03 0.  1.
         11   -1    0    0    0    0 -0.00000000000E+00 -0.00000000000E+00 -0.45593999997E+02  0.45594000000E+02  0.51100000000E-03 0. -1.
    9900012    2    1    2    0    0 -0.17018495369E+02  0.12000131489E+02 -0.39943473334E+02  0.46142318716E+02  0.10000008706E+02 0.  0.
        -12    1    1    2    0    0  0.17018495369E+02 -0.12000131489E+02  0.39943473334E+02  0.45045681284E+02  0.00000000000E+00 0.  1.
         11    1    3    3    0    0 -0.72026228101E+01  0.23445951769E+01 -0.17030926208E+02  0.18639403146E+02  0.51100000000E-03 0. -1.
        -11    1    3    3    0    0 -0.24020652539E+01  0.10576007684E+01 -0.98623847169E+01  0.10205639100E+02  0.51100000000E-03 0.  1.
         12    1    3    3    0    0 -0.74138073048E+01  0.85979355439E+01 -0.13050162409E+02  0.17297276470E+02  0.00000000000E+00 0. -1.
</event>
<event>
 7    1  0.3910495E-008  0.4614232E+02  0.7816164E-02  0.1320468E+00
        -11   -1    0    0    0    0  0.00000000000E+00  0.00000000000E+00  0.45593999997E+02  0.45594000000E+02  0.51100000000E-03 0.  1.
         11   -1    0    0    0    0 -0.00000000000E+00 -0.00000000000E+00 -0.45593999997E+02  0.45594000000E+02  0.51100000000E-03 0. -1.
    9900012    2    1    2    0    0  0.25354571449E+02  0.19501274853E+02 -0.31716863977E+02  0.46142317912E+02  0.10000001376E+02 0.  0.
        -12    1    1    2    0    0 -0.25354571449E+02 -0.19501274853E+02  0.31716863977E+02  0.45045682088E+02  0.00000000000E+00 0.  1.
         11    1    3    3    0    0  0.39875306751E+01  0.57692516580E+01 -0.10583323129E+02  0.12696117292E+02  0.51100000000E-03 0. -1.
        -11    1    3    3    0    0  0.14371720504E+01 -0.19826814991E+00 -0.43738455554E+00  0.15152819118E+01  0.51100000000E-03 0.  1.
        -12    1    3    3    0    0  0.19929868723E+02  0.13930291345E+02 -0.20696156293E+02  0.31930918709E+02  0.00000000000E+00 0.  1.
</event>
<event>
 7    1  0.3910495E-008  0.4614232E+02  0.7816164E-02  0.1320468E+00
        -11   -1    0    0    0    0  0.00000000000E+00  0.00000000000E+00  0.45593999997E+02  0.45594000000E+02  0.51100000000E-03 0. -1.
         11   -1    0    0    0    0 -0.00000000000E+00 -0.00000000000E+00 -0.45593999997E+02  0.45594000000E+02  0.51100000000E-03 0.  1.
    9900012    2    1    2    0    0  0.38263527398E+02  0.73094310588E+01 -0.22618314257E+02  0.46142318174E+02  0.10000003768E+02 0.  0.
        -12    1    1    2    0    0 -0.38263527398E+02 -0.73094310588E+01  0.22618314257E+02  0.45045681826E+02  0.00000000000E+00 0.  1.
         11    1    3    3    0    0  0.55490657896E+01  0.11548302119E+01 -0.22216929038E+01  0.60878307775E+01  0.51100000000E-03 0. -1.
        -11    1    3    3    0    0  0.26556030185E+02  0.40812804669E+01 -0.11970564440E+02  0.29413840326E+02  0.51100000000E-03 0.  1.
        -12    1    3    3    0    0  0.61584314229E+01  0.20733203799E+01 -0.84260569125E+01  0.10640647071E+02  0.00000000000E+00 0.  1.
</event>
<event>
 7    1  0.3910495E-008  0.4614232E+02  0.7816164E-02  0.1320468E+00
        -11   -1    0    0    0    0  0.00000000000E+00  0.00000000000E+00  0.45593999997E+02  0.45594000000E+02  0.51100000000E-03 0.  1.
         11   -1    0    0    0    0 -0.00000000000E+00 -0.00000000000E+00 -0.45593999997E+02  0.45594000000E+02  0.51100000000E-03 0. -1.
    9900012    2    1    2    0    0 -0.22387954187E+02  0.30838014127E+02 -0.24018952039E+02  0.46142315800E+02  0.99999821203E+01 0.  0.
        -12    1    1    2    0    0  0.22387954187E+02 -0.30838014127E+02  0.24018952039E+02  0.45045684200E+02  0.00000000000E+00 0.  1.
         11    1    3    3    0    0 -0.90321340919E+01  0.10777357058E+02 -0.53764388787E+01  0.15054466669E+02  0.51100000000E-03 0. -1.
        -11    1    3    3    0    0  0.60873839280E+00  0.17178619602E+01 -0.12688464868E+01  0.22207169593E+01  0.51100000000E-03 0.  1.
         12    1    3    3    0    0 -0.13964558488E+02  0.18342795108E+02 -0.17373666674E+02  0.28867132172E+02  0.00000000000E+00 0. -1.
</event>
<event>
 7    1  0.3910495E-008  0.4614232E+02  0.7816164E-02  0.1320468E+00
        -11   -1    0    0    0    0  0.00000000000E+00  0.00000000000E+00  0.45593999997E+02  0.45594000000E+02  0.51100000000E-03 0. -1.
         11   -1    0    0    0    0 -0.00000000000E+00 -0.00000000000E+00 -0.45593999997E+02  0.45594000000E+02  0.51100000000E-03 0.  1.
    9900012    2    1    2    0    0 -0.15967265638E+02 -0.70395060201E+01  0.41528364419E+02  0.46142320204E+02  0.10000022275E+02 0.  0.
        -12    1    1    2    0    0  0.15967265638E+02  0.70395060201E+01 -0.41528364419E+02  0.45045679796E+02  0.00000000000E+00 0.  1.
         11    1    3    3    0    0 -0.14903221864E+02 -0.46438348145E+01  0.32031681058E+02  0.35632847421E+02  0.51100000000E-03 0. -1.
        -11    1    3    3    0    0 -0.12831382511E+01  0.65630301677E+00  0.29877594878E+01  0.33172103400E+01  0.51100000000E-03 0.  1.
        -12    1    3    3    0    0  0.21909447791E+00 -0.30519742224E+01  0.65089238739E+01  0.71922624424E+01  0.00000000000E+00 0.  1.
</event>
<event>
 7    1  0.3910495E-008  0.4614232E+02  0.7816164E-02  0.1320468E+00
        -11   -1    0    0    0    0  0.00000000000E+00  0.00000000000E+00  0.45593999997E+02  0.45594000000E+02  0.51100000000E-03 0. -1.
         11   -1    0    0    0    0 -0.00000000000E+00 -0.00000000000E+00 -0.45593999997E+02  0.45594000000E+02  0.51100000000E-03 0.  1.
    9900012    2    1    2    0    0 -0.10879897587E+02  0.32041019124E+02  0.29734062122E+02  0.46142317317E+02  0.99999959546E+01 0.  0.
        -12    1    1    2    0    0  0.10879897587E+02 -0.32041019124E+02 -0.29734062122E+02  0.45045682683E+02  0.00000000000E+00 0.  1.
         11    1    3    3    0    0 -0.90222976389E+01  0.26328676115E+02  0.20859587966E+02  0.34781078922E+02  0.51100000000E-03 0. -1.
        -11    1    3    3    0    0 -0.17747380367E+01  0.26835429877E+01  0.18502908195E+01  0.37114248536E+01  0.51100000000E-03 0.  1.
        -12    1    3    3    0    0 -0.82861911655E-01  0.30288000221E+01  0.70241833370E+01  0.76498135416E+01  0.00000000000E+00 0.  1.
</event>
<event>
 7    1  0.3910495E-008  0.4614232E+02  0.7816164E-02  0.1320468E+00
        -11   -1    0    0    0    0  0.00000000000E+00  0.00000000000E+00  0.45593999997E+02  0.45594000000E+02  0.51100000000E-03 0.  1.
         11   -1    0    0    0    0 -0.00000000000E+00 -0.00000000000E+00 -0.45593999997E+02  0.45594000000E+02  0.51100000000E-03 0. -1.
    9900012    2    1    2    0    0 -0.26366656939E+02 -0.16066938800E+02 -0.32798875005E+02  0.46142319607E+02  0.10000016829E+02 0.  0.
        -12    1    1    2    0    0  0.26366656939E+02  0.16066938800E+02  0.32798875005E+02  0.45045680393E+02  0.00000000000E+00 0.  1.
         11    1    3    3    0    0 -0.97568767783E+01 -0.75378768317E+01 -0.80989054343E+01  0.14751559277E+02  0.51100000000E-03 0. -1.
        -11    1    3    3    0    0 -0.12918894848E+02 -0.51277977241E+01 -0.14876324106E+02  0.20359203638E+02  0.51100000000E-03 0.  1.
         12    1    3    3    0    0 -0.36908853127E+01 -0.34012642440E+01 -0.98236454643E+01  0.11031556692E+02  0.00000000000E+00 0. -1.
</event>
<event>
 7    1  0.3910495E-008  0.4614232E+02  0.7816164E-02  0.1320468E+00
        -11   -1    0    0    0    0  0.00000000000E+00  0.00000000000E+00  0.45593999997E+02  0.45594000000E+02  0.51100000000E-03 0.  1.
         11   -1    0    0    0    0 -0.00000000000E+00 -0.00000000000E+00 -0.45593999997E+02  0.45594000000E+02  0.51100000000E-03 0. -1.
    9900012    2    1    2    0    0  0.15311473320E+02 -0.32034850469E+02 -0.27720760954E+02  0.46142318213E+02  0.10000004121E+02 0.  0.
        -12    1    1    2    0    0 -0.15311473320E+02  0.32034850469E+02  0.27720760954E+02  0.45045681787E+02  0.00000000000E+00 0.  1.
         11    1    3    3    0    0  0.44282495707E+01 -0.14889535086E+02 -0.92745317996E+01  0.18092114020E+02  0.51100000000E-03 0. -1.
        -11    1    3    3    0    0  0.32039166427E+01 -0.93991550787E+01 -0.64737163165E+01  0.11854037340E+02  0.51100000000E-03 0.  1.
         12    1    3    3    0    0  0.76793071067E+01 -0.77461603040E+01 -0.11972512838E+02  0.16196166853E+02  0.00000000000E+00 0. -1.
</event>
<event>
 7    1  0.3910495E-008  0.4614232E+02  0.7816164E-02  0.1320468E+00
        -11   -1    0    0    0    0  0.00000000000E+00  0.00000000000E+00  0.45593999997E+02  0.45594000000E+02  0.51100000000E-03 0. -1.
         11   -1    0    0    0    0 -0.00000000000E+00 -0.00000000000E+00 -0.45593999997E+02  0.45594000000E+02  0.51100000000E-03 0.  1.
    9900012    2    1    2    0    0 -0.41368719970E+02 -0.11686903961E+02 -0.13459524831E+02  0.46142317356E+02  0.99999963081E+01 0.  0.
        -12    1    1    2    0    0  0.41368719970E+02  0.11686903961E+02  0.13459524831E+02  0.45045682644E+02  0.00000000000E+00 0.  1.
         11    1    3    3    0    0 -0.50782338948E+01  0.13019940980E+01 -0.20853239660E+01  0.56420053550E+01  0.51100000000E-03 0. -1.
        -11    1    3    3    0    0 -0.25319333694E+02 -0.72793976933E+01 -0.60247076637E+01  0.27025088199E+02  0.51100000000E-03 0.  1.
         12    1    3    3    0    0 -0.10971152382E+02 -0.57095003662E+01 -0.53494932008E+01  0.13475223802E+02  0.00000000000E+00 0. -1.
</event>
<event>
 7    1  0.3910495E-008  0.4614232E+02  0.7816164E-02  0.1320468E+00
        -11   -1    0    0    0    0  0.00000000000E+00  0.00000000000E+00  0.45593999997E+02  0.45594000000E+02  0.51100000000E-03 0. -1.
         11   -1    0    0    0    0 -0.00000000000E+00 -0.00000000000E+00 -0.45593999997E+02  0.45594000000E+02  0.51100000000E-03 0.  1.
    9900012    2    1    2    0    0 -0.56394675341E+01 -0.34190326115E+02  0.28780745190E+02  0.46142319989E+02  0.10000020318E+02 0.  0.
        -12    1    1    2    0    0  0.56394675341E+01  0.34190326115E+02 -0.28780745190E+02  0.45045680011E+02  0.00000000000E+00 0.  1.
         11    1    3    3    0    0  0.21484281097E+01 -0.13328896663E+02  0.12996868548E+02  0.18740166006E+02  0.51100000000E-03 0. -1.
        -11    1    3    3    0    0 -0.34637603720E+01 -0.73537230752E+01  0.45983784965E+01  0.93391629197E+01  0.51100000000E-03 0.  1.
         12    1    3    3    0    0 -0.43241352717E+01 -0.13507706377E+02  0.11185498145E+02  0.18062991064E+02  0.00000000000E+00 0. -1.
</event>
<event>
 7    1  0.3910495E-008  0.4614233E+02  0.7816164E-02  0.1320468E+00
        -11   -1    0    0    0    0  0.00000000000E+00  0.00000000000E+00  0.45593999997E+02  0.45594000000E+02  0.51100000000E-03 0. -1.
         11   -1    0    0    0    0 -0.00000000000E+00 -0.00000000000E+00 -0.45593999997E+02  0.45594000000E+02  0.51100000000E-03 0.  1.
    9900012    2    1    2    0    0  0.18838831718E+02  0.15914896879E+02  0.37695185486E+02  0.46142328377E+02  0.10000096800E+02 0.  0.
        -12    1    1    2    0    0 -0.18838831718E+02 -0.15914896879E+02 -0.37695185486E+02  0.45045671623E+02  0.00000000000E+00 0.  1.
         11    1    3    3    0    0  0.66187036144E+01  0.29702774605E+01  0.13433426324E+02  0.15267178154E+02  0.51100000000E-03 0. -1.
        -11    1    3    3    0    0  0.88682832399E+01  0.43759952024E+01  0.12196226734E+02  0.15701711003E+02  0.51100000000E-03 0.  1.
         12    1    3    3    0    0  0.33518448633E+01  0.85686242162E+01  0.12065532429E+02  0.15173439219E+02  0.00000000000E+00 0. -1.
</event>
<event>
 7    1  0.3910495E-008  0.4614232E+02  0.7816164E-02  0.1320468E+00
        -11   -1    0    0    0    0  0.00000000000E+00  0.00000000000E+00  0.45593999997E+02  0.45594000000E+02  0.51100000000E-03 0.  1.
         11   -1    0    0    0    0 -0.00000000000E+00 -0.00000000000E+00 -0.45593999997E+02  0.45594000000E+02  0.51100000000E-03 0. -1.
    9900012    2    1    2    0    0  0.17898524819E+02  0.31217347131E+02 -0.27096744731E+02  0.46142317325E+02  0.99999960243E+01 0.  0.
        -12    1    1    2    0    0 -0.17898524819E+02 -0.31217347131E+02  0.27096744731E+02  0.45045682675E+02  0.00000000000E+00 0.  1.
         11    1    3    3    0    0  0.48838623101E+01  0.55771510551E+01 -0.38020249732E+01  0.83313935877E+01  0.51100000000E-03 0. -1.
        -11    1    3    3    0    0  0.26691344821E+01  0.12138690836E+02 -0.70423704472E+01  0.14285204789E+02  0.51100000000E-03 0.  1.
        -12    1    3    3    0    0  0.10345528027E+02  0.13501505240E+02 -0.16252349311E+02  0.23525718948E+02  0.00000000000E+00 0.  1.
</event>
<event>
 7    1  0.3910495E-008  0.4614232E+02  0.7816164E-02  0.1320468E+00
        -11   -1    0    0    0    0  0.00000000000E+00  0.00000000000E+00  0.45593999997E+02  0.45594000000E+02  0.51100000000E-03 0.  1.
         11   -1    0    0    0    0 -0.00000000000E+00 -0.00000000000E+00 -0.45593999997E+02  0.45594000000E+02  0.51100000000E-03 0. -1.
    9900012    2    1    2    0    0  0.71086078343E+01 -0.22078584695E+02 -0.38614987688E+02  0.46142317836E+02  0.10000000682E+02 0.  0.
        -12    1    1    2    0    0 -0.71086078343E+01  0.22078584695E+02  0.38614987688E+02  0.45045682164E+02  0.00000000000E+00 0.  1.
         11    1    3    3    0    0  0.16172030696E+01 -0.58049827792E+01 -0.60541248148E+01  0.85419903049E+01  0.51100000000E-03 0. -1.
        -11    1    3    3    0    0  0.87072794934E-01 -0.38180927487E+01 -0.23641985270E+01  0.44916421101E+01  0.51100000000E-03 0.  1.
         12    1    3    3    0    0  0.54043319698E+01 -0.12455509167E+02 -0.30196664346E+02  0.33108685421E+02  0.00000000000E+00 0. -1.
</event>
<event>
 7    1  0.3910495E-008  0.4614232E+02  0.7816164E-02  0.1320468E+00
        -11   -1    0    0    0    0  0.00000000000E+00  0.00000000000E+00  0.45593999997E+02  0.45594000000E+02  0.51100000000E-03 0. -1.
         11   -1    0    0    0    0 -0.00000000000E+00 -0.00000000000E+00 -0.45593999997E+02  0.45594000000E+02  0.51100000000E-03 0.  1.
    9900012    2    1    2    0    0 -0.40611157305E+02  0.14556195431E+02  0.12960115377E+02  0.46142317480E+02  0.99999974355E+01 0.  0.
        -12    1    1    2    0    0  0.40611157305E+02 -0.14556195431E+02 -0.12960115377E+02  0.45045682520E+02  0.00000000000E+00 0.  1.
         11    1    3    3    0    0 -0.26863867830E+02  0.90009063049E+01  0.11436270305E+02  0.30552773816E+02  0.51100000000E-03 0. -1.
        -11    1    3    3    0    0 -0.52295036418E+01  0.39158588795E+01  0.21886507693E+01  0.68899819706E+01  0.51100000000E-03 0.  1.
        -12    1    3    3    0    0 -0.85177858336E+01  0.16394302471E+01 -0.66480569732E+00  0.86995616934E+01  0.00000000000E+00 0.  1.
</event>
<event>
 7    1  0.3910495E-008  0.4614231E+02  0.7816164E-02  0.1320468E+00
        -11   -1    0    0    0    0  0.00000000000E+00  0.00000000000E+00  0.45593999997E+02  0.45594000000E+02  0.51100000000E-03 0. -1.
         11   -1    0    0    0    0 -0.00000000000E+00 -0.00000000000E+00 -0.45593999997E+02  0.45594000000E+02  0.51100000000E-03 0.  1.
    9900012    2    1    2    0    0 -0.38678656731E+01  0.45546219002E+01  0.44647609616E+02  0.46142311971E+02  0.99999472040E+01 0.  0.
        -12    1    1    2    0    0  0.38678656731E+01 -0.45546219002E+01 -0.44647609616E+02  0.45045688029E+02  0.00000000000E+00 0.  1.
         11    1    3    3    0    0  0.17116932381E+00  0.24860276007E+01  0.13691726789E+02  0.13916645246E+02  0.51100000000E-03 0. -1.
        -11    1    3    3    0    0 -0.41942914224E+01  0.45042081886E+01  0.17512171043E+02  0.18562222573E+02  0.51100000000E-03 0.  1.
        -12    1    3    3    0    0  0.15525642551E+00 -0.24356138892E+01  0.13443711784E+02  0.13663444153E+02  0.00000000000E+00 0.  1.
</event>
<event>
 7    1  0.3910495E-008  0.4614232E+02  0.7816164E-02  0.1320468E+00
        -11   -1    0    0    0    0  0.00000000000E+00  0.00000000000E+00  0.45593999997E+02  0.45594000000E+02  0.51100000000E-03 0.  1.
         11   -1    0    0    0    0 -0.00000000000E+00 -0.00000000000E+00 -0.45593999997E+02  0.45594000000E+02  0.51100000000E-03 0. -1.
    9900012    2    1    2    0    0 -0.38294128540E+02  0.11297152316E+02  0.20857794673E+02  0.46142317302E+02  0.99999958113E+01 0.  0.
        -12    1    1    2    0    0  0.38294128540E+02 -0.11297152316E+02 -0.20857794673E+02  0.45045682698E+02  0.00000000000E+00 0.  1.
         11    1    3    3    0    0 -0.95300644407E+01  0.17422344607E+01  0.53432552827E+01  0.11063809761E+02  0.51100000000E-03 0. -1.
        -11    1    3    3    0    0 -0.22510376518E+02  0.55032106653E+01  0.15010240152E+02  0.27609956325E+02  0.51100000000E-03 0.  1.
        -12    1    3    3    0    0 -0.62536875819E+01  0.40517071903E+01  0.50429923800E+00  0.74685512149E+01  0.00000000000E+00 0.  1.
</event>
<event>
 7    1  0.3910495E-008  0.4614232E+02  0.7816164E-02  0.1320468E+00
        -11   -1    0    0    0    0  0.00000000000E+00  0.00000000000E+00  0.45593999997E+02  0.45594000000E+02  0.51100000000E-03 0.  1.
         11   -1    0    0    0    0 -0.00000000000E+00 -0.00000000000E+00 -0.45593999997E+02  0.45594000000E+02  0.51100000000E-03 0. -1.
    9900012    2    1    2    0    0 -0.14589466171E+02 -0.13220914912E+02 -0.40515038410E+02  0.46142318169E+02  0.10000003719E+02 0.  0.
        -12    1    1    2    0    0  0.14589466171E+02  0.13220914912E+02  0.40515038410E+02  0.45045681831E+02  0.00000000000E+00 0.  1.
         11    1    3    3    0    0 -0.85490709688E+01 -0.99422676036E+01 -0.30561014314E+02  0.33255238620E+02  0.51100000000E-03 0. -1.
        -11    1    3    3    0    0 -0.62453457209E+01 -0.34160633483E+01 -0.72101474215E+01  0.10132129987E+02  0.51100000000E-03 0.  1.
        -12    1    3    3    0    0  0.20495051860E+00  0.13741603993E+00 -0.27438766748E+01  0.27549495620E+01  0.00000000000E+00 0.  1.
</event>
<event>
 7    1  0.3910495E-008  0.4614232E+02  0.7816164E-02  0.1320468E+00
        -11   -1    0    0    0    0  0.00000000000E+00  0.00000000000E+00  0.45593999997E+02  0.45594000000E+02  0.51100000000E-03 0.  1.
         11   -1    0    0    0    0 -0.00000000000E+00 -0.00000000000E+00 -0.45593999997E+02  0.45594000000E+02  0.51100000000E-03 0. -1.
    9900012    2    1    2    0    0  0.16729618104E-01  0.36955357100E+02 -0.25756839538E+02  0.46142317840E+02  0.10000000719E+02 0.  0.
        -12    1    1    2    0    0 -0.16729618104E-01 -0.36955357100E+02  0.25756839538E+02  0.45045682160E+02  0.00000000000E+00 0.  1.
         11    1    3    3    0    0  0.25914369045E+01  0.67703681541E+01 -0.69708845859E+01  0.10057169698E+02  0.51100000000E-03 0. -1.
        -11    1    3    3    0    0 -0.25051133856E+01  0.65463064249E+01 -0.27967002654E+01  0.75466054302E+01  0.51100000000E-03 0.  1.
         12    1    3    3    0    0 -0.69593900751E-01  0.23638682521E+02 -0.15989254687E+02  0.28538542711E+02  0.00000000000E+00 0. -1.
</event>
<event>
 7    1  0.3910495E-008  0.4614232E+02  0.7816164E-02  0.1320468E+00
        -11   -1    0    0    0    0  0.00000000000E+00  0.00000000000E+00  0.45593999997E+02  0.45594000000E+02  0.51100000000E-03 0.  1.
         11   -1    0    0    0    0 -0.00000000000E+00 -0.00000000000E+00 -0.45593999997E+02  0.45594000000E+02  0.51100000000E-03 0. -1.
    9900012    2    1    2    0    0  0.96602328244E+01 -0.18563586149E+02 -0.39889681168E+02  0.46142317714E+02  0.99999995724E+01 0.  0.
        -12    1    1    2    0    0 -0.96602328244E+01  0.18563586149E+02  0.39889681168E+02  0.45045682286E+02  0.00000000000E+00 0.  1.
         11    1    3    3    0    0  0.24856730145E+01 -0.48475800997E+01 -0.13714861642E+02  0.14757202759E+02  0.51100000000E-03 0. -1.
        -11    1    3    3    0    0  0.77067166886E+01 -0.14432862714E+02 -0.24131654963E+02  0.29155407384E+02  0.51100000000E-03 0.  1.
        -12    1    3    3    0    0 -0.53215687869E+00  0.71685666421E+00 -0.20431645629E+01  0.22297075709E+01  0.00000000000E+00 0.  1.
</event>
<event>
 7    1  0.3910495E-008  0.4614232E+02  0.7816164E-02  0.1320468E+00
        -11   -1    0    0    0    0  0.00000000000E+00  0.00000000000E+00  0.45593999997E+02  0.45594000000E+02  0.51100000000E-03 0.  1.
         11   -1    0    0    0    0 -0.00000000000E+00 -0.00000000000E+00 -0.45593999997E+02  0.45594000000E+02  0.51100000000E-03 0. -1.
    9900012    2    1    2    0    0  0.44628109082E+02 -0.60961519076E+01 -0.53133565223E+00  0.46142317566E+02  0.99999982230E+01 0.  0.
        -12    1    1    2    0    0 -0.44628109082E+02  0.60961519076E+01  0.53133565223E+00  0.45045682434E+02  0.00000000000E+00 0.  1.
         11    1    3    3    0    0  0.31303799959E+01 -0.21164778710E+01 -0.91630963264E+00  0.38882362455E+01  0.51100000000E-03 0. -1.
        -11    1    3    3    0    0  0.35203090234E+02 -0.45219551047E+01 -0.18808006602E+01  0.35542130653E+02  0.51100000000E-03 0.  1.
        -12    1    3    3    0    0  0.62946388525E+01  0.54228106808E+00  0.22657746406E+01  0.67119506675E+01  0.00000000000E+00 0.  1.
</event>
<event>
 7    1  0.3910495E-008  0.4614232E+02  0.7816164E-02  0.1320468E+00
        -11   -1    0    0    0    0  0.00000000000E+00  0.00000000000E+00  0.45593999997E+02  0.45594000000E+02  0.51100000000E-03 0.  1.
         11   -1    0    0    0    0 -0.00000000000E+00 -0.00000000000E+00 -0.45593999997E+02  0.45594000000E+02  0.51100000000E-03 0. -1.
    9900012    2    1    2    0    0 -0.17856444706E+02  0.21633759086E+02 -0.35245443436E+02  0.46142318379E+02  0.10000005633E+02 0.  0.
        -12    1    1    2    0    0  0.17856444706E+02 -0.21633759086E+02  0.35245443436E+02  0.45045681621E+02  0.00000000000E+00 0.  1.
         11    1    3    3    0    0 -0.50206998026E+01  0.10628917123E+02 -0.10355531023E+02  0.15665833165E+02  0.51100000000E-03 0. -1.
        -11    1    3    3    0    0 -0.82881459238E+01  0.73343461370E+01 -0.12004323766E+02  0.16327577452E+02  0.51100000000E-03 0.  1.
        -12    1    3    3    0    0 -0.45475989794E+01  0.36704958259E+01 -0.12885588647E+02  0.14148907762E+02  0.00000000000E+00 0.  1.
</event>
<event>
 7    1  0.3910495E-008  0.4614232E+02  0.7816164E-02  0.1320468E+00
        -11   -1    0    0    0    0  0.00000000000E+00  0.00000000000E+00  0.45593999997E+02  0.45594000000E+02  0.51100000000E-03 0.  1.
         11   -1    0    0    0    0 -0.00000000000E+00 -0.00000000000E+00 -0.45593999997E+02  0.45594000000E+02  0.51100000000E-03 0. -1.
    9900012    2    1    2    0    0 -0.18159945439E+02 -0.23691737886E+02 -0.33734722365E+02  0.46142317016E+02  0.99999932094E+01 0.  0.
        -12    1    1    2    0    0  0.18159945439E+02  0.23691737886E+02  0.33734722365E+02  0.45045682984E+02  0.00000000000E+00 0.  1.
         11    1    3    3    0    0 -0.87155765580E+01 -0.51456860347E+01 -0.11244407496E+02  0.15128650294E+02  0.51100000000E-03 0. -1.
        -11    1    3    3    0    0 -0.52401669085E+00 -0.35896614357E+01 -0.61106201978E+01  0.71063311334E+01  0.51100000000E-03 0.  1.
         12    1    3    3    0    0 -0.89203521903E+01 -0.14956390416E+02 -0.16379694671E+02  0.23907335589E+02  0.00000000000E+00 0. -1.
</event>
<event>
 7    1  0.3910495E-008  0.4614232E+02  0.7816164E-02  0.1320468E+00
        -11   -1    0    0    0    0  0.00000000000E+00  0.00000000000E+00  0.45593999997E+02  0.45594000000E+02  0.51100000000E-03 0.  1.
         11   -1    0    0    0    0 -0.00000000000E+00 -0.00000000000E+00 -0.45593999997E+02  0.45594000000E+02  0.51100000000E-03 0. -1.
    9900012    2    1    2    0    0 -0.28261792454E+02 -0.30346207391E+02 -0.17592391741E+02  0.46142318044E+02  0.10000002577E+02 0.  0.
        -12    1    1    2    0    0  0.28261792454E+02  0.30346207391E+02  0.17592391741E+02  0.45045681956E+02  0.00000000000E+00 0.  1.
         11    1    3    3    0    0 -0.11344974807E+02 -0.14826048237E+02 -0.78116683917E+01  0.20237152048E+02  0.51100000000E-03 0. -1.
        -11    1    3    3    0    0 -0.15018305247E+02 -0.12313577481E+02 -0.54077772598E+01  0.20159805010E+02  0.51100000000E-03 0.  1.
        -12    1    3    3    0    0 -0.18985124002E+01 -0.32065816726E+01 -0.43729460892E+01  0.57453609857E+01  0.00000000000E+00 0.  1.
</event>
<event>
 7    1  0.3910495E-008  0.4614232E+02  0.7816164E-02  0.1320468E+00
        -11   -1    0    0    0    0  0.00000000000E+00  0.00000000000E+00  0.45593999997E+02  0.45594000000E+02  0.51100000000E-03 0.  1.
         11   -1    0    0    0    0 -0.00000000000E+00 -0.00000000000E+00 -0.45593999997E+02  0.45594000000E+02  0.51100000000E-03 0. -1.
    9900012    2    1    2    0    0 -0.13355063127E+02 -0.23292866658E+01 -0.42957308593E+02  0.46142315978E+02  0.99999837358E+01 0.  0.
        -12    1    1    2    0    0  0.13355063127E+02  0.23292866658E+01  0.42957308593E+02  0.45045684022E+02  0.00000000000E+00 0.  1.
         11    1    3    3    0    0 -0.78378496936E+01 -0.37811814736E+01 -0.18762951065E+02  0.20682784002E+02  0.51100000000E-03 0.  1.
        -11    1    3    3    0    0 -0.50738506753E+01 -0.11481527418E+01 -0.17740865600E+02  0.18487848114E+02  0.51100000000E-03 0. -1.
        -12    1    3    3    0    0 -0.44336275833E+00  0.26000475495E+01 -0.64534919280E+01  0.69716838612E+01  0.00000000000E+00 0.  1.
</event>
<event>
 7    1  0.3910495E-008  0.4614232E+02  0.7816164E-02  0.1320468E+00
        -11   -1    0    0    0    0  0.00000000000E+00  0.00000000000E+00  0.45593999997E+02  0.45594000000E+02  0.51100000000E-03 0.  1.
         11   -1    0    0    0    0 -0.00000000000E+00 -0.00000000000E+00 -0.45593999997E+02  0.45594000000E+02  0.51100000000E-03 0. -1.
    9900012    2    1    2    0    0  0.13079738102E+00  0.33092052488E+02 -0.30561617527E+02  0.46142317502E+02  0.99999976411E+01 0.  0.
        -12    1    1    2    0    0 -0.13079738102E+00 -0.33092052488E+02  0.30561617527E+02  0.45045682498E+02  0.00000000000E+00 0.  1.
         11    1    3    3    0    0 -0.60433772040E-02  0.76916882750E+01 -0.28819950358E+01  0.82138907158E+01  0.51100000000E-03 0. -1.
        -11    1    3    3    0    0 -0.16804770547E+01  0.13968262676E+02 -0.17952282626E+02  0.22808349722E+02  0.51100000000E-03 0.  1.
        -12    1    3    3    0    0  0.18173178129E+01  0.11432101536E+02 -0.97273398654E+01  0.15120077064E+02  0.00000000000E+00 0.  1.
</event>
<event>
 7    1  0.3910495E-008  0.4614232E+02  0.7816164E-02  0.1320468E+00
        -11   -1    0    0    0    0  0.00000000000E+00  0.00000000000E+00  0.45593999997E+02  0.45594000000E+02  0.51100000000E-03 0.  1.
         11   -1    0    0    0    0 -0.00000000000E+00 -0.00000000000E+00 -0.45593999997E+02  0.45594000000E+02  0.51100000000E-03 0. -1.
    9900012    2    1    2    0    0 -0.20599593900E+02 -0.36423399671E+02 -0.16676515408E+02  0.46142317870E+02  0.10000000994E+02 0.  0.
        -12    1    1    2    0    0  0.20599593900E+02  0.36423399671E+02  0.16676515408E+02  0.45045682130E+02  0.00000000000E+00 0.  1.
         11    1    3    3    0    0 -0.48753098738E+01 -0.71565393971E+01 -0.21027595021E+01  0.89110212823E+01  0.51100000000E-03 0. -1.
        -11    1    3    3    0    0 -0.47720979614E+01 -0.31652086248E+01 -0.41277878336E+01  0.70590436499E+01  0.51100000000E-03 0.  1.
         12    1    3    3    0    0 -0.10952186064E+02 -0.26101651649E+02 -0.10445968072E+02  0.30172252938E+02  0.00000000000E+00 0. -1.
</event>
<event>
 7    1  0.3910495E-008  0.4614232E+02  0.7816164E-02  0.1320468E+00
        -11   -1    0    0    0    0  0.00000000000E+00  0.00000000000E+00  0.45593999997E+02  0.45594000000E+02  0.51100000000E-03 0. -1.
         11   -1    0    0    0    0 -0.00000000000E+00 -0.00000000000E+00 -0.45593999997E+02  0.45594000000E+02  0.51100000000E-03 0.  1.
    9900012    2    1    2    0    0 -0.19510402077E+02 -0.39187956139E+02  0.10618936067E+02  0.46142317646E+02  0.99999989460E+01 0.  0.
        -12    1    1    2    0    0  0.19510402077E+02  0.39187956139E+02 -0.10618936067E+02  0.45045682354E+02  0.00000000000E+00 0.  1.
         11    1    3    3    0    0 -0.14856218249E+02 -0.22640409147E+02  0.86921883170E+01  0.28440279271E+02  0.51100000000E-03 0. -1.
        -11    1    3    3    0    0 -0.41738386250E+01 -0.83896750418E+01  0.33562205632E+00  0.93765781925E+01  0.51100000000E-03 0.  1.
         12    1    3    3    0    0 -0.48034520350E+00 -0.81578719503E+01  0.15911256940E+01  0.83254601822E+01  0.00000000000E+00 0. -1.
</event>
<event>
 7    1  0.3910495E-008  0.4614232E+02  0.7816164E-02  0.1320468E+00
        -11   -1    0    0    0    0  0.00000000000E+00  0.00000000000E+00  0.45593999997E+02  0.45594000000E+02  0.51100000000E-03 0.  1.
         11   -1    0    0    0    0 -0.00000000000E+00 -0.00000000000E+00 -0.45593999997E+02  0.45594000000E+02  0.51100000000E-03 0. -1.
    9900012    2    1    2    0    0  0.90291411999E+01  0.19372285389E+02 -0.39652272025E+02  0.46142317535E+02  0.99999979360E+01 0.  0.
        -12    1    1    2    0    0 -0.90291411999E+01 -0.19372285389E+02  0.39652272025E+02  0.45045682465E+02  0.00000000000E+00 0.  1.
         11    1    3    3    0    0  0.41077664026E+00  0.59450719711E+01 -0.15459948458E+02  0.16568724295E+02  0.51100000000E-03 0. -1.
        -11    1    3    3    0    0  0.34517247167E+01  0.96739732677E+01 -0.11886987167E+02  0.15709889448E+02  0.51100000000E-03 0.  1.
         12    1    3    3    0    0  0.51666398430E+01  0.37532401503E+01 -0.12305336400E+02  0.13863703791E+02  0.00000000000E+00 0. -1.
</event>
<event>
 7    1  0.3910495E-008  0.4614232E+02  0.7816164E-02  0.1320468E+00
        -11   -1    0    0    0    0  0.00000000000E+00  0.00000000000E+00  0.45593999997E+02  0.45594000000E+02  0.51100000000E-03 0. -1.
         11   -1    0    0    0    0 -0.00000000000E+00 -0.00000000000E+00 -0.45593999997E+02  0.45594000000E+02  0.51100000000E-03 0.  1.
    9900012    2    1    2    0    0  0.19058085596E+01  0.39716451078E+02 -0.21168018473E+02  0.46142316538E+02  0.99999888479E+01 0.  0.
        -12    1    1    2    0    0 -0.19058085596E+01 -0.39716451078E+02  0.21168018473E+02  0.45045683462E+02  0.00000000000E+00 0.  1.
         11    1    3    3    0    0 -0.29450157920E+01  0.73267585972E+01 -0.57642327524E+01  0.97765479103E+01  0.51100000000E-03 0. -1.
        -11    1    3    3    0    0  0.95603058551E+00  0.10370823677E+02 -0.32200952338E+01  0.10901238086E+02  0.51100000000E-03 0.  1.
         12    1    3    3    0    0  0.38947937661E+01  0.22018868803E+02 -0.12183690487E+02  0.25464530542E+02  0.00000000000E+00 0. -1.
</event>
<event>
 7    1  0.3910495E-008  0.4614232E+02  0.7816164E-02  0.1320468E+00
        -11   -1    0    0    0    0  0.00000000000E+00  0.00000000000E+00  0.45593999997E+02  0.45594000000E+02  0.51100000000E-03 0. -1.
         11   -1    0    0    0    0 -0.00000000000E+00 -0.00000000000E+00 -0.45593999997E+02  0.45594000000E+02  0.51100000000E-03 0.  1.
    9900012    2    1    2    0    0  0.40237638311E+01 -0.11777405942E+02  0.43292208986E+02  0.46142319574E+02  0.10000016534E+02 0.  0.
        -12    1    1    2    0    0 -0.40237638311E+01  0.11777405942E+02 -0.43292208986E+02  0.45045680426E+02  0.00000000000E+00 0.  1.
         11    1    3    3    0    0  0.26602260144E+01 -0.11102478749E+02  0.39587446471E+02  0.41200822264E+02  0.51100000000E-03 0. -1.
        -11    1    3    3    0    0  0.15232795702E+01 -0.31066033990E+00  0.40975086942E+01  0.43825184832E+01  0.51100000000E-03 0.  1.
         12    1    3    3    0    0 -0.15974175350E+00 -0.36426685349E+00 -0.39274617909E+00  0.55897882746E+00  0.00000000000E+00 0. -1.
</event>
<event>
 7    1  0.3910495E-008  0.4614231E+02  0.7816164E-02  0.1320468E+00
        -11   -1    0    0    0    0  0.00000000000E+00  0.00000000000E+00  0.45593999997E+02  0.45594000000E+02  0.51100000000E-03 0.  1.
         11   -1    0    0    0    0 -0.00000000000E+00 -0.00000000000E+00 -0.45593999997E+02  0.45594000000E+02  0.51100000000E-03 0. -1.
    9900012    2    1    2    0    0  0.10542856771E+01  0.31761323897E+00 -0.45032229534E+02  0.46142311047E+02  0.99999387729E+01 0.  0.
        -12    1    1    2    0    0 -0.10542856771E+01 -0.31761323897E+00  0.45032229534E+02  0.45045688953E+02  0.00000000000E+00 0.  1.
         11    1    3    3    0    0  0.58989881277E+00  0.20179627868E+01 -0.21163117189E+02  0.21267291408E+02  0.51100000000E-03 0. -1.
        -11    1    3    3    0    0 -0.20920928498E+01  0.19214710741E+00 -0.18614633003E+02  0.18732814393E+02  0.51100000000E-03 0.  1.
        -12    1    3    3    0    0  0.25564797142E+01 -0.18924966552E+01 -0.52544793428E+01  0.61422052459E+01  0.00000000000E+00 0.  1.
</event>
<event>
 7    1  0.3910495E-008  0.4614232E+02  0.7816164E-02  0.1320468E+00
        -11   -1    0    0    0    0  0.00000000000E+00  0.00000000000E+00  0.45593999997E+02  0.45594000000E+02  0.51100000000E-03 0.  1.
         11   -1    0    0    0    0 -0.00000000000E+00 -0.00000000000E+00 -0.45593999997E+02  0.45594000000E+02  0.51100000000E-03 0. -1.
    9900012    2    1    2    0    0 -0.77232837676E+01  0.14629664752E+02 -0.41897939016E+02  0.46142317668E+02  0.99999991529E+01 0.  0.
        -12    1    1    2    0    0  0.77232837676E+01 -0.14629664752E+02  0.41897939016E+02  0.45045682332E+02  0.00000000000E+00 0.  1.
         11    1    3    3    0    0  0.64470461926E+00  0.54518727774E+01 -0.20226219958E+02  0.20958018391E+02  0.51100000000E-03 0. -1.
        -11    1    3    3    0    0 -0.49529969826E+01  0.47754514552E+01 -0.14924177540E+02  0.16433751587E+02  0.51100000000E-03 0.  1.
        -12    1    3    3    0    0 -0.34149914042E+01  0.44023405193E+01 -0.67475415185E+01  0.87505476905E+01  0.00000000000E+00 0.  1.
</event>
<event>
 7    1  0.3910495E-008  0.4614232E+02  0.7816164E-02  0.1320468E+00
        -11   -1    0    0    0    0  0.00000000000E+00  0.00000000000E+00  0.45593999997E+02  0.45594000000E+02  0.51100000000E-03 0.  1.
         11   -1    0    0    0    0 -0.00000000000E+00 -0.00000000000E+00 -0.45593999997E+02  0.45594000000E+02  0.51100000000E-03 0. -1.
    9900012    2    1    2    0    0 -0.11245211749E+02  0.34370355574E+02 -0.26857722564E+02  0.46142318843E+02  0.10000009866E+02 0.  0.
        -12    1    1    2    0    0  0.11245211749E+02 -0.34370355574E+02  0.26857722564E+02  0.45045681157E+02  0.00000000000E+00 0.  1.
         11    1    3    3    0    0 -0.45495775993E+01  0.16561399712E+02 -0.17479389714E+02  0.24505258248E+02  0.51100000000E-03 0. -1.
        -11    1    3    3    0    0 -0.51640430414E+01  0.76799072930E+01 -0.44118252755E+01  0.10252439665E+02  0.51100000000E-03 0.  1.
        -12    1    3    3    0    0 -0.15315911087E+01  0.10129048569E+02 -0.49665075746E+01  0.11384620930E+02  0.00000000000E+00 0.  1.
</event>
<event>
 7    1  0.3910495E-008  0.4614232E+02  0.7816164E-02  0.1320468E+00
        -11   -1    0    0    0    0  0.00000000000E+00  0.00000000000E+00  0.45593999997E+02  0.45594000000E+02  0.51100000000E-03 0.  1.
         11   -1    0    0    0    0 -0.00000000000E+00 -0.00000000000E+00 -0.45593999997E+02  0.45594000000E+02  0.51100000000E-03 0. -1.
    9900012    2    1    2    0    0  0.39094362766E+01 -0.15018557972E+02 -0.42287974360E+02  0.46142317065E+02  0.99999936526E+01 0.  0.
        -12    1    1    2    0    0 -0.39094362766E+01  0.15018557972E+02  0.42287974360E+02  0.45045682935E+02  0.00000000000E+00 0.  1.
         11    1    3    3    0    0  0.23485040077E+01 -0.10717010604E+02 -0.24105739460E+02  0.26485023363E+02  0.51100000000E-03 0. -1.
        -11    1    3    3    0    0  0.30337333624E+01 -0.40770489746E+00 -0.53158921660E+01  0.61342050161E+01  0.51100000000E-03 0.  1.
         12    1    3    3    0    0 -0.14728010936E+01 -0.38938424709E+01 -0.12866342734E+02  0.13523088686E+02  0.00000000000E+00 0. -1.
</event>
<event>
 7    1  0.3910495E-008  0.4614232E+02  0.7816164E-02  0.1320468E+00
        -11   -1    0    0    0    0  0.00000000000E+00  0.00000000000E+00  0.45593999997E+02  0.45594000000E+02  0.51100000000E-03 0. -1.
         11   -1    0    0    0    0 -0.00000000000E+00 -0.00000000000E+00 -0.45593999997E+02  0.45594000000E+02  0.51100000000E-03 0.  1.
    9900012    2    1    2    0    0 -0.40283742279E+02 -0.31663806325E+00 -0.20155228882E+02  0.46142318709E+02  0.10000008648E+02 0.  0.
        -12    1    1    2    0    0  0.40283742279E+02  0.31663806325E+00  0.20155228882E+02  0.45045681291E+02  0.00000000000E+00 0.  1.
         11    1    3    3    0    0 -0.11279718624E+02  0.24969846287E+01 -0.29076015421E+01  0.11913065577E+02  0.51100000000E-03 0. -1.
        -11    1    3    3    0    0 -0.51010062401E+01 -0.15756650074E+01 -0.13868824213E+01  0.55160155900E+01  0.51100000000E-03 0.  1.
        -12    1    3    3    0    0 -0.23903017415E+02 -0.12379576845E+01 -0.15860744919E+02  0.28713237542E+02  0.00000000000E+00 0.  1.
</event>
<event>
 7    1  0.3910495E-008  0.4614232E+02  0.7816164E-02  0.1320468E+00
        -11   -1    0    0    0    0  0.00000000000E+00  0.00000000000E+00  0.45593999997E+02  0.45594000000E+02  0.51100000000E-03 0.  1.
         11   -1    0    0    0    0 -0.00000000000E+00 -0.00000000000E+00 -0.45593999997E+02  0.45594000000E+02  0.51100000000E-03 0. -1.
    9900012    2    1    2    0    0 -0.36393494065E+02 -0.51008119471E+01 -0.26050115805E+02  0.46142320671E+02  0.10000026535E+02 0.  0.
        -12    1    1    2    0    0  0.36393494065E+02  0.51008119471E+01  0.26050115805E+02  0.45045679329E+02  0.00000000000E+00 0.  1.
         11    1    3    3    0    0 -0.26146563479E+02 -0.10633953555E+01 -0.16891843301E+02  0.31146556179E+02  0.51100000000E-03 0. -1.
        -11    1    3    3    0    0 -0.99015145941E+01 -0.30429227138E+01 -0.67400119023E+01  0.12358281863E+02  0.51100000000E-03 0.  1.
         12    1    3    3    0    0 -0.34541599124E+00 -0.99449387782E+00 -0.24182606019E+01  0.26374826290E+01  0.00000000000E+00 0. -1.
</event>
<event>
 7    1  0.3910495E-008  0.4614232E+02  0.7816164E-02  0.1320468E+00
        -11   -1    0    0    0    0  0.00000000000E+00  0.00000000000E+00  0.45593999997E+02  0.45594000000E+02  0.51100000000E-03 0. -1.
         11   -1    0    0    0    0 -0.00000000000E+00 -0.00000000000E+00 -0.45593999997E+02  0.45594000000E+02  0.51100000000E-03 0.  1.
    9900012    2    1    2    0    0 -0.15914016929E+02  0.18574860984E+02  0.37826341623E+02  0.46142317454E+02  0.99999972041E+01 0.  0.
        -12    1    1    2    0    0  0.15914016929E+02 -0.18574860984E+02 -0.37826341623E+02  0.45045682546E+02  0.00000000000E+00 0.  1.
         11    1    3    3    0    0 -0.70182823648E+01  0.64321861659E+01  0.15218651520E+02  0.17950951523E+02  0.51100000000E-03 0. -1.
        -11    1    3    3    0    0 -0.87511022735E+01  0.11924309102E+02  0.23216987591E+02  0.27528157432E+02  0.51100000000E-03 0.  1.
        -12    1    3    3    0    0 -0.14463229070E+00  0.21836571544E+00 -0.60929748750E+00  0.66320849924E+00  0.00000000000E+00 0.  1.
</event>
<event>
 7    1  0.3910495E-008  0.4614232E+02  0.7816164E-02  0.1320468E+00
        -11   -1    0    0    0    0  0.00000000000E+00  0.00000000000E+00  0.45593999997E+02  0.45594000000E+02  0.51100000000E-03 0. -1.
         11   -1    0    0    0    0 -0.00000000000E+00 -0.00000000000E+00 -0.45593999997E+02  0.45594000000E+02  0.51100000000E-03 0.  1.
    9900012    2    1    2    0    0  0.19806040811E+02  0.39996604314E+02 -0.60914461792E+01  0.46142319565E+02  0.10000016451E+02 0.  0.
        -12    1    1    2    0    0 -0.19806040811E+02 -0.39996604314E+02  0.60914461792E+01  0.45045680435E+02  0.00000000000E+00 0.  1.
         11    1    3    3    0    0  0.81023632295E+01  0.14057829596E+02 -0.48376265222E+01  0.16931435069E+02  0.51100000000E-03 0. -1.
        -11    1    3    3    0    0  0.91221451310E+01  0.16333933428E+02  0.18304512592E+01  0.18797911190E+02  0.51100000000E-03 0.  1.
        -12    1    3    3    0    0  0.25815324503E+01  0.96048412899E+01 -0.30842709162E+01  0.10412973306E+02  0.00000000000E+00 0.  1.
</event>
<event>
 7    1  0.3910495E-008  0.4614232E+02  0.7816164E-02  0.1320468E+00
        -11   -1    0    0    0    0  0.00000000000E+00  0.00000000000E+00  0.45593999997E+02  0.45594000000E+02  0.51100000000E-03 0. -1.
         11   -1    0    0    0    0 -0.00000000000E+00 -0.00000000000E+00 -0.45593999997E+02  0.45594000000E+02  0.51100000000E-03 0.  1.
    9900012    2    1    2    0    0  0.42604628518E+01 -0.44106399400E+02  0.80986094134E+01  0.46142317786E+02  0.10000000224E+02 0.  0.
        -12    1    1    2    0    0 -0.42604628518E+01  0.44106399400E+02 -0.80986094134E+01  0.45045682214E+02  0.00000000000E+00 0.  1.
         11    1    3    3    0    0  0.35870963543E+01 -0.31603210568E+02  0.40755728038E+01  0.32066188929E+02  0.51100000000E-03 0. -1.
        -11    1    3    3    0    0 -0.18709429512E+01 -0.84101168860E+01  0.31782604287E+01  0.91832365306E+01  0.51100000000E-03 0.  1.
         12    1    3    3    0    0  0.25443094487E+01 -0.40930719453E+01  0.84477618090E+00  0.48928923262E+01  0.00000000000E+00 0. -1.
</event>
<event>
 7    1  0.3910495E-008  0.4614232E+02  0.7816164E-02  0.1320468E+00
        -11   -1    0    0    0    0  0.00000000000E+00  0.00000000000E+00  0.45593999997E+02  0.45594000000E+02  0.51100000000E-03 0.  1.
         11   -1    0    0    0    0 -0.00000000000E+00 -0.00000000000E+00 -0.45593999997E+02  0.45594000000E+02  0.51100000000E-03 0. -1.
    9900012    2    1    2    0    0 -0.40444365878E+02 -0.17956091466E+02 -0.84229194759E+01  0.46142317360E+02  0.99999963449E+01 0.  0.
        -12    1    1    2    0    0  0.40444365878E+02  0.17956091466E+02  0.84229194759E+01  0.45045682640E+02  0.00000000000E+00 0.  1.
         11    1    3    3    0    0 -0.13595461583E+02 -0.58872730207E+01  0.11928006576E+01  0.14863355373E+02  0.51100000000E-03 0. -1.
        -11    1    3    3    0    0 -0.12579732419E+02 -0.47174407176E+01 -0.22666232570E+01  0.13625031960E+02  0.51100000000E-03 0.  1.
        -12    1    3    3    0    0 -0.14269171876E+02 -0.73513777280E+01 -0.73490968765E+01  0.17653930028E+02  0.00000000000E+00 0.  1.
</event>
<event>
 7    1  0.3910495E-008  0.4614232E+02  0.7816164E-02  0.1320468E+00
        -11   -1    0    0    0    0  0.00000000000E+00  0.00000000000E+00  0.45593999997E+02  0.45594000000E+02  0.51100000000E-03 0.  1.
         11   -1    0    0    0    0 -0.00000000000E+00 -0.00000000000E+00 -0.45593999997E+02  0.45594000000E+02  0.51100000000E-03 0. -1.
    9900012    2    1    2    0    0  0.27279040550E+02 -0.20816686803E+02 -0.29182750865E+02  0.46142318178E+02  0.10000003801E+02 0.  0.
        -12    1    1    2    0    0 -0.27279040550E+02  0.20816686803E+02  0.29182750865E+02  0.45045681822E+02  0.00000000000E+00 0.  1.
         11    1    3    3    0    0  0.73135824326E+01 -0.43372624801E+01 -0.86460891640E+01  0.12126631515E+02  0.51100000000E-03 0. -1.
        -11    1    3    3    0    0  0.15175822142E+02 -0.98939661485E+01 -0.99797485755E+01  0.20683121760E+02  0.51100000000E-03 0.  1.
         12    1    3    3    0    0  0.47896359745E+01 -0.65854581741E+01 -0.10556913126E+02  0.13332564902E+02  0.00000000000E+00 0. -1.
</event>
<event>
 7    1  0.3910495E-008  0.4614232E+02  0.7816164E-02  0.1320468E+00
        -11   -1    0    0    0    0  0.00000000000E+00  0.00000000000E+00  0.45593999997E+02  0.45594000000E+02  0.51100000000E-03 0.  1.
         11   -1    0    0    0    0 -0.00000000000E+00 -0.00000000000E+00 -0.45593999997E+02  0.45594000000E+02  0.51100000000E-03 0. -1.
    9900012    2    1    2    0    0 -0.19846745346E+02  0.22288810145E+02 -0.33740614952E+02  0.46142318122E+02  0.10000003290E+02 0.  0.
        -12    1    1    2    0    0  0.19846745346E+02 -0.22288810145E+02  0.33740614952E+02  0.45045681878E+02  0.00000000000E+00 0.  1.
         11    1    3    3    0    0 -0.44015343841E+01  0.41019328330E+01 -0.45168435691E+01  0.75233791603E+01  0.51100000000E-03 0. -1.
        -11    1    3    3    0    0 -0.22464158141E+01 -0.38488785679E+00 -0.41855783574E+01  0.47658775812E+01  0.51100000000E-03 0.  1.
         12    1    3    3    0    0 -0.13198795148E+02  0.18571765169E+02 -0.25038193026E+02  0.33853061380E+02  0.00000000000E+00 0. -1.
</event>
<event>
 7    1  0.3910495E-008  0.4614232E+02  0.7816164E-02  0.1320468E+00
        -11   -1    0    0    0    0  0.00000000000E+00  0.00000000000E+00  0.45593999997E+02  0.45594000000E+02  0.51100000000E-03 0.  1.
         11   -1    0    0    0    0 -0.00000000000E+00 -0.00000000000E+00 -0.45593999997E+02  0.45594000000E+02  0.51100000000E-03 0. -1.
    9900012    2    1    2    0    0  0.90059360142E+01 -0.35876942392E+02 -0.25707035236E+02  0.46142317194E+02  0.99999948243E+01 0.  0.
        -12    1    1    2    0    0 -0.90059360142E+01  0.35876942392E+02  0.25707035236E+02  0.45045682806E+02  0.00000000000E+00 0.  1.
         11    1    3    3    0    0  0.39535774250E+01 -0.24378351297E+02 -0.15166017838E+02  0.28981768127E+02  0.51100000000E-03 0. -1.
        -11    1    3    3    0    0  0.30740389690E+00 -0.21559364635E+01 -0.46617293036E+01  0.51453162732E+01  0.51100000000E-03 0.  1.
        -12    1    3    3    0    0  0.47449546922E+01 -0.93426546318E+01 -0.58792880937E+01  0.12015232794E+02  0.00000000000E+00 0.  1.
</event>
<event>
 7    1  0.3910495E-008  0.4614232E+02  0.7816164E-02  0.1320468E+00
        -11   -1    0    0    0    0  0.00000000000E+00  0.00000000000E+00  0.45593999997E+02  0.45594000000E+02  0.51100000000E-03 0.  1.
         11   -1    0    0    0    0 -0.00000000000E+00 -0.00000000000E+00 -0.45593999997E+02  0.45594000000E+02  0.51100000000E-03 0. -1.
    9900012    2    1    2    0    0 -0.32891066629E+02 -0.29999570261E+02 -0.68787350781E+01  0.46142317897E+02  0.10000001241E+02 0.  0.
        -12    1    1    2    0    0  0.32891066629E+02  0.29999570261E+02  0.68787350781E+01  0.45045682103E+02  0.00000000000E+00 0.  1.
         11    1    3    3    0    0 -0.27451035101E+02 -0.26321336020E+02 -0.76387886665E+01  0.38790761150E+02  0.51100000000E-03 0. -1.
        -11    1    3    3    0    0 -0.27965048372E+01 -0.23499915620E+00 -0.45669280065E+00  0.28432784745E+01  0.51100000000E-03 0.  1.
         12    1    3    3    0    0 -0.26435266901E+01 -0.34432350847E+01  0.12167463890E+01  0.45082782727E+01  0.00000000000E+00 0. -1.
</event>
<event>
 7    1  0.3910495E-008  0.4614232E+02  0.7816164E-02  0.1320468E+00
        -11   -1    0    0    0    0  0.00000000000E+00  0.00000000000E+00  0.45593999997E+02  0.45594000000E+02  0.51100000000E-03 0.  1.
         11   -1    0    0    0    0 -0.00000000000E+00 -0.00000000000E+00 -0.45593999997E+02  0.45594000000E+02  0.51100000000E-03 0. -1.
    9900012    2    1    2    0    0 -0.42078760797E+02 -0.13750590509E+02 -0.83314199702E+01  0.46142318650E+02  0.10000008107E+02 0.  0.
        -12    1    1    2    0    0  0.42078760797E+02  0.13750590509E+02  0.83314199702E+01  0.45045681350E+02  0.00000000000E+00 0.  1.
         11    1    3    3    0    0 -0.18235245360E+02 -0.86068850886E+01 -0.22565432077E+01  0.20290259529E+02  0.51100000000E-03 0. -1.
        -11    1    3    3    0    0 -0.13353526239E+02 -0.50127529644E+01 -0.12901020219E+01  0.14321617185E+02  0.51100000000E-03 0.  1.
         12    1    3    3    0    0 -0.10489989198E+02 -0.13095245608E+00 -0.47847747406E+01  0.11530441936E+02  0.00000000000E+00 0. -1.
</event>
<event>
 7    1  0.3910495E-008  0.4614232E+02  0.7816164E-02  0.1320468E+00
        -11   -1    0    0    0    0  0.00000000000E+00  0.00000000000E+00  0.45593999997E+02  0.45594000000E+02  0.51100000000E-03 0.  1.
         11   -1    0    0    0    0 -0.00000000000E+00 -0.00000000000E+00 -0.45593999997E+02  0.45594000000E+02  0.51100000000E-03 0. -1.
    9900012    2    1    2    0    0 -0.35792301312E+02 -0.13989706544E+02 -0.23501335638E+02  0.46142317641E+02  0.99999989043E+01 0.  0.
        -12    1    1    2    0    0  0.35792301312E+02  0.13989706544E+02  0.23501335638E+02  0.45045682359E+02  0.00000000000E+00 0.  1.
         11    1    3    3    0    0 -0.13588248874E+02 -0.95420855692E+01 -0.11278947348E+02  0.20072532426E+02  0.51100000000E-03 0. -1.
        -11    1    3    3    0    0 -0.17444829992E+01 -0.14456995403E+01 -0.57894513966E+00  0.23384708318E+01  0.51100000000E-03 0.  1.
        -12    1    3    3    0    0 -0.20459569439E+02 -0.30019214342E+01 -0.11643443151E+02  0.23731314383E+02  0.00000000000E+00 0.  1.
</event>
<event>
 7    1  0.3910495E-008  0.4614232E+02  0.7816164E-02  0.1320468E+00
        -11   -1    0    0    0    0  0.00000000000E+00  0.00000000000E+00  0.45593999997E+02  0.45594000000E+02  0.51100000000E-03 0.  1.
         11   -1    0    0    0    0 -0.00000000000E+00 -0.00000000000E+00 -0.45593999997E+02  0.45594000000E+02  0.51100000000E-03 0. -1.
    9900012    2    1    2    0    0  0.55528202766E+01 -0.13817236444E+02 -0.42513099476E+02  0.46142318042E+02  0.10000002562E+02 0.  0.
        -12    1    1    2    0    0 -0.55528202766E+01  0.13817236444E+02  0.42513099476E+02  0.45045681958E+02  0.00000000000E+00 0.  1.
         11    1    3    3    0    0  0.58455620745E+01 -0.92763952936E+01 -0.21687903567E+02  0.24302001296E+02  0.51100000000E-03 0. -1.
        -11    1    3    3    0    0  0.21233592242E+01 -0.21551684689E+01 -0.74505551254E+01  0.80414039485E+01  0.51100000000E-03 0.  1.
         12    1    3    3    0    0 -0.24161010221E+01 -0.23856726814E+01 -0.13374640784E+02  0.13798912798E+02  0.00000000000E+00 0. -1.
</event>
<event>
 7    1  0.3910495E-008  0.4614232E+02  0.7816164E-02  0.1320468E+00
        -11   -1    0    0    0    0  0.00000000000E+00  0.00000000000E+00  0.45593999997E+02  0.45594000000E+02  0.51100000000E-03 0.  1.
         11   -1    0    0    0    0 -0.00000000000E+00 -0.00000000000E+00 -0.45593999997E+02  0.45594000000E+02  0.51100000000E-03 0. -1.
    9900012    2    1    2    0    0 -0.23592878257E+02 -0.89187443542E+01 -0.37322181780E+02  0.46142321427E+02  0.10000033426E+02 0.  0.
        -12    1    1    2    0    0  0.23592878257E+02  0.89187443542E+01  0.37322181780E+02  0.45045678573E+02  0.00000000000E+00 0.  1.
         11    1    3    3    0    0 -0.78734941885E+01 -0.26236837301E+01 -0.15166625133E+02  0.17288786691E+02  0.51100000000E-03 0. -1.
        -11    1    3    3    0    0 -0.45784184442E+01 -0.44317245287E+01 -0.41704532253E+01  0.76154302645E+01  0.51100000000E-03 0.  1.
        -12    1    3    3    0    0 -0.11140965624E+02 -0.18633360954E+01 -0.17985103422E+02  0.21238104471E+02  0.00000000000E+00 0.  1.
</event>
<event>
 7    1  0.3910495E-008  0.4614232E+02  0.7816164E-02  0.1320468E+00
        -11   -1    0    0    0    0  0.00000000000E+00  0.00000000000E+00  0.45593999997E+02  0.45594000000E+02  0.51100000000E-03 0.  1.
         11   -1    0    0    0    0 -0.00000000000E+00 -0.00000000000E+00 -0.45593999997E+02  0.45594000000E+02  0.51100000000E-03 0. -1.
    9900012    2    1    2    0    0  0.29100436673E+02  0.30242163022E+02 -0.16361225349E+02  0.46142317258E+02  0.99999954120E+01 0.  0.
        -12    1    1    2    0    0 -0.29100436673E+02 -0.30242163022E+02  0.16361225349E+02  0.45045682742E+02  0.00000000000E+00 0.  1.
         11    1    3    3    0    0  0.12354050546E+02  0.11272716034E+02 -0.76295846238E+01  0.18382253765E+02  0.51100000000E-03 0. -1.
        -11    1    3    3    0    0  0.20361759037E+01  0.30338718051E+01 -0.42678841025E+01  0.56182938170E+01  0.51100000000E-03 0.  1.
         12    1    3    3    0    0  0.14710210223E+02  0.15935575183E+02 -0.44637566222E+01  0.22141769676E+02  0.00000000000E+00 0. -1.
</event>
<event>
 7    1  0.3910495E-008  0.4614232E+02  0.7816164E-02  0.1320468E+00
        -11   -1    0    0    0    0  0.00000000000E+00  0.00000000000E+00  0.45593999997E+02  0.45594000000E+02  0.51100000000E-03 0.  1.
         11   -1    0    0    0    0 -0.00000000000E+00 -0.00000000000E+00 -0.45593999997E+02  0.45594000000E+02  0.51100000000E-03 0. -1.
    9900012    2    1    2    0    0  0.13127754561E+02  0.43079557509E+02 -0.96292004669E+00  0.46142318409E+02  0.10000005906E+02 0.  0.
        -12    1    1    2    0    0 -0.13127754561E+02 -0.43079557509E+02  0.96292004669E+00  0.45045681591E+02  0.00000000000E+00 0.  1.
         11    1    3    3    0    0  0.34370079221E+01  0.16980246583E+02 -0.67046946038E+00  0.17337569813E+02  0.51100000000E-03 0. -1.
        -11    1    3    3    0    0  0.14847894057E+01  0.79359153848E+01  0.29815886315E+01  0.86065802502E+01  0.51100000000E-03 0.  1.
         12    1    3    3    0    0  0.82059572326E+01  0.18163395542E+02 -0.32740392178E+01  0.20198168345E+02  0.00000000000E+00 0. -1.
</event>
<event>
 7    1  0.3910495E-008  0.4614231E+02  0.7816164E-02  0.1320468E+00
        -11   -1    0    0    0    0  0.00000000000E+00  0.00000000000E+00  0.45593999997E+02  0.45594000000E+02  0.51100000000E-03 0. -1.
         11   -1    0    0    0    0 -0.00000000000E+00 -0.00000000000E+00 -0.45593999997E+02  0.45594000000E+02  0.51100000000E-03 0.  1.
    9900012    2    1    2    0    0 -0.68787095518E+01  0.47787273119E+01  0.44260150086E+02  0.46142314685E+02  0.99999719526E+01 0.  0.
        -12    1    1    2    0    0  0.68787095518E+01 -0.47787273119E+01 -0.44260150086E+02  0.45045685315E+02  0.00000000000E+00 0.  1.
         11    1    3    3    0    0 -0.65153756550E+01  0.30792720255E+01  0.36316027166E+02  0.37024125453E+02  0.51100000000E-03 0. -1.
        -11    1    3    3    0    0 -0.19978769340E+01  0.19754483052E+01  0.47217771398E+01  0.54944597431E+01  0.51100000000E-03 0.  1.
         12    1    3    3    0    0  0.16345430372E+01 -0.27599301879E+00  0.32223457800E+01  0.36237294894E+01  0.00000000000E+00 0. -1.
</event>
<event>
 7    1  0.3910495E-008  0.4614232E+02  0.7816164E-02  0.1320468E+00
        -11   -1    0    0    0    0  0.00000000000E+00  0.00000000000E+00  0.45593999997E+02  0.45594000000E+02  0.51100000000E-03 0. -1.
         11   -1    0    0    0    0 -0.00000000000E+00 -0.00000000000E+00 -0.45593999997E+02  0.45594000000E+02  0.51100000000E-03 0.  1.
    9900012    2    1    2    0    0 -0.12509354879E+02  0.25728771065E+02  0.34794539839E+02  0.46142316271E+02  0.99999864148E+01 0.  0.
        -12    1    1    2    0    0  0.12509354879E+02 -0.25728771065E+02 -0.34794539839E+02  0.45045683729E+02  0.00000000000E+00 0.  1.
         11    1    3    3    0    0 -0.28901236750E+01  0.15897512323E+01  0.39155321057E+01  0.51197183291E+01  0.51100000000E-03 0. -1.
        -11    1    3    3    0    0 -0.10705484079E+01  0.72731392714E+00  0.47071845627E+01  0.48818691309E+01  0.51100000000E-03 0.  1.
         12    1    3    3    0    0 -0.85486827956E+01  0.23411705906E+02  0.26171823170E+02  0.36140728811E+02  0.00000000000E+00 0. -1.
</event>
<event>
 7    1  0.3910495E-008  0.4614232E+02  0.7816164E-02  0.1320468E+00
        -11   -1    0    0    0    0  0.00000000000E+00  0.00000000000E+00  0.45593999997E+02  0.45594000000E+02  0.51100000000E-03 0. -1.
         11   -1    0    0    0    0 -0.00000000000E+00 -0.00000000000E+00 -0.45593999997E+02  0.45594000000E+02  0.51100000000E-03 0.  1.
    9900012    2    1    2    0    0 -0.33435614305E+02 -0.11231036358E+02  0.28018510196E+02  0.46142318795E+02  0.10000009432E+02 0.  0.
        -12    1    1    2    0    0  0.33435614305E+02  0.11231036358E+02 -0.28018510196E+02  0.45045681205E+02  0.00000000000E+00 0.  1.
         11    1    3    3    0    0 -0.10124634952E+02  0.81302357169E+00  0.10359762242E+02  0.14508408397E+02  0.51100000000E-03 0. -1.
        -11    1    3    3    0    0 -0.48130747429E+01 -0.23663081682E+01  0.38959516251E+01  0.66289925444E+01  0.51100000000E-03 0.  1.
         12    1    3    3    0    0 -0.18497904610E+02 -0.96777517618E+01  0.13762796328E+02  0.25004917854E+02  0.00000000000E+00 0. -1.
</event>
<event>
 7    1  0.3910495E-008  0.4614232E+02  0.7816164E-02  0.1320468E+00
        -11   -1    0    0    0    0  0.00000000000E+00  0.00000000000E+00  0.45593999997E+02  0.45594000000E+02  0.51100000000E-03 0. -1.
         11   -1    0    0    0    0 -0.00000000000E+00 -0.00000000000E+00 -0.45593999997E+02  0.45594000000E+02  0.51100000000E-03 0.  1.
    9900012    2    1    2    0    0 -0.15925499968E+02 -0.11918846927E+02  0.40415750546E+02  0.46142319258E+02  0.10000013649E+02 0.  0.
        -12    1    1    2    0    0  0.15925499968E+02  0.11918846927E+02 -0.40415750546E+02  0.45045680742E+02  0.00000000000E+00 0.  1.
         11    1    3    3    0    0 -0.13353914240E+02 -0.12019667279E+02  0.27839451547E+02  0.33133585525E+02  0.51100000000E-03 0. -1.
        -11    1    3    3    0    0 -0.29003390683E+00 -0.74173506780E+00  0.46489310697E+01  0.47166567535E+01  0.51100000000E-03 0.  1.
         12    1    3    3    0    0 -0.22815518217E+01  0.84255541972E+00  0.79273679293E+01  0.82920769797E+01  0.00000000000E+00 0. -1.
</event>
<event>
 7    1  0.3910495E-008  0.4614232E+02  0.7816164E-02  0.1320468E+00
        -11   -1    0    0    0    0  0.00000000000E+00  0.00000000000E+00  0.45593999997E+02  0.45594000000E+02  0.51100000000E-03 0.  1.
         11   -1    0    0    0    0 -0.00000000000E+00 -0.00000000000E+00 -0.45593999997E+02  0.45594000000E+02  0.51100000000E-03 0. -1.
    9900012    2    1    2    0    0 -0.18572904050E+02  0.24351254925E+00 -0.41037804953E+02  0.46142317648E+02  0.99999989670E+01 0.  0.
        -12    1    1    2    0    0  0.18572904050E+02 -0.24351254925E+00  0.41037804953E+02  0.45045682352E+02  0.00000000000E+00 0.  1.
         11    1    3    3    0    0 -0.80191609442E+01  0.25781808355E+01 -0.23063688156E+02  0.24553771000E+02  0.51100000000E-03 0. -1.
        -11    1    3    3    0    0  0.14793910952E+00  0.51599665823E-01 -0.31307245314E+01  0.31346427003E+01  0.51100000000E-03 0.  1.
         12    1    3    3    0    0 -0.10701682216E+02 -0.23862679521E+01 -0.14843392265E+02  0.18453903948E+02  0.00000000000E+00 0. -1.
</event>
<event>
 7    1  0.3910495E-008  0.4614232E+02  0.7816164E-02  0.1320468E+00
        -11   -1    0    0    0    0  0.00000000000E+00  0.00000000000E+00  0.45593999997E+02  0.45594000000E+02  0.51100000000E-03 0. -1.
         11   -1    0    0    0    0 -0.00000000000E+00 -0.00000000000E+00 -0.45593999997E+02  0.45594000000E+02  0.51100000000E-03 0.  1.
    9900012    2    1    2    0    0 -0.26100488822E+02 -0.99446288610E-01 -0.36713322347E+02  0.46142318253E+02  0.10000004489E+02 0.  0.
        -12    1    1    2    0    0  0.26100488822E+02  0.99446288610E-01  0.36713322347E+02  0.45045681747E+02  0.00000000000E+00 0.  1.
         11    1    3    3    0    0 -0.12578458130E+02 -0.45553165131E+00 -0.13034610692E+02  0.18119773568E+02  0.51100000000E-03 0. -1.
        -11    1    3    3    0    0 -0.12589905330E+02 -0.17060930697E+01 -0.19586247068E+02  0.23346039155E+02  0.51100000000E-03 0.  1.
        -12    1    3    3    0    0 -0.93212536203E+00  0.20621784324E+01 -0.40924645869E+01  0.46765055301E+01  0.00000000000E+00 0.  1.
</event>
<event>
 7    1  0.3910495E-008  0.4614232E+02  0.7816164E-02  0.1320468E+00
        -11   -1    0    0    0    0  0.00000000000E+00  0.00000000000E+00  0.45593999997E+02  0.45594000000E+02  0.51100000000E-03 0.  1.
         11   -1    0    0    0    0 -0.00000000000E+00 -0.00000000000E+00 -0.45593999997E+02  0.45594000000E+02  0.51100000000E-03 0. -1.
    9900012    2    1    2    0    0  0.22434880712E+01  0.37947061222E+02 -0.24168178194E+02  0.46142317284E+02  0.99999956522E+01 0.  0.
        -12    1    1    2    0    0 -0.22434880712E+01 -0.37947061222E+02  0.24168178194E+02  0.45045682716E+02  0.00000000000E+00 0.  1.
         11    1    3    3    0    0  0.14447461875E+00  0.38889960245E+01 -0.60797141467E+01  0.72185931705E+01  0.51100000000E-03 0.  1.
        -11    1    3    3    0    0  0.17350885523E+01  0.22704460375E+02 -0.14564945218E+02  0.27030365936E+02  0.51100000000E-03 0. -1.
         12    1    3    3    0    0  0.36392490014E+00  0.11353604822E+02 -0.35235188301E+01  0.11893358178E+02  0.00000000000E+00 0. -1.
</event>
<event>
 7    1  0.3910495E-008  0.4614232E+02  0.7816164E-02  0.1320468E+00
        -11   -1    0    0    0    0  0.00000000000E+00  0.00000000000E+00  0.45593999997E+02  0.45594000000E+02  0.51100000000E-03 0.  1.
         11   -1    0    0    0    0 -0.00000000000E+00 -0.00000000000E+00 -0.45593999997E+02  0.45594000000E+02  0.51100000000E-03 0. -1.
    9900012    2    1    2    0    0 -0.36627648451E+02  0.18973330664E+02 -0.18098098809E+02  0.46142322204E+02  0.10000040515E+02 0.  0.
        -12    1    1    2    0    0  0.36627648451E+02 -0.18973330664E+02  0.18098098809E+02  0.45045677796E+02  0.00000000000E+00 0.  1.
         11    1    3    3    0    0 -0.11115176786E+02  0.55849346778E+01 -0.26588796449E+01  0.12720388813E+02  0.51100000000E-03 0. -1.
        -11    1    3    3    0    0 -0.22903772304E+02  0.91485709453E+01 -0.12933374093E+02  0.27848721726E+02  0.51100000000E-03 0.  1.
        -12    1    3    3    0    0 -0.26086993620E+01  0.42398250412E+01 -0.25058450717E+01  0.55732116652E+01  0.00000000000E+00 0.  1.
</event>
<event>
 7    1  0.3910495E-008  0.4614232E+02  0.7816164E-02  0.1320468E+00
        -11   -1    0    0    0    0  0.00000000000E+00  0.00000000000E+00  0.45593999997E+02  0.45594000000E+02  0.51100000000E-03 0.  1.
         11   -1    0    0    0    0 -0.00000000000E+00 -0.00000000000E+00 -0.45593999997E+02  0.45594000000E+02  0.51100000000E-03 0. -1.
    9900012    2    1    2    0    0  0.10669543589E+02 -0.38124242512E+02 -0.21489913828E+02  0.46142318477E+02  0.10000006531E+02 0.  0.
        -12    1    1    2    0    0 -0.10669543589E+02  0.38124242512E+02  0.21489913828E+02  0.45045681523E+02  0.00000000000E+00 0.  1.
         11    1    3    3    0    0  0.57751729314E+01 -0.11400532885E+02 -0.60317921275E+01  0.14131782937E+02  0.51100000000E-03 0. -1.
        -11    1    3    3    0    0  0.52439626530E+01 -0.13282144163E+02 -0.56038528580E+01  0.15340067307E+02  0.51100000000E-03 0.  1.
        -12    1    3    3    0    0 -0.34959199575E+00 -0.13441565464E+02 -0.98542688428E+01  0.16670468233E+02  0.00000000000E+00 0.  1.
</event>
<event>
 7    1  0.3910495E-008  0.4614232E+02  0.7816164E-02  0.1320468E+00
        -11   -1    0    0    0    0  0.00000000000E+00  0.00000000000E+00  0.45593999997E+02  0.45594000000E+02  0.51100000000E-03 0.  1.
         11   -1    0    0    0    0 -0.00000000000E+00 -0.00000000000E+00 -0.45593999997E+02  0.45594000000E+02  0.51100000000E-03 0. -1.
    9900012    2    1    2    0    0 -0.13311427833E+02 -0.10339566120E+02 -0.41773347279E+02  0.46142320059E+02  0.10000020953E+02 0.  0.
        -12    1    1    2    0    0  0.13311427833E+02  0.10339566120E+02  0.41773347279E+02  0.45045679941E+02  0.00000000000E+00 0.  1.
         11    1    3    3    0    0 -0.11221204386E+01 -0.10335291914E+01 -0.14920568944E+02  0.14998357068E+02  0.51100000000E-03 0.  1.
        -11    1    3    3    0    0 -0.66240287903E+01 -0.72880728587E+01 -0.17229789807E+02  0.19845891778E+02  0.51100000000E-03 0. -1.
        -12    1    3    3    0    0 -0.55652786042E+01 -0.20179640696E+01 -0.96229885272E+01  0.11298071213E+02  0.00000000000E+00 0.  1.
</event>
<event>
 7    1  0.3910495E-008  0.4614232E+02  0.7816164E-02  0.1320468E+00
        -11   -1    0    0    0    0  0.00000000000E+00  0.00000000000E+00  0.45593999997E+02  0.45594000000E+02  0.51100000000E-03 0. -1.
         11   -1    0    0    0    0 -0.00000000000E+00 -0.00000000000E+00 -0.45593999997E+02  0.45594000000E+02  0.51100000000E-03 0.  1.
    9900012    2    1    2    0    0 -0.27840442392E+02 -0.71814508234E+01  0.34676361273E+02  0.46142317636E+02  0.99999988598E+01 0.  0.
        -12    1    1    2    0    0  0.27840442392E+02  0.71814508234E+01 -0.34676361273E+02  0.45045682364E+02  0.00000000000E+00 0.  1.
         11    1    3    3    0    0 -0.14286430469E+02  0.67067243369E-02  0.12573992582E+02  0.19031747956E+02  0.51100000000E-03 0. -1.
        -11    1    3    3    0    0 -0.79698217800E+01 -0.58560968516E+01  0.15178602629E+02  0.18116343659E+02  0.51100000000E-03 0.  1.
        -12    1    3    3    0    0 -0.55841901429E+01 -0.13320606962E+01  0.69237660616E+01  0.89942260215E+01  0.00000000000E+00 0.  1.
</event>
<event>
 7    1  0.3910495E-008  0.4614232E+02  0.7816164E-02  0.1320468E+00
        -11   -1    0    0    0    0  0.00000000000E+00  0.00000000000E+00  0.45593999997E+02  0.45594000000E+02  0.51100000000E-03 0.  1.
         11   -1    0    0    0    0 -0.00000000000E+00 -0.00000000000E+00 -0.45593999997E+02  0.45594000000E+02  0.51100000000E-03 0. -1.
    9900012    2    1    2    0    0  0.33322406475E+02 -0.30289241500E+02  0.11369165250E+01  0.46142317597E+02  0.99999985075E+01 0.  0.
        -12    1    1    2    0    0 -0.33322406475E+02  0.30289241500E+02 -0.11369165250E+01  0.45045682403E+02  0.00000000000E+00 0.  1.
         11    1    3    3    0    0  0.28540684075E+02 -0.23582248366E+02  0.12122970376E+01  0.37042715206E+02  0.51100000000E-03 0.  1.
        -11    1    3    3    0    0  0.46358072972E+01 -0.67311289536E+01  0.79972543441E+00  0.82120866604E+01  0.51100000000E-03 0. -1.
        -12    1    3    3    0    0  0.14591510289E+00  0.24135819108E-01 -0.87510594704E+00  0.88751573144E+00  0.00000000000E+00 0.  1.
</event>
<event>
 7    1  0.3910495E-008  0.4614232E+02  0.7816164E-02  0.1320468E+00
        -11   -1    0    0    0    0  0.00000000000E+00  0.00000000000E+00  0.45593999997E+02  0.45594000000E+02  0.51100000000E-03 0.  1.
         11   -1    0    0    0    0 -0.00000000000E+00 -0.00000000000E+00 -0.45593999997E+02  0.45594000000E+02  0.51100000000E-03 0. -1.
    9900012    2    1    2    0    0 -0.30444714232E+02  0.33173804823E+02  0.13159199843E+01  0.46142316561E+02  0.99999890523E+01 0.  0.
        -12    1    1    2    0    0  0.30444714232E+02 -0.33173804823E+02 -0.13159199843E+01  0.45045683439E+02  0.00000000000E+00 0.  1.
         11    1    3    3    0    0 -0.14396434929E+02  0.20019712335E+02 -0.25961351198E+01  0.24794881296E+02  0.51100000000E-03 0. -1.
        -11    1    3    3    0    0 -0.38393862867E+01  0.16546343257E+01  0.30327377807E+00  0.41917391446E+01  0.51100000000E-03 0.  1.
         12    1    3    3    0    0 -0.12208893016E+02  0.11499458162E+02  0.36087813260E+01  0.17155696120E+02  0.00000000000E+00 0. -1.
</event>
<event>
 7    1  0.3910495E-008  0.4614233E+02  0.7816164E-02  0.1320468E+00
        -11   -1    0    0    0    0  0.00000000000E+00  0.00000000000E+00  0.45593999997E+02  0.45594000000E+02  0.51100000000E-03 0.  1.
         11   -1    0    0    0    0 -0.00000000000E+00 -0.00000000000E+00 -0.45593999997E+02  0.45594000000E+02  0.51100000000E-03 0. -1.
    9900012    2    1    2    0    0 -0.28339340512E+02 -0.26628267268E+02 -0.22736091001E+02  0.46142326819E+02  0.10000082596E+02 0.  0.
        -12    1    1    2    0    0  0.28339340512E+02  0.26628267268E+02  0.22736091001E+02  0.45045673181E+02  0.00000000000E+00 0.  1.
         11    1    3    3    0    0 -0.11196768535E+02 -0.15132855816E+02 -0.12366719552E+02  0.22523470059E+02  0.51100000000E-03 0. -1.
        -11    1    3    3    0    0 -0.15904923370E+02 -0.11853671693E+02 -0.91499837377E+01  0.21844869482E+02  0.51100000000E-03 0.  1.
        -12    1    3    3    0    0 -0.12376486062E+01  0.35826024030E+00 -0.12193877113E+01  0.17739872781E+01  0.00000000000E+00 0.  1.
</event>
<event>
 7    1  0.3910495E-008  0.4614232E+02  0.7816164E-02  0.1320468E+00
        -11   -1    0    0    0    0  0.00000000000E+00  0.00000000000E+00  0.45593999997E+02  0.45594000000E+02  0.51100000000E-03 0.  1.
         11   -1    0    0    0    0 -0.00000000000E+00 -0.00000000000E+00 -0.45593999997E+02  0.45594000000E+02  0.51100000000E-03 0. -1.
    9900012    2    1    2    0    0 -0.44047025322E+02 -0.68413395417E+00  0.94077130559E+01  0.46142317144E+02  0.99999943751E+01 0.  0.
        -12    1    1    2    0    0  0.44047025322E+02  0.68413395417E+00 -0.94077130559E+01  0.45045682856E+02  0.00000000000E+00 0.  1.
         11    1    3    3    0    0 -0.23249739019E+02 -0.40660971966E+01  0.79494490584E+01  0.24905365917E+02  0.51100000000E-03 0. -1.
        -11    1    3    3    0    0 -0.19807298685E+01  0.99224434505E+00  0.27523050907E+00  0.22323959654E+01  0.51100000000E-03 0.  1.
        -12    1    3    3    0    0 -0.18816556435E+02  0.23897188974E+01  0.11830334884E+01  0.19004555262E+02  0.00000000000E+00 0.  1.
</event>
<event>
 7    1  0.3910495E-008  0.4614232E+02  0.7816164E-02  0.1320468E+00
        -11   -1    0    0    0    0  0.00000000000E+00  0.00000000000E+00  0.45593999997E+02  0.45594000000E+02  0.51100000000E-03 0.  1.
         11   -1    0    0    0    0 -0.00000000000E+00 -0.00000000000E+00 -0.45593999997E+02  0.45594000000E+02  0.51100000000E-03 0. -1.
    9900012    2    1    2    0    0 -0.29058888640E+01  0.78585504947E+01 -0.44259603383E+02  0.46142317659E+02  0.99999990697E+01 0.  0.
        -12    1    1    2    0    0  0.29058888640E+01 -0.78585504947E+01  0.44259603383E+02  0.45045682341E+02  0.00000000000E+00 0.  1.
         11    1    3    3    0    0 -0.46464997566E+01  0.54545445670E+01 -0.15176276917E+02  0.16782770860E+02  0.51100000000E-03 0.  1.
        -11    1    3    3    0    0 -0.21743965629E+00  0.13484583266E+01 -0.53276923689E+01  0.54999932820E+01  0.51100000000E-03 0. -1.
        -12    1    3    3    0    0  0.19580505489E+01  0.10555476010E+01 -0.23755634097E+02  0.23859553517E+02  0.00000000000E+00 0.  1.
</event>
<event>
 7    1  0.3910495E-008  0.4614232E+02  0.7816164E-02  0.1320468E+00
        -11   -1    0    0    0    0  0.00000000000E+00  0.00000000000E+00  0.45593999997E+02  0.45594000000E+02  0.51100000000E-03 0. -1.
         11   -1    0    0    0    0 -0.00000000000E+00 -0.00000000000E+00 -0.45593999997E+02  0.45594000000E+02  0.51100000000E-03 0.  1.
    9900012    2    1    2    0    0  0.98214223624E+00 -0.22218934470E+02  0.39172285184E+02  0.46142316757E+02  0.99999908414E+01 0.  0.
        -12    1    1    2    0    0 -0.98214223624E+00  0.22218934470E+02 -0.39172285184E+02  0.45045683243E+02  0.00000000000E+00 0.  1.
         11    1    3    3    0    0 -0.23358532397E+01 -0.61114461357E+01  0.88833203698E+01  0.11032649966E+02  0.51100000000E-03 0. -1.
        -11    1    3    3    0    0  0.22566457931E+01 -0.13294421224E+02  0.28697686755E+02  0.31707906132E+02  0.51100000000E-03 0.  1.
        -12    1    3    3    0    0  0.10613496828E+01 -0.28130671106E+01  0.15912780585E+01  0.34017606584E+01  0.00000000000E+00 0.  1.
</event>
<event>
 7    1  0.3910495E-008  0.4614231E+02  0.7816164E-02  0.1320468E+00
        -11   -1    0    0    0    0  0.00000000000E+00  0.00000000000E+00  0.45593999997E+02  0.45594000000E+02  0.51100000000E-03 0. -1.
         11   -1    0    0    0    0 -0.00000000000E+00 -0.00000000000E+00 -0.45593999997E+02  0.45594000000E+02  0.51100000000E-03 0.  1.
    9900012    2    1    2    0    0 -0.35097537955E+02  0.15033065673E+02  0.23901538579E+02  0.46142314519E+02  0.99999704348E+01 0.  0.
        -12    1    1    2    0    0  0.35097537955E+02 -0.15033065673E+02 -0.23901538579E+02  0.45045685481E+02  0.00000000000E+00 0.  1.
         11    1    3    3    0    0 -0.16485887644E+01 -0.85294723427E+00  0.48212112653E+00  0.19177603970E+01  0.51100000000E-03 0. -1.
        -11    1    3    3    0    0 -0.12448335267E+02  0.72930039799E+01  0.12285509359E+02  0.18949477524E+02  0.51100000000E-03 0.  1.
        -12    1    3    3    0    0 -0.21000613923E+02  0.85930089270E+01  0.11133908094E+02  0.25275076598E+02  0.00000000000E+00 0.  1.
</event>
<event>
 7    1  0.3910495E-008  0.4614232E+02  0.7816164E-02  0.1320468E+00
        -11   -1    0    0    0    0  0.00000000000E+00  0.00000000000E+00  0.45593999997E+02  0.45594000000E+02  0.51100000000E-03 0. -1.
         11   -1    0    0    0    0 -0.00000000000E+00 -0.00000000000E+00 -0.45593999997E+02  0.45594000000E+02  0.51100000000E-03 0.  1.
    9900012    2    1    2    0    0  0.17883492616E+02 -0.60682474987E+01  0.40895850487E+02  0.46142317378E+02  0.99999965066E+01 0.  0.
        -12    1    1    2    0    0 -0.17883492616E+02  0.60682474987E+01 -0.40895850487E+02  0.45045682622E+02  0.00000000000E+00 0.  1.
         11    1    3    3    0    0  0.23716371372E+01 -0.65644979911E-01  0.58792111529E+01  0.63398813881E+01  0.51100000000E-03 0. -1.
        -11    1    3    3    0    0  0.10063905860E+02  0.29811764954E+00  0.14437129057E+02  0.17601186635E+02  0.51100000000E-03 0.  1.
        -12    1    3    3    0    0  0.54479496191E+01 -0.63007201683E+01  0.20579510277E+02  0.22201249355E+02  0.00000000000E+00 0.  1.
</event>
<event>
 7    1  0.3910495E-008  0.4614232E+02  0.7816164E-02  0.1320468E+00
        -11   -1    0    0    0    0  0.00000000000E+00  0.00000000000E+00  0.45593999997E+02  0.45594000000E+02  0.51100000000E-03 0.  1.
         11   -1    0    0    0    0 -0.00000000000E+00 -0.00000000000E+00 -0.45593999997E+02  0.45594000000E+02  0.51100000000E-03 0. -1.
    9900012    2    1    2    0    0  0.19332341983E+02 -0.29744593606E+02 -0.27760279859E+02  0.46142318374E+02  0.10000005589E+02 0.  0.
        -12    1    1    2    0    0 -0.19332341983E+02  0.29744593606E+02  0.27760279859E+02  0.45045681626E+02  0.00000000000E+00 0.  1.
         11    1    3    3    0    0 -0.70874613790E-01 -0.36955545721E+01 -0.38795373262E+01  0.53584472502E+01  0.51100000000E-03 0. -1.
        -11    1    3    3    0    0  0.10510963894E+02 -0.16441110631E+02 -0.10917692783E+02  0.22360377830E+02  0.51100000000E-03 0.  1.
        -12    1    3    3    0    0  0.88922527028E+01 -0.96079284028E+01 -0.12963049750E+02  0.18423493294E+02  0.00000000000E+00 0.  1.
</event>
<event>
 7    1  0.3910495E-008  0.4614231E+02  0.7816164E-02  0.1320468E+00
        -11   -1    0    0    0    0  0.00000000000E+00  0.00000000000E+00  0.45593999997E+02  0.45594000000E+02  0.51100000000E-03 0.  1.
         11   -1    0    0    0    0 -0.00000000000E+00 -0.00000000000E+00 -0.45593999997E+02  0.45594000000E+02  0.51100000000E-03 0. -1.
    9900012    2    1    2    0    0 -0.11505282485E+02  0.10552043341E+02 -0.42253953772E+02  0.46142314823E+02  0.99999732081E+01 0.  0.
        -12    1    1    2    0    0  0.11505282485E+02 -0.10552043341E+02  0.42253953772E+02  0.45045685177E+02  0.00000000000E+00 0.  1.
         11    1    3    3    0    0 -0.72302535814E+01  0.32859241463E+01 -0.16038681813E+02  0.17897295296E+02  0.51100000000E-03 0. -1.
        -11    1    3    3    0    0 -0.16538121037E+01 -0.67070165465E+00 -0.81019645278E+01  0.82961897673E+01  0.51100000000E-03 0.  1.
         12    1    3    3    0    0 -0.26212167998E+01  0.79368208493E+01 -0.18113307431E+02  0.19948829760E+02  0.00000000000E+00 0. -1.
</event>
<event>
 7    1  0.3910495E-008  0.4614232E+02  0.7816164E-02  0.1320468E+00
        -11   -1    0    0    0    0  0.00000000000E+00  0.00000000000E+00  0.45593999997E+02  0.45594000000E+02  0.51100000000E-03 0. -1.
         11   -1    0    0    0    0 -0.00000000000E+00 -0.00000000000E+00 -0.45593999997E+02  0.45594000000E+02  0.51100000000E-03 0.  1.
    9900012    2    1    2    0    0  0.41967594520E+02 -0.39031544922E+01  0.15893391962E+02  0.46142317490E+02  0.99999975264E+01 0.  0.
        -12    1    1    2    0    0 -0.41967594520E+02  0.39031544922E+01 -0.15893391962E+02  0.45045682510E+02  0.00000000000E+00 0.  1.
         11    1    3    3    0    0  0.15939428424E+02 -0.13428775262E+01  0.45537457497E+01  0.16631455112E+02  0.51100000000E-03 0. -1.
        -11    1    3    3    0    0  0.33834549310E+01  0.15994811132E+01 -0.21866042608E+00  0.37488557914E+01  0.51100000000E-03 0.  1.
        -12    1    3    3    0    0  0.22644711164E+02 -0.41597580791E+01  0.11558306639E+02  0.25762006586E+02  0.00000000000E+00 0.  1.
</event>
<event>
 7    1  0.3910495E-008  0.4614232E+02  0.7816164E-02  0.1320468E+00
        -11   -1    0    0    0    0  0.00000000000E+00  0.00000000000E+00  0.45593999997E+02  0.45594000000E+02  0.51100000000E-03 0.  1.
         11   -1    0    0    0    0 -0.00000000000E+00 -0.00000000000E+00 -0.45593999997E+02  0.45594000000E+02  0.51100000000E-03 0. -1.
    9900012    2    1    2    0    0 -0.14996843554E+02 -0.11648291717E+02 -0.40847586467E+02  0.46142319445E+02  0.10000015354E+02 0.  0.
        -12    1    1    2    0    0  0.14996843554E+02  0.11648291717E+02  0.40847586467E+02  0.45045680555E+02  0.00000000000E+00 0.  1.
         11    1    3    3    0    0 -0.55230808684E+01 -0.10504427579E+02 -0.24154532042E+02  0.26912614876E+02  0.51100000000E-03 0. -1.
        -11    1    3    3    0    0 -0.38826232968E+01 -0.39302487837E+00 -0.66297314450E+01  0.76930209615E+01  0.51100000000E-03 0.  1.
         12    1    3    3    0    0 -0.55911393887E+01 -0.75083925988E+00 -0.10063322980E+02  0.11536683607E+02  0.00000000000E+00 0. -1.
</event>
<event>
 7    1  0.3910495E-008  0.4614232E+02  0.7816164E-02  0.1320468E+00
        -11   -1    0    0    0    0  0.00000000000E+00  0.00000000000E+00  0.45593999997E+02  0.45594000000E+02  0.51100000000E-03 0.  1.
         11   -1    0    0    0    0 -0.00000000000E+00 -0.00000000000E+00 -0.45593999997E+02  0.45594000000E+02  0.51100000000E-03 0. -1.
    9900012    2    1    2    0    0 -0.15543015907E+02  0.37684573021E+02 -0.19167709692E+02  0.46142317831E+02  0.10000000640E+02 0.  0.
        -12    1    1    2    0    0  0.15543015907E+02 -0.37684573021E+02  0.19167709692E+02  0.45045682169E+02  0.00000000000E+00 0.  1.
         11    1    3    3    0    0 -0.26535179328E+01  0.98287696056E+01 -0.43555021423E+01  0.11073223043E+02  0.51100000000E-03 0. -1.
        -11    1    3    3    0    0 -0.60194920955E+01  0.17132136703E+02 -0.45676493480E+01  0.18724524398E+02  0.51100000000E-03 0.  1.
         12    1    3    3    0    0 -0.68700058783E+01  0.10723666712E+02 -0.10244558202E+02  0.16344570391E+02  0.00000000000E+00 0. -1.
</event>
<event>
 7    1  0.3910495E-008  0.4614232E+02  0.7816164E-02  0.1320468E+00
        -11   -1    0    0    0    0  0.00000000000E+00  0.00000000000E+00  0.45593999997E+02  0.45594000000E+02  0.51100000000E-03 0. -1.
         11   -1    0    0    0    0 -0.00000000000E+00 -0.00000000000E+00 -0.45593999997E+02  0.45594000000E+02  0.51100000000E-03 0.  1.
    9900012    2    1    2    0    0 -0.40369750182E+02 -0.12910983472E+02 -0.15254613965E+02  0.46142317952E+02  0.10000001737E+02 0.  0.
        -12    1    1    2    0    0  0.40369750182E+02  0.12910983472E+02  0.15254613965E+02  0.45045682048E+02  0.00000000000E+00 0.  1.
         11    1    3    3    0    0 -0.15850343831E+02 -0.61381605944E+01 -0.54682294058E+01  0.17855305882E+02  0.51100000000E-03 0. -1.
        -11    1    3    3    0    0 -0.51357266349E+01 -0.35006836143E+01 -0.51937746580E+01  0.80997388411E+01  0.51100000000E-03 0.  1.
         12    1    3    3    0    0 -0.19383679716E+02 -0.32721392635E+01 -0.45926099017E+01  0.20187273229E+02  0.00000000000E+00 0. -1.
</event>
<event>
 7    1  0.3910495E-008  0.4614232E+02  0.7816164E-02  0.1320468E+00
        -11   -1    0    0    0    0  0.00000000000E+00  0.00000000000E+00  0.45593999997E+02  0.45594000000E+02  0.51100000000E-03 0.  1.
         11   -1    0    0    0    0 -0.00000000000E+00 -0.00000000000E+00 -0.45593999997E+02  0.45594000000E+02  0.51100000000E-03 0. -1.
    9900012    2    1    2    0    0  0.30619762846E+02 -0.24560486497E+02 -0.22098105834E+02  0.46142315910E+02  0.99999831213E+01 0.  0.
        -12    1    1    2    0    0 -0.30619762846E+02  0.24560486497E+02  0.22098105834E+02  0.45045684090E+02  0.00000000000E+00 0.  1.
         11    1    3    3    0    0  0.22318916445E+02 -0.19467866835E+02 -0.15706529453E+02  0.33523528127E+02  0.51100000000E-03 0. -1.
        -11    1    3    3    0    0  0.72023378349E+01 -0.39944965504E+01 -0.27884399728E+01  0.86951176370E+01  0.51100000000E-03 0.  1.
         12    1    3    3    0    0  0.10985085653E+01 -0.10981231118E+01 -0.36031364082E+01  0.39236701458E+01  0.00000000000E+00 0. -1.
</event>
<event>
 7    1  0.3910495E-008  0.4614232E+02  0.7816164E-02  0.1320468E+00
        -11   -1    0    0    0    0  0.00000000000E+00  0.00000000000E+00  0.45593999997E+02  0.45594000000E+02  0.51100000000E-03 0.  1.
         11   -1    0    0    0    0 -0.00000000000E+00 -0.00000000000E+00 -0.45593999997E+02  0.45594000000E+02  0.51100000000E-03 0. -1.
    9900012    2    1    2    0    0  0.48547084726E+01 -0.16430528238E+02 -0.41660329786E+02  0.46142317294E+02  0.99999957406E+01 0.  0.
        -12    1    1    2    0    0 -0.48547084726E+01  0.16430528238E+02  0.41660329786E+02  0.45045682706E+02  0.00000000000E+00 0.  1.
         11    1    3    3    0    0  0.24891952971E+01 -0.64245924911E+01 -0.18806562321E+02  0.20028935781E+02  0.51100000000E-03 0. -1.
        -11    1    3    3    0    0  0.19818453047E+01 -0.98882356425E+01 -0.23373732795E+02  0.25456557112E+02  0.51100000000E-03 0.  1.
        -12    1    3    3    0    0  0.38366787076E+00 -0.11770010458E+00  0.51996533030E+00  0.65682440148E+00  0.00000000000E+00 0.  1.
</event>
<event>
 7    1  0.3910495E-008  0.4614233E+02  0.7816164E-02  0.1320468E+00
        -11   -1    0    0    0    0  0.00000000000E+00  0.00000000000E+00  0.45593999997E+02  0.45594000000E+02  0.51100000000E-03 0. -1.
         11   -1    0    0    0    0 -0.00000000000E+00 -0.00000000000E+00 -0.45593999997E+02  0.45594000000E+02  0.51100000000E-03 0.  1.
    9900012    2    1    2    0    0 -0.22140819351E+02  0.26460625731E+02  0.28960870628E+02  0.46142327365E+02  0.10000087571E+02 0.  0.
        -12    1    1    2    0    0  0.22140819351E+02 -0.26460625731E+02 -0.28960870628E+02  0.45045672635E+02  0.00000000000E+00 0.  1.
         11    1    3    3    0    0 -0.20811793807E+02  0.25066396006E+02  0.24816140158E+02  0.40954801706E+02  0.51100000000E-03 0. -1.
        -11    1    3    3    0    0  0.55261953998E+00  0.88051370736E+00  0.78504167449E+00  0.13026831682E+01  0.51100000000E-03 0.  1.
         12    1    3    3    0    0 -0.18816450836E+01  0.51371601836E+00  0.33596887959E+01  0.38848424902E+01  0.00000000000E+00 0. -1.
</event>
<event>
 7    1  0.3910495E-008  0.4614232E+02  0.7816164E-02  0.1320468E+00
        -11   -1    0    0    0    0  0.00000000000E+00  0.00000000000E+00  0.45593999997E+02  0.45594000000E+02  0.51100000000E-03 0.  1.
         11   -1    0    0    0    0 -0.00000000000E+00 -0.00000000000E+00 -0.45593999997E+02  0.45594000000E+02  0.51100000000E-03 0. -1.
    9900012    2    1    2    0    0 -0.31666792204E+02  0.23477676589E+01 -0.31950207992E+02  0.46142317274E+02  0.99999955569E+01 0.  0.
        -12    1    1    2    0    0  0.31666792204E+02 -0.23477676589E+01  0.31950207992E+02  0.45045682726E+02  0.00000000000E+00 0.  1.
         11    1    3    3    0    0 -0.14533139453E+02  0.43631332173E+01 -0.15942817588E+02  0.22009600331E+02  0.51100000000E-03 0. -1.
        -11    1    3    3    0    0 -0.15538526369E+01 -0.19322522797E+01 -0.21682025628E+01  0.32938062335E+01  0.51100000000E-03 0.  1.
        -12    1    3    3    0    0 -0.15579800115E+02 -0.83113278702E-01 -0.13839187842E+02  0.20838910709E+02  0.00000000000E+00 0.  1.
</event>
<event>
 7    1  0.3910495E-008  0.4614232E+02  0.7816164E-02  0.1320468E+00
        -11   -1    0    0    0    0  0.00000000000E+00  0.00000000000E+00  0.45593999997E+02  0.45594000000E+02  0.51100000000E-03 0. -1.
         11   -1    0    0    0    0 -0.00000000000E+00 -0.00000000000E+00 -0.45593999997E+02  0.45594000000E+02  0.51100000000E-03 0.  1.
    9900012    2    1    2    0    0 -0.84794373725E+01 -0.36066030904E+02  0.25621358312E+02  0.46142318242E+02  0.10000004385E+02 0.  0.
        -12    1    1    2    0    0  0.84794373725E+01  0.36066030904E+02 -0.25621358312E+02  0.45045681758E+02  0.00000000000E+00 0.  1.
         11    1    3    3    0    0 -0.67835794656E+01 -0.23353415004E+02  0.14162300671E+02  0.28141956281E+02  0.51100000000E-03 0. -1.
        -11    1    3    3    0    0 -0.34578842829E+01 -0.63909937723E+01  0.52366444062E+01  0.89567968610E+01  0.51100000000E-03 0.  1.
         12    1    3    3    0    0  0.17620263760E+01 -0.63216221271E+01  0.62224132342E+01  0.90435651004E+01  0.00000000000E+00 0. -1.
</event>
<event>
 7    1  0.3910495E-008  0.4614232E+02  0.7816164E-02  0.1320468E+00
        -11   -1    0    0    0    0  0.00000000000E+00  0.00000000000E+00  0.45593999997E+02  0.45594000000E+02  0.51100000000E-03 0.  1.
         11   -1    0    0    0    0 -0.00000000000E+00 -0.00000000000E+00 -0.45593999997E+02  0.45594000000E+02  0.51100000000E-03 0. -1.
    9900012    2    1    2    0    0 -0.37686103546E+01  0.59105021357E+01 -0.44496929064E+02  0.46142321455E+02  0.10000033683E+02 0.  0.
        -12    1    1    2    0    0  0.37686103546E+01 -0.59105021357E+01  0.44496929064E+02  0.45045678545E+02  0.00000000000E+00 0.  1.
         11    1    3    3    0    0 -0.36751360294E+01  0.43158380149E+01 -0.27737924836E+02  0.28311226697E+02  0.51100000000E-03 0. -1.
        -11    1    3    3    0    0 -0.27491749366E+01  0.30077832838E-01 -0.53770447777E+01  0.60391620536E+01  0.51100000000E-03 0.  1.
         12    1    3    3    0    0  0.26557006114E+01  0.15645862879E+01 -0.11381959450E+02  0.11791932705E+02  0.00000000000E+00 0. -1.
</event>
<event>
 7    1  0.3910495E-008  0.4614232E+02  0.7816164E-02  0.1320468E+00
        -11   -1    0    0    0    0  0.00000000000E+00  0.00000000000E+00  0.45593999997E+02  0.45594000000E+02  0.51100000000E-03 0.  1.
         11   -1    0    0    0    0 -0.00000000000E+00 -0.00000000000E+00 -0.45593999997E+02  0.45594000000E+02  0.51100000000E-03 0. -1.
    9900012    2    1    2    0    0 -0.29814140198E+02  0.31562470631E+02 -0.12001709518E+02  0.46142317194E+02  0.99999948269E+01 0.  0.
        -12    1    1    2    0    0  0.29814140198E+02 -0.31562470631E+02  0.12001709518E+02  0.45045682806E+02  0.00000000000E+00 0.  1.
         11    1    3    3    0    0 -0.49127843466E+01  0.24290559885E+01 -0.13367010086E+00  0.54821192060E+01  0.51100000000E-03 0. -1.
        -11    1    3    3    0    0 -0.22444897286E+01  0.37049172980E+00 -0.69563749568E+00  0.23788463696E+01  0.51100000000E-03 0.  1.
        -12    1    3    3    0    0 -0.22656866123E+02  0.28762922913E+02 -0.11172401921E+02  0.38281351618E+02  0.00000000000E+00 0.  1.
</event>
<event>
 7    1  0.3910495E-008  0.4614232E+02  0.7816164E-02  0.1320468E+00
        -11   -1    0    0    0    0  0.00000000000E+00  0.00000000000E+00  0.45593999997E+02  0.45594000000E+02  0.51100000000E-03 0.  1.
         11   -1    0    0    0    0 -0.00000000000E+00 -0.00000000000E+00 -0.45593999997E+02  0.45594000000E+02  0.51100000000E-03 0. -1.
    9900012    2    1    2    0    0 -0.37140916324E+02  0.13450674163E+02 -0.21650524772E+02  0.46142317368E+02  0.99999964183E+01 0.  0.
        -12    1    1    2    0    0  0.37140916324E+02 -0.13450674163E+02  0.21650524772E+02  0.45045682632E+02  0.00000000000E+00 0.  1.
         11    1    3    3    0    0 -0.27020107507E+02  0.13490064728E+02 -0.13753144945E+02  0.33184590583E+02  0.51100000000E-03 0. -1.
        -11    1    3    3    0    0 -0.86880213025E+01 -0.28958225710E-01 -0.59098180818E+01  0.10507545039E+02  0.51100000000E-03 0.  1.
         12    1    3    3    0    0 -0.14327875153E+01 -0.10432338950E-01 -0.19875617450E+01  0.24501817459E+01  0.00000000000E+00 0. -1.
</event>
<event>
 7    1  0.3910495E-008  0.4614232E+02  0.7816164E-02  0.1320468E+00
        -11   -1    0    0    0    0  0.00000000000E+00  0.00000000000E+00  0.45593999997E+02  0.45594000000E+02  0.51100000000E-03 0. -1.
         11   -1    0    0    0    0 -0.00000000000E+00 -0.00000000000E+00 -0.45593999997E+02  0.45594000000E+02  0.51100000000E-03 0.  1.
    9900012    2    1    2    0    0  0.40674734993E+02 -0.18040228217E+02  0.70163789478E+01  0.46142317916E+02  0.10000001414E+02 0.  0.
        -12    1    1    2    0    0 -0.40674734993E+02  0.18040228217E+02 -0.70163789478E+01  0.45045682084E+02  0.00000000000E+00 0.  1.
         11    1    3    3    0    0  0.41513317498E+01 -0.73777462427E+00 -0.14142221537E+01  0.44472341128E+01  0.51100000000E-03 0. -1.
        -11    1    3    3    0    0  0.51576053512E+01 -0.42506878153E+00  0.45683826469E+00  0.51952168279E+01  0.51100000000E-03 0.  1.
         12    1    3    3    0    0  0.31365797892E+02 -0.16877384811E+02  0.79737628369E+01  0.36499866976E+02  0.00000000000E+00 0. -1.
</event>
<event>
 7    1  0.3910495E-008  0.4614232E+02  0.7816164E-02  0.1320468E+00
        -11   -1    0    0    0    0  0.00000000000E+00  0.00000000000E+00  0.45593999997E+02  0.45594000000E+02  0.51100000000E-03 0.  1.
         11   -1    0    0    0    0 -0.00000000000E+00 -0.00000000000E+00 -0.45593999997E+02  0.45594000000E+02  0.51100000000E-03 0. -1.
    9900012    2    1    2    0    0 -0.13952907389E+02 -0.34184754618E+01 -0.42693604546E+02  0.46142317985E+02  0.10000002039E+02 0.  0.
        -12    1    1    2    0    0  0.13952907389E+02  0.34184754618E+01  0.42693604546E+02  0.45045682015E+02  0.00000000000E+00 0.  1.
         11    1    3    3    0    0 -0.24039271923E+01  0.12666836984E+01 -0.35306665234E+01  0.44552171550E+01  0.51100000000E-03 0. -1.
        -11    1    3    3    0    0 -0.13938661981E+00  0.12043441831E+01 -0.17243577867E+01  0.21079097653E+01  0.51100000000E-03 0.  1.
         12    1    3    3    0    0 -0.11409593577E+02 -0.58895033433E+01 -0.37438580236E+02  0.39579191064E+02  0.00000000000E+00 0. -1.
</event>
<event>
 7    1  0.3910495E-008  0.4614232E+02  0.7816164E-02  0.1320468E+00
        -11   -1    0    0    0    0  0.00000000000E+00  0.00000000000E+00  0.45593999997E+02  0.45594000000E+02  0.51100000000E-03 0.  1.
         11   -1    0    0    0    0 -0.00000000000E+00 -0.00000000000E+00 -0.45593999997E+02  0.45594000000E+02  0.51100000000E-03 0. -1.
    9900012    2    1    2    0    0  0.42891591423E+02  0.91373118721E+01 -0.10292442949E+02  0.46142318022E+02  0.10000002375E+02 0.  0.
        -12    1    1    2    0    0 -0.42891591423E+02 -0.91373118721E+01  0.10292442949E+02  0.45045681978E+02  0.00000000000E+00 0.  1.
         11    1    3    3    0    0  0.20515237037E+02 -0.56065164228E+00 -0.35709501080E+01  0.20831249743E+02  0.51100000000E-03 0. -1.
        -11    1    3    3    0    0  0.98217656044E+01  0.47102737479E+01 -0.29286893739E+01  0.11279671098E+02  0.51100000000E-03 0.  1.
         12    1    3    3    0    0  0.12554588782E+02  0.49876897665E+01 -0.37928034675E+01  0.14031397180E+02  0.00000000000E+00 0. -1.
</event>
<event>
 7    1  0.3910495E-008  0.4614232E+02  0.7816164E-02  0.1320468E+00
        -11   -1    0    0    0    0  0.00000000000E+00  0.00000000000E+00  0.45593999997E+02  0.45594000000E+02  0.51100000000E-03 0. -1.
         11   -1    0    0    0    0 -0.00000000000E+00 -0.00000000000E+00 -0.45593999997E+02  0.45594000000E+02  0.51100000000E-03 0.  1.
    9900012    2    1    2    0    0  0.15174074257E+02 -0.17156347146E+02  0.38788151269E+02  0.46142318122E+02  0.10000003291E+02 0.  0.
        -12    1    1    2    0    0 -0.15174074257E+02  0.17156347146E+02 -0.38788151269E+02  0.45045681878E+02  0.00000000000E+00 0.  1.
         11    1    3    3    0    0  0.32321110144E+01 -0.25925522729E+01  0.42730421452E+01  0.59520381663E+01  0.51100000000E-03 0. -1.
        -11    1    3    3    0    0  0.85487494178E+01 -0.10193611254E+02  0.30731183846E+02  0.33487258590E+02  0.51100000000E-03 0.  1.
        -12    1    3    3    0    0  0.33932138247E+01 -0.43701836188E+01  0.37839252783E+01  0.67030213661E+01  0.00000000000E+00 0.  1.
</event>
<event>
 7    1  0.3910495E-008  0.4614232E+02  0.7816164E-02  0.1320468E+00
        -11   -1    0    0    0    0  0.00000000000E+00  0.00000000000E+00  0.45593999997E+02  0.45594000000E+02  0.51100000000E-03 0. -1.
         11   -1    0    0    0    0 -0.00000000000E+00 -0.00000000000E+00 -0.45593999997E+02  0.45594000000E+02  0.51100000000E-03 0.  1.
    9900012    2    1    2    0    0 -0.13412429453E+02 -0.42985897653E+02  0.11969824908E+01  0.46142318432E+02  0.10000006115E+02 0.  0.
        -12    1    1    2    0    0  0.13412429453E+02  0.42985897653E+02 -0.11969824908E+01  0.45045681568E+02  0.00000000000E+00 0.  1.
         11    1    3    3    0    0 -0.15194712460E+01 -0.35772845055E+01 -0.89070612490E+00  0.39873694290E+01  0.51100000000E-03 0. -1.
        -11    1    3    3    0    0 -0.49473394944E+01 -0.26479917374E+02 -0.17193955389E+01  0.26992934510E+02  0.51100000000E-03 0.  1.
        -12    1    3    3    0    0 -0.69456187121E+01 -0.12928695774E+02  0.38070841546E+01  0.15162014493E+02  0.00000000000E+00 0.  1.
</event>
<event>
 7    1  0.3910495E-008  0.4614232E+02  0.7816164E-02  0.1320468E+00
        -11   -1    0    0    0    0  0.00000000000E+00  0.00000000000E+00  0.45593999997E+02  0.45594000000E+02  0.51100000000E-03 0. -1.
         11   -1    0    0    0    0 -0.00000000000E+00 -0.00000000000E+00 -0.45593999997E+02  0.45594000000E+02  0.51100000000E-03 0.  1.
    9900012    2    1    2    0    0 -0.19993166740E+02  0.39389337878E+02  0.88242200310E+01  0.46142317477E+02  0.99999974115E+01 0.  0.
        -12    1    1    2    0    0  0.19993166740E+02 -0.39389337878E+02 -0.88242200310E+01  0.45045682523E+02  0.00000000000E+00 0.  1.
         11    1    3    3    0    0 -0.73748009106E+00  0.16831511865E+01  0.12949660030E+01  0.22480685068E+01  0.51100000000E-03 0. -1.
        -11    1    3    3    0    0 -0.91036418606E+01  0.14625278348E+02  0.72159149728E+01  0.18677379127E+02  0.51100000000E-03 0.  1.
        -12    1    3    3    0    0 -0.10152044789E+02  0.23080908344E+02  0.31333905527E+00  0.25216869844E+02  0.00000000000E+00 0.  1.
</event>
<event>
 7    1  0.3910495E-008  0.4614231E+02  0.7816164E-02  0.1320468E+00
        -11   -1    0    0    0    0  0.00000000000E+00  0.00000000000E+00  0.45593999997E+02  0.45594000000E+02  0.51100000000E-03 0.  1.
         11   -1    0    0    0    0 -0.00000000000E+00 -0.00000000000E+00 -0.45593999997E+02  0.45594000000E+02  0.51100000000E-03 0. -1.
    9900012    2    1    2    0    0  0.15613455365E+02  0.29266155253E+02 -0.30476645399E+02  0.46142314896E+02  0.99999738692E+01 0.  0.
        -12    1    1    2    0    0 -0.15613455365E+02 -0.29266155253E+02  0.30476645399E+02  0.45045685104E+02  0.00000000000E+00 0.  1.
         11    1    3    3    0    0  0.84051092941E+01  0.94733172771E+01 -0.13807002213E+02  0.18735605484E+02  0.51100000000E-03 0. -1.
        -11    1    3    3    0    0  0.76982634425E+01  0.17465483222E+02 -0.16077339502E+02  0.24955704958E+02  0.51100000000E-03 0.  1.
        -12    1    3    3    0    0 -0.48991737118E+00  0.23273547537E+01 -0.59230368500E+00  0.24510044544E+01  0.00000000000E+00 0.  1.
</event>
<event>
 7    1  0.3910495E-008  0.4614232E+02  0.7816164E-02  0.1320468E+00
        -11   -1    0    0    0    0  0.00000000000E+00  0.00000000000E+00  0.45593999997E+02  0.45594000000E+02  0.51100000000E-03 0.  1.
         11   -1    0    0    0    0 -0.00000000000E+00 -0.00000000000E+00 -0.45593999997E+02  0.45594000000E+02  0.51100000000E-03 0. -1.
    9900012    2    1    2    0    0 -0.31158003439E+02 -0.17010177514E+02 -0.27729878366E+02  0.46142317948E+02  0.10000001703E+02 0.  0.
        -12    1    1    2    0    0  0.31158003439E+02  0.17010177514E+02  0.27729878366E+02  0.45045682052E+02  0.00000000000E+00 0.  1.
         11    1    3    3    0    0 -0.51541431619E+01 -0.72103781551E-02 -0.19599259439E+01  0.55142137870E+01  0.51100000000E-03 0.  1.
        -11    1    3    3    0    0 -0.84901056857E+01 -0.79575503371E+01 -0.10805475165E+02  0.15879634622E+02  0.51100000000E-03 0. -1.
        -12    1    3    3    0    0 -0.17513754591E+02 -0.90454167987E+01 -0.14964477257E+02  0.24748469539E+02  0.00000000000E+00 0.  1.
</event>
<event>
 7    1  0.3910495E-008  0.4614232E+02  0.7816164E-02  0.1320468E+00
        -11   -1    0    0    0    0  0.00000000000E+00  0.00000000000E+00  0.45593999997E+02  0.45594000000E+02  0.51100000000E-03 0.  1.
         11   -1    0    0    0    0 -0.00000000000E+00 -0.00000000000E+00 -0.45593999997E+02  0.45594000000E+02  0.51100000000E-03 0. -1.
    9900012    2    1    2    0    0 -0.41385169646E+02 -0.16865017079E+02 -0.56526252313E+01  0.46142320521E+02  0.10000025165E+02 0.  0.
        -12    1    1    2    0    0  0.41385169646E+02  0.16865017079E+02  0.56526252313E+01  0.45045679479E+02  0.00000000000E+00 0.  1.
         11    1    3    3    0    0 -0.28985459832E+01  0.11229474928E+00  0.34500270953E+00  0.29211651884E+01  0.51100000000E-03 0. -1.
        -11    1    3    3    0    0 -0.52444454863E+01 -0.27037410502E+01  0.18872220969E+01  0.61948391125E+01  0.51100000000E-03 0.  1.
         12    1    3    3    0    0 -0.33242178177E+02 -0.14273570778E+02 -0.78848500378E+01  0.37026316220E+02  0.00000000000E+00 0. -1.
</event>
<event>
 7    1  0.3910495E-008  0.4614232E+02  0.7816164E-02  0.1320468E+00
        -11   -1    0    0    0    0  0.00000000000E+00  0.00000000000E+00  0.45593999997E+02  0.45594000000E+02  0.51100000000E-03 0.  1.
         11   -1    0    0    0    0 -0.00000000000E+00 -0.00000000000E+00 -0.45593999997E+02  0.45594000000E+02  0.51100000000E-03 0. -1.
    9900012    2    1    2    0    0  0.29671635494E+02 -0.61179291529E+01 -0.33335843742E+02  0.46142317765E+02  0.10000000034E+02 0.  0.
        -12    1    1    2    0    0 -0.29671635494E+02  0.61179291529E+01  0.33335843742E+02  0.45045682235E+02  0.00000000000E+00 0.  1.
         11    1    3    3    0    0  0.11222980218E+01  0.24611297042E+00  0.25889121917E+00  0.11777730547E+01  0.51100000000E-03 0. -1.
        -11    1    3    3    0    0  0.13147060211E+02 -0.20787822375E+01 -0.10899509857E+02  0.17203657842E+02  0.51100000000E-03 0.  1.
         12    1    3    3    0    0  0.15402277261E+02 -0.42852598858E+01 -0.22695225105E+02  0.27760886868E+02  0.00000000000E+00 0. -1.
</event>
<event>
 7    1  0.3910495E-008  0.4614232E+02  0.7816164E-02  0.1320468E+00
        -11   -1    0    0    0    0  0.00000000000E+00  0.00000000000E+00  0.45593999997E+02  0.45594000000E+02  0.51100000000E-03 0.  1.
         11   -1    0    0    0    0 -0.00000000000E+00 -0.00000000000E+00 -0.45593999997E+02  0.45594000000E+02  0.51100000000E-03 0. -1.
    9900012    2    1    2    0    0 -0.40812117345E+02  0.17944934388E+02 -0.64392577906E+01  0.46142316152E+02  0.99999853289E+01 0.  0.
        -12    1    1    2    0    0  0.40812117345E+02 -0.17944934388E+02  0.64392577906E+01  0.45045683848E+02  0.00000000000E+00 0.  1.
         11    1    3    3    0    0 -0.34513632692E+02  0.11903346614E+02 -0.63043593802E+01  0.37048960170E+02  0.51100000000E-03 0. -1.
        -11    1    3    3    0    0 -0.29533317660E+01  0.25859854738E+01  0.11950456621E+01  0.41033673716E+01  0.51100000000E-03 0.  1.
         12    1    3    3    0    0 -0.33451528871E+01  0.34556023003E+01 -0.13299440726E+01  0.49899886104E+01  0.00000000000E+00 0. -1.
</event>
<event>
 7    1  0.3910495E-008  0.4614232E+02  0.7816164E-02  0.1320468E+00
        -11   -1    0    0    0    0  0.00000000000E+00  0.00000000000E+00  0.45593999997E+02  0.45594000000E+02  0.51100000000E-03 0.  1.
         11   -1    0    0    0    0 -0.00000000000E+00 -0.00000000000E+00 -0.45593999997E+02  0.45594000000E+02  0.51100000000E-03 0. -1.
    9900012    2    1    2    0    0 -0.23022487653E+02  0.38285177708E+02 -0.57726578653E+01  0.46142319312E+02  0.10000014141E+02 0.  0.
        -12    1    1    2    0    0  0.23022487653E+02 -0.38285177708E+02  0.57726578653E+01  0.45045680688E+02  0.00000000000E+00 0.  1.
         11    1    3    3    0    0 -0.71764270309E+01  0.14721501752E+02 -0.39522409684E+01  0.16847668316E+02  0.51100000000E-03 0. -1.
        -11    1    3    3    0    0  0.20509322727E+00  0.18717190047E-01 -0.75118309900E+00  0.77890299423E+00  0.51100000000E-03 0.  1.
         12    1    3    3    0    0 -0.16051153849E+02  0.23544958766E+02 -0.10692337980E+01  0.28515748002E+02  0.00000000000E+00 0. -1.
</event>
<event>
 7    1  0.3910495E-008  0.4614232E+02  0.7816164E-02  0.1320468E+00
        -11   -1    0    0    0    0  0.00000000000E+00  0.00000000000E+00  0.45593999997E+02  0.45594000000E+02  0.51100000000E-03 0.  1.
         11   -1    0    0    0    0 -0.00000000000E+00 -0.00000000000E+00 -0.45593999997E+02  0.45594000000E+02  0.51100000000E-03 0. -1.
    9900012    2    1    2    0    0  0.31713356837E+02 -0.79227943811E+01 -0.30993642980E+02  0.46142316768E+02  0.99999909421E+01 0.  0.
        -12    1    1    2    0    0 -0.31713356837E+02  0.79227943811E+01  0.30993642980E+02  0.45045683232E+02  0.00000000000E+00 0.  1.
         11    1    3    3    0    0  0.10349948644E+02 -0.38356924670E+01 -0.62534388184E+01  0.12686192138E+02  0.51100000000E-03 0. -1.
        -11    1    3    3    0    0  0.65680977085E+01 -0.16336532903E+01 -0.40006443524E+01  0.78621807456E+01  0.51100000000E-03 0.  1.
        -12    1    3    3    0    0  0.14795310484E+02 -0.24534486239E+01 -0.20739559809E+02  0.25593943885E+02  0.00000000000E+00 0.  1.
</event>
<event>
 7    1  0.3910495E-008  0.4614232E+02  0.7816164E-02  0.1320468E+00
        -11   -1    0    0    0    0  0.00000000000E+00  0.00000000000E+00  0.45593999997E+02  0.45594000000E+02  0.51100000000E-03 0.  1.
         11   -1    0    0    0    0 -0.00000000000E+00 -0.00000000000E+00 -0.45593999997E+02  0.45594000000E+02  0.51100000000E-03 0. -1.
    9900012    2    1    2    0    0 -0.74589963069E+00  0.44238035261E+02  0.84589159793E+01  0.46142318857E+02  0.10000009997E+02 0.  0.
        -12    1    1    2    0    0  0.74589963069E+00 -0.44238035261E+02 -0.84589159793E+01  0.45045681143E+02  0.00000000000E+00 0.  1.
         11    1    3    3    0    0  0.20131465528E+01  0.12183015576E+02  0.40347184057E+01  0.12990672825E+02  0.51100000000E-03 0. -1.
        -11    1    3    3    0    0  0.14318661890E+01  0.20603229309E+02  0.31265159333E+01  0.20888235945E+02  0.51100000000E-03 0.  1.
        -12    1    3    3    0    0 -0.41909123725E+01  0.11451790377E+02  0.12976816403E+01  0.12263410088E+02  0.00000000000E+00 0.  1.
</event>
<event>
 7    1  0.3910495E-008  0.4614232E+02  0.7816164E-02  0.1320468E+00
        -11   -1    0    0    0    0  0.00000000000E+00  0.00000000000E+00  0.45593999997E+02  0.45594000000E+02  0.51100000000E-03 0. -1.
         11   -1    0    0    0    0 -0.00000000000E+00 -0.00000000000E+00 -0.45593999997E+02  0.45594000000E+02  0.51100000000E-03 0.  1.
    9900012    2    1    2    0    0  0.42869180674E+02  0.10916381301E+02 -0.84958485421E+01  0.46142317912E+02  0.10000001373E+02 0.  0.
        -12    1    1    2    0    0 -0.42869180674E+02 -0.10916381301E+02  0.84958485421E+01  0.45045682088E+02  0.00000000000E+00 0.  1.
         11    1    3    3    0    0  0.27809098547E+02  0.96214145726E+01 -0.80740867215E+01  0.30514069821E+02  0.51100000000E-03 0. -1.
        -11    1    3    3    0    0  0.68367062686E+01  0.24919969858E+01 -0.72449457147E+00  0.73126940470E+01  0.51100000000E-03 0.  1.
        -12    1    3    3    0    0  0.82233758582E+01 -0.11970302571E+01  0.30273275092E+00  0.83155540440E+01  0.00000000000E+00 0.  1.
</event>
<event>
 7    1  0.3910495E-008  0.4614232E+02  0.7816164E-02  0.1320468E+00
        -11   -1    0    0    0    0  0.00000000000E+00  0.00000000000E+00  0.45593999997E+02  0.45594000000E+02  0.51100000000E-03 0.  1.
         11   -1    0    0    0    0 -0.00000000000E+00 -0.00000000000E+00 -0.45593999997E+02  0.45594000000E+02  0.51100000000E-03 0. -1.
    9900012    2    1    2    0    0 -0.29959380771E+02  0.89814282247E+01 -0.32417323010E+02  0.46142318961E+02  0.10000010940E+02 0.  0.
        -12    1    1    2    0    0  0.29959380771E+02 -0.89814282247E+01  0.32417323010E+02  0.45045681039E+02  0.00000000000E+00 0.  1.
         11    1    3    3    0    0 -0.31803627067E+01 -0.11343126723E+01 -0.26016708562E+01  0.42626357679E+01  0.51100000000E-03 0. -1.
        -11    1    3    3    0    0  0.33446987548E+00 -0.21069395745E+00 -0.44335828505E+00  0.59399399942E+00  0.51100000000E-03 0.  1.
        -12    1    3    3    0    0 -0.27113487940E+02  0.10326434854E+02 -0.29372293869E+02  0.41285689194E+02  0.00000000000E+00 0.  1.
</event>
<event>
 7    1  0.3910495E-008  0.4614232E+02  0.7816164E-02  0.1320468E+00
        -11   -1    0    0    0    0  0.00000000000E+00  0.00000000000E+00  0.45593999997E+02  0.45594000000E+02  0.51100000000E-03 0.  1.
         11   -1    0    0    0    0 -0.00000000000E+00 -0.00000000000E+00 -0.45593999997E+02  0.45594000000E+02  0.51100000000E-03 0. -1.
    9900012    2    1    2    0    0  0.26342096667E+02  0.49417543232E+01 -0.36204782898E+02  0.46142319882E+02  0.10000019341E+02 0.  0.
        -12    1    1    2    0    0 -0.26342096667E+02 -0.49417543232E+01  0.36204782898E+02  0.45045680118E+02  0.00000000000E+00 0.  1.
         11    1    3    3    0    0  0.72931929169E+01  0.12318426084E+01 -0.17080417113E+02  0.18613133754E+02  0.51100000000E-03 0. -1.
        -11    1    3    3    0    0  0.21255207821E+00  0.60623717238E+00 -0.26728779553E+00  0.69580523272E+00  0.51100000000E-03 0.  1.
         12    1    3    3    0    0  0.18836351672E+02  0.31036745425E+01 -0.18857077989E+02  0.26833380895E+02  0.00000000000E+00 0. -1.
</event>
<event>
 7    1  0.3910495E-008  0.4614232E+02  0.7816164E-02  0.1320468E+00
        -11   -1    0    0    0    0  0.00000000000E+00  0.00000000000E+00  0.45593999997E+02  0.45594000000E+02  0.51100000000E-03 0.  1.
         11   -1    0    0    0    0 -0.00000000000E+00 -0.00000000000E+00 -0.45593999997E+02  0.45594000000E+02  0.51100000000E-03 0. -1.
    9900012    2    1    2    0    0  0.23967137072E+02 -0.19851384327E+02 -0.32567045216E+02  0.46142317042E+02  0.99999934385E+01 0.  0.
        -12    1    1    2    0    0 -0.23967137072E+02  0.19851384327E+02  0.32567045216E+02  0.45045682958E+02  0.00000000000E+00 0.  1.
         11    1    3    3    0    0  0.10371304185E+02 -0.99085847583E+01 -0.10264652195E+02  0.17638228010E+02  0.51100000000E-03 0. -1.
        -11    1    3    3    0    0  0.46570730733E+01 -0.61124557577E+01 -0.71307897118E+01  0.10483253654E+02  0.51100000000E-03 0.  1.
         12    1    3    3    0    0  0.89387598135E+01 -0.38303438107E+01 -0.15171603309E+02  0.18020835377E+02  0.00000000000E+00 0. -1.
</event>
<event>
 7    1  0.3910495E-008  0.4614232E+02  0.7816164E-02  0.1320468E+00
        -11   -1    0    0    0    0  0.00000000000E+00  0.00000000000E+00  0.45593999997E+02  0.45594000000E+02  0.51100000000E-03 0.  1.
         11   -1    0    0    0    0 -0.00000000000E+00 -0.00000000000E+00 -0.45593999997E+02  0.45594000000E+02  0.51100000000E-03 0. -1.
    9900012    2    1    2    0    0 -0.14996089100E+02 -0.24183667804E+02 -0.34919635722E+02  0.46142318346E+02  0.10000005331E+02 0.  0.
        -12    1    1    2    0    0  0.14996089100E+02  0.24183667804E+02  0.34919635722E+02  0.45045681654E+02  0.00000000000E+00 0.  1.
         11    1    3    3    0    0 -0.13104795662E+02 -0.15365133214E+02 -0.21448332881E+02  0.29459361358E+02  0.51100000000E-03 0. -1.
        -11    1    3    3    0    0 -0.13133019353E+01 -0.86591733352E+01 -0.13489291635E+02  0.16083128859E+02  0.51100000000E-03 0.  1.
        -12    1    3    3    0    0 -0.57799150225E+00 -0.15936125512E+00  0.17988794155E-01  0.59982812790E+00  0.00000000000E+00 0.  1.
</event>
<event>
 7    1  0.3910495E-008  0.4614232E+02  0.7816164E-02  0.1320468E+00
        -11   -1    0    0    0    0  0.00000000000E+00  0.00000000000E+00  0.45593999997E+02  0.45594000000E+02  0.51100000000E-03 0.  1.
         11   -1    0    0    0    0 -0.00000000000E+00 -0.00000000000E+00 -0.45593999997E+02  0.45594000000E+02  0.51100000000E-03 0. -1.
    9900012    2    1    2    0    0  0.34776445682E+02 -0.18927315090E+02 -0.21481829753E+02  0.46142318294E+02  0.10000004860E+02 0.  0.
        -12    1    1    2    0    0 -0.34776445682E+02  0.18927315090E+02  0.21481829753E+02  0.45045681706E+02  0.00000000000E+00 0.  1.
         11    1    3    3    0    0  0.29071808827E+01 -0.16126354526E+01 -0.30129613883E+01  0.44866725283E+01  0.51100000000E-03 0. -1.
        -11    1    3    3    0    0  0.35288313004E+01 -0.56447578327E+01 -0.26508255576E+01  0.71653902709E+01  0.51100000000E-03 0.  1.
         12    1    3    3    0    0  0.28340433499E+02 -0.11669921805E+02 -0.15818042807E+02  0.34490255495E+02  0.00000000000E+00 0. -1.
</event>
<event>
 7    1  0.3910495E-008  0.4614232E+02  0.7816164E-02  0.1320468E+00
        -11   -1    0    0    0    0  0.00000000000E+00  0.00000000000E+00  0.45593999997E+02  0.45594000000E+02  0.51100000000E-03 0.  1.
         11   -1    0    0    0    0 -0.00000000000E+00 -0.00000000000E+00 -0.45593999997E+02  0.45594000000E+02  0.51100000000E-03 0. -1.
    9900012    2    1    2    0    0 -0.21673945979E+02 -0.85940467964E+00 -0.39479297510E+02  0.46142318269E+02  0.10000004635E+02 0.  0.
        -12    1    1    2    0    0  0.21673945979E+02  0.85940467964E+00  0.39479297510E+02  0.45045681731E+02  0.00000000000E+00 0.  1.
         11    1    3    3    0    0 -0.96613149094E+01  0.30520836889E+01 -0.18349426494E+02  0.20960860515E+02  0.51100000000E-03 0.  1.
        -11    1    3    3    0    0 -0.13651581852E+01  0.40188823937E+00 -0.39507347636E+00  0.14769070182E+01  0.51100000000E-03 0. -1.
        -12    1    3    3    0    0 -0.10647472884E+02 -0.43133766079E+01 -0.20734797540E+02  0.23704550736E+02  0.00000000000E+00 0.  1.
</event>
<event>
 7    1  0.3910495E-008  0.4614232E+02  0.7816164E-02  0.1320468E+00
        -11   -1    0    0    0    0  0.00000000000E+00  0.00000000000E+00  0.45593999997E+02  0.45594000000E+02  0.51100000000E-03 0.  1.
         11   -1    0    0    0    0 -0.00000000000E+00 -0.00000000000E+00 -0.45593999997E+02  0.45594000000E+02  0.51100000000E-03 0. -1.
    9900012    2    1    2    0    0  0.29550514674E+02 -0.11126193570E+02 -0.32126133332E+02  0.46142317147E+02  0.99999943982E+01 0.  0.
        -12    1    1    2    0    0 -0.29550514674E+02  0.11126193570E+02  0.32126133332E+02  0.45045682853E+02  0.00000000000E+00 0.  1.
         11    1    3    3    0    0  0.34121461312E+01 -0.29902618849E+01 -0.46285782796E+01  0.64813690307E+01  0.51100000000E-03 0. -1.
        -11    1    3    3    0    0  0.55617469933E+01  0.71793230970E+00 -0.26368345760E+01  0.61968825438E+01  0.51100000000E-03 0.  1.
        -12    1    3    3    0    0  0.20576621549E+02 -0.88538639946E+01 -0.24860720477E+02  0.33464065572E+02  0.00000000000E+00 0.  1.
</event>
<event>
 7    1  0.3910495E-008  0.4614232E+02  0.7816164E-02  0.1320468E+00
        -11   -1    0    0    0    0  0.00000000000E+00  0.00000000000E+00  0.45593999997E+02  0.45594000000E+02  0.51100000000E-03 0. -1.
         11   -1    0    0    0    0 -0.00000000000E+00 -0.00000000000E+00 -0.45593999997E+02  0.45594000000E+02  0.51100000000E-03 0.  1.
    9900012    2    1    2    0    0  0.40947551734E+02  0.14542498093E+02 -0.11871268958E+02  0.46142320180E+02  0.10000022054E+02 0.  0.
        -12    1    1    2    0    0 -0.40947551734E+02 -0.14542498093E+02  0.11871268958E+02  0.45045679820E+02  0.00000000000E+00 0.  1.
         11    1    3    3    0    0  0.24818344506E+02  0.80693245530E+01 -0.92933660579E+01  0.27702542766E+02  0.51100000000E-03 0. -1.
        -11    1    3    3    0    0  0.38704381246E+01  0.39063049029E+01 -0.21603840445E+01  0.59081950503E+01  0.51100000000E-03 0.  1.
         12    1    3    3    0    0  0.12258769103E+02  0.25668686374E+01 -0.41751885577E+00  0.12531582363E+02  0.00000000000E+00 0. -1.
</event>
<event>
 7    1  0.3910495E-008  0.4614232E+02  0.7816164E-02  0.1320468E+00
        -11   -1    0    0    0    0  0.00000000000E+00  0.00000000000E+00  0.45593999997E+02  0.45594000000E+02  0.51100000000E-03 0. -1.
         11   -1    0    0    0    0 -0.00000000000E+00 -0.00000000000E+00 -0.45593999997E+02  0.45594000000E+02  0.51100000000E-03 0.  1.
    9900012    2    1    2    0    0 -0.21606187227E+02 -0.32628664274E+02 -0.22308217669E+02  0.46142316141E+02  0.99999852235E+01 0.  0.
        -12    1    1    2    0    0  0.21606187227E+02  0.32628664274E+02  0.22308217669E+02  0.45045683859E+02  0.00000000000E+00 0.  1.
         11    1    3    3    0    0 -0.88016348021E+01 -0.92935123054E+01 -0.53466155289E+01  0.13871713810E+02  0.51100000000E-03 0. -1.
        -11    1    3    3    0    0 -0.14911819442E+01 -0.27204864625E+01 -0.50096331607E+01  0.58924608484E+01  0.51100000000E-03 0.  1.
        -12    1    3    3    0    0 -0.11313370480E+02 -0.20614665506E+02 -0.11951968979E+02  0.26378141482E+02  0.00000000000E+00 0.  1.
</event>
<event>
 7    1  0.3910495E-008  0.4614232E+02  0.7816164E-02  0.1320468E+00
        -11   -1    0    0    0    0  0.00000000000E+00  0.00000000000E+00  0.45593999997E+02  0.45594000000E+02  0.51100000000E-03 0.  1.
         11   -1    0    0    0    0 -0.00000000000E+00 -0.00000000000E+00 -0.45593999997E+02  0.45594000000E+02  0.51100000000E-03 0. -1.
    9900012    2    1    2    0    0 -0.17206780528E+02  0.30103662780E+02  0.28754298573E+02  0.46142317684E+02  0.99999992982E+01 0.  0.
        -12    1    1    2    0    0  0.17206780528E+02 -0.30103662780E+02 -0.28754298573E+02  0.45045682316E+02  0.00000000000E+00 0.  1.
         11    1    3    3    0    0 -0.57502921972E+01  0.93225399902E+01  0.54743948150E+01  0.12245187262E+02  0.51100000000E-03 0. -1.
        -11    1    3    3    0    0 -0.11251621952E+02  0.20452922699E+02  0.20429913950E+02  0.31020999786E+02  0.51100000000E-03 0.  1.
        -12    1    3    3    0    0 -0.20486637843E+00  0.32820009091E+00  0.28499898076E+01  0.28761306362E+01  0.00000000000E+00 0.  1.
</event>
<event>
 7    1  0.3910495E-008  0.4614232E+02  0.7816164E-02  0.1320468E+00
        -11   -1    0    0    0    0  0.00000000000E+00  0.00000000000E+00  0.45593999997E+02  0.45594000000E+02  0.51100000000E-03 0. -1.
         11   -1    0    0    0    0 -0.00000000000E+00 -0.00000000000E+00 -0.45593999997E+02  0.45594000000E+02  0.51100000000E-03 0.  1.
    9900012    2    1    2    0    0  0.97238836550E+01  0.20497180710E+02  0.38915615982E+02  0.46142317658E+02  0.99999990579E+01 0.  0.
        -12    1    1    2    0    0 -0.97238836550E+01 -0.20497180710E+02 -0.38915615982E+02  0.45045682342E+02  0.00000000000E+00 0.  1.
         11    1    3    3    0    0  0.54500015665E+01  0.10979525952E+02  0.18783168493E+02  0.22428997439E+02  0.51100000000E-03 0. -1.
        -11    1    3    3    0    0 -0.19358772938E+01  0.20980226737E+01  0.46393915503E+01  0.54473180790E+01  0.51100000000E-03 0.  1.
         12    1    3    3    0    0  0.62097593823E+01  0.74196320840E+01  0.15493055939E+02  0.18266002140E+02  0.00000000000E+00 0. -1.
</event>
<event>
 7    1  0.3910495E-008  0.4614232E+02  0.7816164E-02  0.1320468E+00
        -11   -1    0    0    0    0  0.00000000000E+00  0.00000000000E+00  0.45593999997E+02  0.45594000000E+02  0.51100000000E-03 0.  1.
         11   -1    0    0    0    0 -0.00000000000E+00 -0.00000000000E+00 -0.45593999997E+02  0.45594000000E+02  0.51100000000E-03 0. -1.
    9900012    2    1    2    0    0 -0.14307643367E+02 -0.36631615116E+02 -0.21966551762E+02  0.46142320062E+02  0.10000020982E+02 0.  0.
        -12    1    1    2    0    0  0.14307643367E+02  0.36631615116E+02  0.21966551762E+02  0.45045679938E+02  0.00000000000E+00 0.  1.
         11    1    3    3    0    0 -0.50794290272E+01 -0.13217794000E+02 -0.43213878406E+01  0.14804900222E+02  0.51100000000E-03 0. -1.
        -11    1    3    3    0    0 -0.90058478458E+00 -0.46976809762E+01 -0.87357046816E+00  0.48623435844E+01  0.51100000000E-03 0.  1.
        -12    1    3    3    0    0 -0.83276295549E+01 -0.18716140140E+02 -0.16771593454E+02  0.26475076255E+02  0.00000000000E+00 0.  1.
</event>
<event>
 7    1  0.3910495E-008  0.4614230E+02  0.7816164E-02  0.1320468E+00
        -11   -1    0    0    0    0  0.00000000000E+00  0.00000000000E+00  0.45593999997E+02  0.45594000000E+02  0.51100000000E-03 0.  1.
         11   -1    0    0    0    0 -0.00000000000E+00 -0.00000000000E+00 -0.45593999997E+02  0.45594000000E+02  0.51100000000E-03 0. -1.
    9900012    2    1    2    0    0  0.24742170399E+02  0.13853168023E+02 -0.35000420636E+02  0.46142304257E+02  0.99998768546E+01 0.  0.
        -12    1    1    2    0    0 -0.24742170399E+02 -0.13853168023E+02  0.35000420636E+02  0.45045695743E+02  0.00000000000E+00 0.  1.
         11    1    3    3    0    0  0.19942568334E+02  0.61159062871E+01 -0.24867559239E+02  0.32457754763E+02  0.51100000000E-03 0. -1.
        -11    1    3    3    0    0  0.19365166544E+01  0.21746944117E+01 -0.27217383282E+01  0.39858816246E+01  0.51100000000E-03 0.  1.
         12    1    3    3    0    0  0.28630854109E+01  0.55625673241E+01 -0.74111230682E+01  0.96986678692E+01  0.00000000000E+00 0. -1.
</event>
<event>
 7    1  0.3910495E-008  0.4614232E+02  0.7816164E-02  0.1320468E+00
        -11   -1    0    0    0    0  0.00000000000E+00  0.00000000000E+00  0.45593999997E+02  0.45594000000E+02  0.51100000000E-03 0. -1.
         11   -1    0    0    0    0 -0.00000000000E+00 -0.00000000000E+00 -0.45593999997E+02  0.45594000000E+02  0.51100000000E-03 0.  1.
    9900012    2    1    2    0    0  0.71423834960E+01  0.41930356683E+01  0.44277739698E+02  0.46142318488E+02  0.10000006626E+02 0.  0.
        -12    1    1    2    0    0 -0.71423834960E+01 -0.41930356683E+01 -0.44277739698E+02  0.45045681512E+02  0.00000000000E+00 0.  1.
         11    1    3    3    0    0  0.64926476508E+01  0.69666795126E+01  0.27263457118E+02  0.28878801762E+02  0.51100000000E-03 0. -1.
        -11    1    3    3    0    0  0.75479290814E+00 -0.21648820986E+01  0.12709809174E+02  0.12914940044E+02  0.51100000000E-03 0.  1.
         12    1    3    3    0    0 -0.10505706302E+00 -0.60876174579E+00  0.43044734061E+01  0.43485766814E+01  0.00000000000E+00 0. -1.
</event>
<event>
 7    1  0.3910495E-008  0.4614232E+02  0.7816164E-02  0.1320468E+00
        -11   -1    0    0    0    0  0.00000000000E+00  0.00000000000E+00  0.45593999997E+02  0.45594000000E+02  0.51100000000E-03 0. -1.
         11   -1    0    0    0    0 -0.00000000000E+00 -0.00000000000E+00 -0.45593999997E+02  0.45594000000E+02  0.51100000000E-03 0.  1.
    9900012    2    1    2    0    0 -0.31978790068E+02 -0.28360959529E+02 -0.14217118900E+02  0.46142317527E+02  0.99999978697E+01 0.  0.
        -12    1    1    2    0    0  0.31978790068E+02  0.28360959529E+02  0.14217118900E+02  0.45045682473E+02  0.00000000000E+00 0.  1.
         11    1    3    3    0    0 -0.31022961289E+02 -0.27249389666E+02 -0.15218644400E+02  0.44006368879E+02  0.51100000000E-03 0. -1.
        -11    1    3    3    0    0 -0.75819488996E+00 -0.11946933775E-02  0.37698164902E+00  0.84674455609E+00  0.51100000000E-03 0.  1.
         12    1    3    3    0    0 -0.19763388865E+00 -0.11103751690E+01  0.62454385015E+00  0.12892040919E+01  0.00000000000E+00 0. -1.
</event>
<event>
 7    1  0.3910495E-008  0.4614232E+02  0.7816164E-02  0.1320468E+00
        -11   -1    0    0    0    0  0.00000000000E+00  0.00000000000E+00  0.45593999997E+02  0.45594000000E+02  0.51100000000E-03 0.  1.
         11   -1    0    0    0    0 -0.00000000000E+00 -0.00000000000E+00 -0.45593999997E+02  0.45594000000E+02  0.51100000000E-03 0. -1.
    9900012    2    1    2    0    0  0.43609600199E+02  0.37626270993E+01 -0.10637616108E+02  0.46142317980E+02  0.10000001997E+02 0.  0.
        -12    1    1    2    0    0 -0.43609600199E+02 -0.37626270993E+01  0.10637616108E+02  0.45045682020E+02  0.00000000000E+00 0.  1.
         11    1    3    3    0    0  0.26897918096E+02  0.29218251314E+01 -0.31690840785E+01  0.27241111471E+02  0.51100000000E-03 0. -1.
        -11    1    3    3    0    0  0.10846996995E+02  0.87350741032E+00 -0.23861445799E+01  0.11140648331E+02  0.51100000000E-03 0.  1.
        -12    1    3    3    0    0  0.58646851074E+01 -0.32705442454E-01 -0.50823874501E+01  0.77605581788E+01  0.00000000000E+00 0.  1.
</event>
<event>
 7    1  0.3910495E-008  0.4614232E+02  0.7816164E-02  0.1320468E+00
        -11   -1    0    0    0    0  0.00000000000E+00  0.00000000000E+00  0.45593999997E+02  0.45594000000E+02  0.51100000000E-03 0.  1.
         11   -1    0    0    0    0 -0.00000000000E+00 -0.00000000000E+00 -0.45593999997E+02  0.45594000000E+02  0.51100000000E-03 0. -1.
    9900012    2    1    2    0    0  0.91624830622E+00  0.42643419383E+02 -0.14484914747E+02  0.46142317822E+02  0.10000000559E+02 0.  0.
        -12    1    1    2    0    0 -0.91624830622E+00 -0.42643419383E+02  0.14484914747E+02  0.45045682178E+02  0.00000000000E+00 0.  1.
         11    1    3    3    0    0  0.32800730011E+00  0.17802440230E+02 -0.86449283209E+01  0.19793161770E+02  0.51100000000E-03 0. -1.
        -11    1    3    3    0    0 -0.78702861393E+00  0.18560474324E+01  0.11044388788E+01  0.22987195585E+01  0.51100000000E-03 0.  1.
        -12    1    3    3    0    0  0.13752696200E+01  0.22984931721E+02 -0.69444253050E+01  0.24050436494E+02  0.00000000000E+00 0.  1.
</event>
<event>
 7    1  0.3910495E-008  0.4614232E+02  0.7816164E-02  0.1320468E+00
        -11   -1    0    0    0    0  0.00000000000E+00  0.00000000000E+00  0.45593999997E+02  0.45594000000E+02  0.51100000000E-03 0. -1.
         11   -1    0    0    0    0 -0.00000000000E+00 -0.00000000000E+00 -0.45593999997E+02  0.45594000000E+02  0.51100000000E-03 0.  1.
    9900012    2    1    2    0    0  0.34475659916E+02 -0.26125433248E+02 -0.12569967353E+02  0.46142317983E+02  0.10000002027E+02 0.  0.
        -12    1    1    2    0    0 -0.34475659916E+02  0.26125433248E+02  0.12569967353E+02  0.45045682017E+02  0.00000000000E+00 0.  1.
         11    1    3    3    0    0  0.12987710584E+01 -0.95418074015E+00 -0.13054267086E+01  0.20739831966E+01  0.51100000000E-03 0. -1.
        -11    1    3    3    0    0  0.43983621937E+01 -0.25907484219E+01 -0.46302182836E+01  0.68917696557E+01  0.51100000000E-03 0.  1.
         12    1    3    3    0    0  0.28778526664E+02 -0.22580504086E+02 -0.66343223605E+01  0.37176565131E+02  0.00000000000E+00 0. -1.
</event>
<event>
 7    1  0.3910495E-008  0.4614232E+02  0.7816164E-02  0.1320468E+00
        -11   -1    0    0    0    0  0.00000000000E+00  0.00000000000E+00  0.45593999997E+02  0.45594000000E+02  0.51100000000E-03 0.  1.
         11   -1    0    0    0    0 -0.00000000000E+00 -0.00000000000E+00 -0.45593999997E+02  0.45594000000E+02  0.51100000000E-03 0. -1.
    9900012    2    1    2    0    0  0.17914991451E+02 -0.39558759123E+02  0.11969595073E+02  0.46142317096E+02  0.99999939350E+01 0.  0.
        -12    1    1    2    0    0 -0.17914991451E+02  0.39558759123E+02 -0.11969595073E+02  0.45045682904E+02  0.00000000000E+00 0.  1.
         11    1    3    3    0    0  0.15525499278E+02 -0.26989168284E+02  0.82775514893E+01  0.32217606854E+02  0.51100000000E-03 0. -1.
        -11    1    3    3    0    0  0.31737744774E+01 -0.68389103376E+01  0.29379236065E+01  0.80916583231E+01  0.51100000000E-03 0.  1.
        -12    1    3    3    0    0 -0.78428230412E+00 -0.57306805020E+01  0.75411997695E+00  0.58330519189E+01  0.00000000000E+00 0.  1.
</event>
<event>
 7    1  0.3910495E-008  0.4614232E+02  0.7816164E-02  0.1320468E+00
        -11   -1    0    0    0    0  0.00000000000E+00  0.00000000000E+00  0.45593999997E+02  0.45594000000E+02  0.51100000000E-03 0.  1.
         11   -1    0    0    0    0 -0.00000000000E+00 -0.00000000000E+00 -0.45593999997E+02  0.45594000000E+02  0.51100000000E-03 0. -1.
    9900012    2    1    2    0    0  0.41623450404E+02 -0.53241289764E+01 -0.16378506937E+02  0.46142318049E+02  0.10000002629E+02 0.  0.
        -12    1    1    2    0    0 -0.41623450404E+02  0.53241289764E+01  0.16378506937E+02  0.45045681951E+02  0.00000000000E+00 0.  1.
         11    1    3    3    0    0  0.35237561825E+01  0.18654227240E+01 -0.22573185626E+01  0.45817187743E+01  0.51100000000E-03 0. -1.
        -11    1    3    3    0    0  0.20566510109E+01  0.30813524894E+00 -0.17652953621E+01  0.27278249007E+01  0.51100000000E-03 0.  1.
         12    1    3    3    0    0  0.36043043211E+02 -0.74976869494E+01 -0.12355893012E+02  0.38832774374E+02  0.00000000000E+00 0. -1.
</event>
<event>
 7    1  0.3910495E-008  0.4614232E+02  0.7816164E-02  0.1320468E+00
        -11   -1    0    0    0    0  0.00000000000E+00  0.00000000000E+00  0.45593999997E+02  0.45594000000E+02  0.51100000000E-03 0.  1.
         11   -1    0    0    0    0 -0.00000000000E+00 -0.00000000000E+00 -0.45593999997E+02  0.45594000000E+02  0.51100000000E-03 0. -1.
    9900012    2    1    2    0    0 -0.34411850585E+02 -0.79231774247E+01 -0.27967146634E+02  0.46142317720E+02  0.99999996274E+01 0.  0.
        -12    1    1    2    0    0  0.34411850585E+02  0.79231774247E+01  0.27967146634E+02  0.45045682280E+02  0.00000000000E+00 0.  1.
         11    1    3    3    0    0 -0.29952510104E+02 -0.91741288218E+01 -0.24022116618E+02  0.39476316802E+02  0.51100000000E-03 0. -1.
        -11    1    3    3    0    0 -0.44868903937E+01  0.12651984262E+01 -0.26338315473E+01  0.53544356699E+01  0.51100000000E-03 0.  1.
         12    1    3    3    0    0  0.27549912808E-01 -0.14247029098E-01 -0.13111984693E+01  0.13115652486E+01  0.00000000000E+00 0. -1.
</event>
<event>
 7    1  0.3910495E-008  0.4614232E+02  0.7816164E-02  0.1320468E+00
        -11   -1    0    0    0    0  0.00000000000E+00  0.00000000000E+00  0.45593999997E+02  0.45594000000E+02  0.51100000000E-03 0.  1.
         11   -1    0    0    0    0 -0.00000000000E+00 -0.00000000000E+00 -0.45593999997E+02  0.45594000000E+02  0.51100000000E-03 0. -1.
    9900012    2    1    2    0    0  0.67337813882E+01 -0.35692181965E+02 -0.26642782311E+02  0.46142317471E+02  0.99999973558E+01 0.  0.
        -12    1    1    2    0    0 -0.67337813882E+01  0.35692181965E+02  0.26642782311E+02  0.45045682529E+02  0.00000000000E+00 0.  1.
         11    1    3    3    0    0  0.11702533518E+01 -0.52245351283E+01 -0.23627714426E+01  0.58521747552E+01  0.51100000000E-03 0. -1.
        -11    1    3    3    0    0  0.44021053653E+01 -0.50139736847E+01 -0.50590234915E+01  0.83733017804E+01  0.51100000000E-03 0.  1.
        -12    1    3    3    0    0  0.11614226712E+01 -0.25453673152E+02 -0.19220987377E+02  0.31916840935E+02  0.00000000000E+00 0.  1.
</event>
<event>
 7    1  0.3910495E-008  0.4614232E+02  0.7816164E-02  0.1320468E+00
        -11   -1    0    0    0    0  0.00000000000E+00  0.00000000000E+00  0.45593999997E+02  0.45594000000E+02  0.51100000000E-03 0.  1.
         11   -1    0    0    0    0 -0.00000000000E+00 -0.00000000000E+00 -0.45593999997E+02  0.45594000000E+02  0.51100000000E-03 0. -1.
    9900012    2    1    2    0    0 -0.36078429320E+02 -0.14514728728E+01 -0.26932390511E+02  0.46142317695E+02  0.99999993978E+01 0.  0.
        -12    1    1    2    0    0  0.36078429320E+02  0.14514728728E+01  0.26932390511E+02  0.45045682305E+02  0.00000000000E+00 0.  1.
         11    1    3    3    0    0 -0.22692915553E+02 -0.45836800164E+01 -0.17522799649E+02  0.29034928045E+02  0.51100000000E-03 0. -1.
        -11    1    3    3    0    0 -0.22607807245E+01 -0.58691785414E+00 -0.52886570175E+00  0.23948488978E+01  0.51100000000E-03 0.  1.
        -12    1    3    3    0    0 -0.11124733042E+02  0.37191249977E+01 -0.88807251603E+01  0.14712540752E+02  0.00000000000E+00 0.  1.
</event>
<event>
 7    1  0.4280690E-008  0.4614232E+02  0.7816164E-02  0.1320468E+00
        -11   -1    0    0    0    0  0.00000000000E+00  0.00000000000E+00  0.45593999997E+02  0.45594000000E+02  0.51100000000E-03 0.  1.
         11   -1    0    0    0    0 -0.00000000000E+00 -0.00000000000E+00 -0.45593999997E+02  0.45594000000E+02  0.51100000000E-03 0. -1.
    9900012    2    1    2    0    0 -0.31494752957E+02 -0.31844816717E+02  0.48064186078E+01  0.46142317905E+02  0.10000001315E+02 0.  0.
        -12    1    1    2    0    0  0.31494752957E+02  0.31844816717E+02 -0.48064186078E+01  0.45045682095E+02  0.00000000000E+00 0.  1.
         11    1    3    3    0    0 -0.13090092519E+02 -0.14704421842E+02  0.56213856963E+01  0.20473654321E+02  0.51100000000E-03 0. -1.
        -11    1    3    3    0    0  0.15989000369E+00  0.16426544558E+00  0.14546699219E+00  0.27149375099E+00  0.51100000000E-03 0.  1.
         12    1    3    3    0    0 -0.18564550442E+02 -0.17304660321E+02 -0.96043408070E+00  0.25397169833E+02  0.00000000000E+00 0. -1.
</event>
<event>
 7    1  0.3910495E-008  0.4614232E+02  0.7816164E-02  0.1320468E+00
        -11   -1    0    0    0    0  0.00000000000E+00  0.00000000000E+00  0.45593999997E+02  0.45594000000E+02  0.51100000000E-03 0. -1.
         11   -1    0    0    0    0 -0.00000000000E+00 -0.00000000000E+00 -0.45593999997E+02  0.45594000000E+02  0.51100000000E-03 0.  1.
    9900012    2    1    2    0    0  0.27455254137E+02  0.26079978516E+02  0.24395845312E+02  0.46142317326E+02  0.99999960291E+01 0.  0.
        -12    1    1    2    0    0 -0.27455254137E+02 -0.26079978516E+02 -0.24395845312E+02  0.45045682674E+02  0.00000000000E+00 0.  1.
         11    1    3    3    0    0  0.35255823136E+01  0.22757507538E+00  0.28136534683E+01  0.45164330136E+01  0.51100000000E-03 0. -1.
        -11    1    3    3    0    0  0.14159667076E+02  0.18557872534E+02  0.15296002548E+02  0.27908036458E+02  0.51100000000E-03 0.  1.
         12    1    3    3    0    0  0.97700047465E+01  0.72945309062E+01  0.62861892954E+01  0.13717847854E+02  0.00000000000E+00 0. -1.
</event>
<event>
 7    1  0.3910495E-008  0.4614232E+02  0.7816164E-02  0.1320468E+00
        -11   -1    0    0    0    0  0.00000000000E+00  0.00000000000E+00  0.45593999997E+02  0.45594000000E+02  0.51100000000E-03 0. -1.
         11   -1    0    0    0    0 -0.00000000000E+00 -0.00000000000E+00 -0.45593999997E+02  0.45594000000E+02  0.51100000000E-03 0.  1.
    9900012    2    1    2    0    0  0.37060480589E+02  0.90452839938E+01  0.23954484191E+02  0.46142315447E+02  0.99999788971E+01 0.  0.
        -12    1    1    2    0    0 -0.37060480589E+02 -0.90452839938E+01 -0.23954484191E+02  0.45045684553E+02  0.00000000000E+00 0.  1.
         11    1    3    3    0    0  0.14635971914E+02  0.54203742854E+01  0.47755062392E+01  0.16321690825E+02  0.51100000000E-03 0. -1.
        -11    1    3    3    0    0  0.39606323339E+01 -0.21643400161E+00  0.30168939209E+01  0.49834828537E+01  0.51100000000E-03 0.  1.
         12    1    3    3    0    0  0.18463876341E+02  0.38413437100E+01  0.16162084031E+02  0.24837141769E+02  0.00000000000E+00 0. -1.
</event>
<event>
 7    1  0.3910495E-008  0.4614232E+02  0.7816164E-02  0.1320468E+00
        -11   -1    0    0    0    0  0.00000000000E+00  0.00000000000E+00  0.45593999997E+02  0.45594000000E+02  0.51100000000E-03 0.  1.
         11   -1    0    0    0    0 -0.00000000000E+00 -0.00000000000E+00 -0.45593999997E+02  0.45594000000E+02  0.51100000000E-03 0. -1.
    9900012    2    1    2    0    0 -0.31933559624E+01 -0.44059918668E+02  0.88113320682E+01  0.46142317319E+02  0.99999959728E+01 0.  0.
        -12    1    1    2    0    0  0.31933559624E+01  0.44059918668E+02 -0.88113320682E+01  0.45045682681E+02  0.00000000000E+00 0.  1.
         11    1    3    3    0    0 -0.39112706255E+01 -0.15961401466E+02  0.45648954013E+01  0.17055868343E+02  0.51100000000E-03 0. -1.
        -11    1    3    3    0    0  0.22858612285E+01 -0.42750685499E+01  0.66250331690E-01  0.48482741290E+01  0.51100000000E-03 0.  1.
        -12    1    3    3    0    0 -0.15679465654E+01 -0.23823448653E+02  0.41801863352E+01  0.24238174847E+02  0.00000000000E+00 0.  1.
</event>
<event>
 7    1  0.3910495E-008  0.4614232E+02  0.7816164E-02  0.1320468E+00
        -11   -1    0    0    0    0  0.00000000000E+00  0.00000000000E+00  0.45593999997E+02  0.45594000000E+02  0.51100000000E-03 0.  1.
         11   -1    0    0    0    0 -0.00000000000E+00 -0.00000000000E+00 -0.45593999997E+02  0.45594000000E+02  0.51100000000E-03 0. -1.
    9900012    2    1    2    0    0 -0.24496384637E+02 -0.30300739094E+01 -0.37681019266E+02  0.46142318508E+02  0.10000006808E+02 0.  0.
        -12    1    1    2    0    0  0.24496384637E+02  0.30300739094E+01  0.37681019266E+02  0.45045681492E+02  0.00000000000E+00 0.  1.
         11    1    3    3    0    0 -0.14404888906E+01  0.11692569941E+01 -0.17134671828E+01  0.25254980122E+01  0.51100000000E-03 0. -1.
        -11    1    3    3    0    0 -0.13299364348E+01  0.76124624223E+00 -0.64615001644E+01  0.66407237104E+01  0.51100000000E-03 0.  1.
        -12    1    3    3    0    0 -0.21725959312E+02 -0.49605771457E+01 -0.29506051919E+02  0.36976096785E+02  0.00000000000E+00 0.  1.
</event>
<event>
 7    1  0.3910495E-008  0.4614232E+02  0.7816164E-02  0.1320468E+00
        -11   -1    0    0    0    0  0.00000000000E+00  0.00000000000E+00  0.45593999997E+02  0.45594000000E+02  0.51100000000E-03 0.  1.
         11   -1    0    0    0    0 -0.00000000000E+00 -0.00000000000E+00 -0.45593999997E+02  0.45594000000E+02  0.51100000000E-03 0. -1.
    9900012    2    1    2    0    0  0.41780873013E+02  0.37535430756E+01 -0.16412895356E+02  0.46142316863E+02  0.99999918064E+01 0.  0.
        -12    1    1    2    0    0 -0.41780873013E+02 -0.37535430756E+01  0.16412895356E+02  0.45045683137E+02  0.00000000000E+00 0.  1.
         11    1    3    3    0    0  0.99643522550E+01  0.20258348431E+01 -0.64063858950E+01  0.12018074021E+02  0.51100000000E-03 0. -1.
        -11    1    3    3    0    0  0.87369895320E+01  0.27450583008E+01 -0.51868205939E+01  0.10524896165E+02  0.51100000000E-03 0.  1.
         12    1    3    3    0    0  0.23079531226E+02 -0.10173500683E+01 -0.48196888668E+01  0.23599346676E+02  0.00000000000E+00 0. -1.
</event>
<event>
 7    1  0.3910495E-008  0.4614232E+02  0.7816164E-02  0.1320468E+00
        -11   -1    0    0    0    0  0.00000000000E+00  0.00000000000E+00  0.45593999997E+02  0.45594000000E+02  0.51100000000E-03 0.  1.
         11   -1    0    0    0    0 -0.00000000000E+00 -0.00000000000E+00 -0.45593999997E+02  0.45594000000E+02  0.51100000000E-03 0. -1.
    9900012    2    1    2    0    0 -0.14307785878E+02 -0.28716091695E+02 -0.31619405152E+02  0.46142318285E+02  0.10000004776E+02 0.  0.
        -12    1    1    2    0    0  0.14307785878E+02  0.28716091695E+02  0.31619405152E+02  0.45045681715E+02  0.00000000000E+00 0.  1.
         11    1    3    3    0    0 -0.37848905791E+01 -0.14822490940E+02 -0.11214847050E+02  0.18968511512E+02  0.51100000000E-03 0. -1.
        -11    1    3    3    0    0 -0.50749677209E+00  0.27257121266E+00 -0.91319918552E+00  0.10797134125E+01  0.51100000000E-03 0.  1.
        -12    1    3    3    0    0 -0.10015398527E+02 -0.14166171968E+02 -0.19491358917E+02  0.26094093361E+02  0.00000000000E+00 0.  1.
</event>
<event>
 7    1  0.3910495E-008  0.4614232E+02  0.7816164E-02  0.1320468E+00
        -11   -1    0    0    0    0  0.00000000000E+00  0.00000000000E+00  0.45593999997E+02  0.45594000000E+02  0.51100000000E-03 0. -1.
         11   -1    0    0    0    0 -0.00000000000E+00 -0.00000000000E+00 -0.45593999997E+02  0.45594000000E+02  0.51100000000E-03 0.  1.
    9900012    2    1    2    0    0  0.18120181685E+02  0.11069019735E+02  0.39727186713E+02  0.46142317118E+02  0.99999941331E+01 0.  0.
        -12    1    1    2    0    0 -0.18120181685E+02 -0.11069019735E+02 -0.39727186713E+02  0.45045682882E+02  0.00000000000E+00 0.  1.
         11    1    3    3    0    0  0.70304284740E+01  0.45830174598E+01  0.20759601153E+02  0.22391784517E+02  0.51100000000E-03 0. -1.
        -11    1    3    3    0    0  0.11841172415E+01  0.16420338939E+01  0.77926924589E+01  0.80513641683E+01  0.51100000000E-03 0.  1.
        -12    1    3    3    0    0  0.99056359698E+01  0.48439683813E+01  0.11174893101E+02  0.15699168432E+02  0.00000000000E+00 0.  1.
</event>
<event>
 7    1  0.3910495E-008  0.4614232E+02  0.7816164E-02  0.1320468E+00
        -11   -1    0    0    0    0  0.00000000000E+00  0.00000000000E+00  0.45593999997E+02  0.45594000000E+02  0.51100000000E-03 0.  1.
         11   -1    0    0    0    0 -0.00000000000E+00 -0.00000000000E+00 -0.45593999997E+02  0.45594000000E+02  0.51100000000E-03 0. -1.
    9900012    2    1    2    0    0  0.44963230431E+01 -0.27959259005E+02 -0.35031077565E+02  0.46142317850E+02  0.10000000807E+02 0.  0.
        -12    1    1    2    0    0 -0.44963230431E+01  0.27959259005E+02  0.35031077565E+02  0.45045682150E+02  0.00000000000E+00 0.  1.
         11    1    3    3    0    0  0.96791901758E+00 -0.93973100662E+00 -0.71053609198E+00  0.15247371539E+01  0.51100000000E-03 0.  1.
        -11    1    3    3    0    0  0.49980260656E+01 -0.10794095457E+02 -0.11234174422E+02  0.16361523049E+02  0.51100000000E-03 0. -1.
         12    1    3    3    0    0 -0.14696220401E+01 -0.16225432541E+02 -0.23086367051E+02  0.28256057646E+02  0.00000000000E+00 0. -1.
</event>
<event>
 7    1  0.3910495E-008  0.4614232E+02  0.7816164E-02  0.1320468E+00
        -11   -1    0    0    0    0  0.00000000000E+00  0.00000000000E+00  0.45593999997E+02  0.45594000000E+02  0.51100000000E-03 0. -1.
         11   -1    0    0    0    0 -0.00000000000E+00 -0.00000000000E+00 -0.45593999997E+02  0.45594000000E+02  0.51100000000E-03 0.  1.
    9900012    2    1    2    0    0 -0.17215510385E+02  0.18738756389E+02  0.37169862502E+02  0.46142317995E+02  0.10000002137E+02 0.  0.
        -12    1    1    2    0    0  0.17215510385E+02 -0.18738756389E+02 -0.37169862502E+02  0.45045682005E+02  0.00000000000E+00 0.  1.
         11    1    3    3    0    0 -0.11007441529E+01  0.49986019086E+00  0.68333695892E+00  0.13886855515E+01  0.51100000000E-03 0.  1.
        -11    1    3    3    0    0 -0.56088816862E+01  0.87447184232E+01  0.22822281923E+02  0.25075609794E+02  0.51100000000E-03 0. -1.
         12    1    3    3    0    0 -0.10505884546E+02  0.94941777752E+01  0.13664243620E+02  0.19678022650E+02  0.00000000000E+00 0. -1.
</event>
<event>
 7    1  0.3910495E-008  0.4614232E+02  0.7816164E-02  0.1320468E+00
        -11   -1    0    0    0    0  0.00000000000E+00  0.00000000000E+00  0.45593999997E+02  0.45594000000E+02  0.51100000000E-03 0.  1.
         11   -1    0    0    0    0 -0.00000000000E+00 -0.00000000000E+00 -0.45593999997E+02  0.45594000000E+02  0.51100000000E-03 0. -1.
    9900012    2    1    2    0    0 -0.16305748303E+02 -0.40760776351E+02  0.10089344489E+02  0.46142321088E+02  0.10000030336E+02 0.  0.
        -12    1    1    2    0    0  0.16305748303E+02  0.40760776351E+02 -0.10089344489E+02  0.45045678912E+02  0.00000000000E+00 0.  1.
         11    1    3    3    0    0 -0.85258810756E+01 -0.23389610036E+02  0.85687388308E+01  0.26328459718E+02  0.51100000000E-03 0. -1.
        -11    1    3    3    0    0 -0.26015746250E+01 -0.10117003185E+02  0.27870708520E+01  0.10811554382E+02  0.51100000000E-03 0.  1.
        -12    1    3    3    0    0 -0.51782926023E+01 -0.72541631306E+01 -0.12664651940E+01  0.90023069870E+01  0.00000000000E+00 0.  1.
</event>
<event>
 7    1  0.3910495E-008  0.4614232E+02  0.7816164E-02  0.1320468E+00
        -11   -1    0    0    0    0  0.00000000000E+00  0.00000000000E+00  0.45593999997E+02  0.45594000000E+02  0.51100000000E-03 0. -1.
         11   -1    0    0    0    0 -0.00000000000E+00 -0.00000000000E+00 -0.45593999997E+02  0.45594000000E+02  0.51100000000E-03 0.  1.
    9900012    2    1    2    0    0 -0.13605700091E+02  0.42769951171E+02  0.38379230924E+01  0.46142318167E+02  0.10000003699E+02 0.  0.
        -12    1    1    2    0    0  0.13605700091E+02 -0.42769951171E+02 -0.38379230924E+01  0.45045681833E+02  0.00000000000E+00 0.  1.
         11    1    3    3    0    0 -0.73959491664E+01  0.33066461903E+02  0.21885582524E+01  0.33954097755E+02  0.51100000000E-03 0. -1.
        -11    1    3    3    0    0 -0.23091874701E+01  0.68546255356E+01  0.71356720813E+00  0.72682471358E+01  0.51100000000E-03 0.  1.
        -12    1    3    3    0    0 -0.39005634546E+01  0.28488637324E+01  0.93579763193E+00  0.49199732760E+01  0.00000000000E+00 0.  1.
</event>
<event>
 7    1  0.3910495E-008  0.4614232E+02  0.7816164E-02  0.1320468E+00
        -11   -1    0    0    0    0  0.00000000000E+00  0.00000000000E+00  0.45593999997E+02  0.45594000000E+02  0.51100000000E-03 0.  1.
         11   -1    0    0    0    0 -0.00000000000E+00 -0.00000000000E+00 -0.45593999997E+02  0.45594000000E+02  0.51100000000E-03 0. -1.
    9900012    2    1    2    0    0 -0.21250952057E+02 -0.33591655443E+02 -0.21192244721E+02  0.46142317465E+02  0.99999973010E+01 0.  0.
        -12    1    1    2    0    0  0.21250952057E+02  0.33591655443E+02  0.21192244721E+02  0.45045682535E+02  0.00000000000E+00 0.  1.
         11    1    3    3    0    0 -0.23149552960E+01 -0.60012534567E+01 -0.75280635810E+01  0.99018080477E+01  0.51100000000E-03 0. -1.
        -11    1    3    3    0    0 -0.71086036899E+01 -0.12455963034E+02 -0.52818418488E+01  0.15283360726E+02  0.51100000000E-03 0.  1.
         12    1    3    3    0    0 -0.11827393071E+02 -0.15134438953E+02 -0.83823392910E+01  0.20957148691E+02  0.00000000000E+00 0. -1.
</event>
<event>
 7    1  0.3910495E-008  0.4614232E+02  0.7816164E-02  0.1320468E+00
        -11   -1    0    0    0    0  0.00000000000E+00  0.00000000000E+00  0.45593999997E+02  0.45594000000E+02  0.51100000000E-03 0.  1.
         11   -1    0    0    0    0 -0.00000000000E+00 -0.00000000000E+00 -0.45593999997E+02  0.45594000000E+02  0.51100000000E-03 0. -1.
    9900012    2    1    2    0    0 -0.18713986461E+01  0.15347833836E+02 -0.42309046293E+02  0.46142317248E+02  0.99999953204E+01 0.  0.
        -12    1    1    2    0    0  0.18713986461E+01 -0.15347833836E+02  0.42309046293E+02  0.45045682752E+02  0.00000000000E+00 0.  1.
         11    1    3    3    0    0 -0.65238844772E+00  0.31335338100E+01 -0.51571467507E+01  0.60696628980E+01  0.51100000000E-03 0. -1.
        -11    1    3    3    0    0 -0.13667315723E+01 -0.66666038638E+00 -0.13855115495E+01  0.20571907487E+01  0.51100000000E-03 0.  1.
         12    1    3    3    0    0  0.14772137393E+00  0.12880960412E+02 -0.35766387993E+02  0.38015463601E+02  0.00000000000E+00 0. -1.
</event>
<event>
 7    1  0.3910495E-008  0.4614232E+02  0.7816164E-02  0.1320468E+00
        -11   -1    0    0    0    0  0.00000000000E+00  0.00000000000E+00  0.45593999997E+02  0.45594000000E+02  0.51100000000E-03 0. -1.
         11   -1    0    0    0    0 -0.00000000000E+00 -0.00000000000E+00 -0.45593999997E+02  0.45594000000E+02  0.51100000000E-03 0.  1.
    9900012    2    1    2    0    0 -0.33890454819E+02 -0.89723459168E+01  0.28285111409E+02  0.46142318226E+02  0.10000004235E+02 0.  0.
        -12    1    1    2    0    0  0.33890454819E+02  0.89723459168E+01 -0.28285111409E+02  0.45045681774E+02  0.00000000000E+00 0.  1.
         11    1    3    3    0    0 -0.11065603363E+02 -0.52194613851E+01  0.67794734384E+01  0.13987552156E+02  0.51100000000E-03 0. -1.
        -11    1    3    3    0    0 -0.54400700098E+01 -0.24178885440E+01  0.86118928949E+01  0.10469252419E+02  0.51100000000E-03 0.  1.
         12    1    3    3    0    0 -0.17384781446E+02 -0.13349959876E+01  0.12893745075E+02  0.21685513651E+02  0.00000000000E+00 0. -1.
</event>
<event>
 7    1  0.3910495E-008  0.4614230E+02  0.7816164E-02  0.1320468E+00
        -11   -1    0    0    0    0  0.00000000000E+00  0.00000000000E+00  0.45593999997E+02  0.45594000000E+02  0.51100000000E-03 0.  1.
         11   -1    0    0    0    0 -0.00000000000E+00 -0.00000000000E+00 -0.45593999997E+02  0.45594000000E+02  0.51100000000E-03 0. -1.
    9900012    2    1    2    0    0  0.37470198760E+02 -0.22570450160E+02 -0.10755171130E+02  0.46142304073E+02  0.99998751802E+01 0.  0.
        -12    1    1    2    0    0 -0.37470198760E+02  0.22570450160E+02  0.10755171130E+02  0.45045695927E+02  0.00000000000E+00 0.  1.
         11    1    3    3    0    0  0.14684617466E+02 -0.55825281171E+01 -0.32549370966E+01  0.16043603899E+02  0.51100000000E-03 0. -1.
        -11    1    3    3    0    0  0.10651528535E+02 -0.79407884758E+01 -0.18263981660E+00  0.13287006409E+02  0.51100000000E-03 0.  1.
         12    1    3    3    0    0  0.12134052758E+02 -0.90471335669E+01 -0.73175942165E+01  0.16811693765E+02  0.00000000000E+00 0. -1.
</event>
<event>
 7    1  0.3910495E-008  0.4614232E+02  0.7816164E-02  0.1320468E+00
        -11   -1    0    0    0    0  0.00000000000E+00  0.00000000000E+00  0.45593999997E+02  0.45594000000E+02  0.51100000000E-03 0.  1.
         11   -1    0    0    0    0 -0.00000000000E+00 -0.00000000000E+00 -0.45593999997E+02  0.45594000000E+02  0.51100000000E-03 0. -1.
    9900012    2    1    2    0    0 -0.19003215400E+02 -0.24739441627E+02 -0.32495404699E+02  0.46142317698E+02  0.99999994233E+01 0.  0.
        -12    1    1    2    0    0  0.19003215400E+02  0.24739441627E+02  0.32495404699E+02  0.45045682302E+02  0.00000000000E+00 0.  1.
         11    1    3    3    0    0 -0.10570252592E+02 -0.15352101649E+02 -0.19972628063E+02  0.27318915368E+02  0.51100000000E-03 0. -1.
        -11    1    3    3    0    0 -0.94060215753E+01 -0.84924473868E+01 -0.10789856003E+02  0.16643794559E+02  0.51100000000E-03 0.  1.
         12    1    3    3    0    0  0.97305876765E+00 -0.89489259129E+00 -0.17329206323E+01  0.21796077704E+01  0.00000000000E+00 0. -1.
</event>
<event>
 7    1  0.3910495E-008  0.4614232E+02  0.7816164E-02  0.1320468E+00
        -11   -1    0    0    0    0  0.00000000000E+00  0.00000000000E+00  0.45593999997E+02  0.45594000000E+02  0.51100000000E-03 0.  1.
         11   -1    0    0    0    0 -0.00000000000E+00 -0.00000000000E+00 -0.45593999997E+02  0.45594000000E+02  0.51100000000E-03 0. -1.
    9900012    2    1    2    0    0  0.25752603239E+02 -0.21413430674E+01 -0.36896226966E+02  0.46142317765E+02  0.10000000035E+02 0.  0.
        -12    1    1    2    0    0 -0.25752603239E+02  0.21413430674E+01  0.36896226966E+02  0.45045682235E+02  0.00000000000E+00 0.  1.
         11    1    3    3    0    0  0.86176511126E+01 -0.36462123519E+01 -0.13110214769E+02  0.16107032836E+02  0.51100000000E-03 0. -1.
        -11    1    3    3    0    0  0.42503697155E+00 -0.91550900354E+00 -0.20039359118E+00  0.10290631736E+01  0.51100000000E-03 0.  1.
         12    1    3    3    0    0  0.16709915155E+02  0.24203782880E+01 -0.23585618605E+02  0.29006221755E+02  0.00000000000E+00 0. -1.
</event>
<event>
 7    1  0.3910495E-008  0.4614232E+02  0.7816164E-02  0.1320468E+00
        -11   -1    0    0    0    0  0.00000000000E+00  0.00000000000E+00  0.45593999997E+02  0.45594000000E+02  0.51100000000E-03 0.  1.
         11   -1    0    0    0    0 -0.00000000000E+00 -0.00000000000E+00 -0.45593999997E+02  0.45594000000E+02  0.51100000000E-03 0. -1.
    9900012    2    1    2    0    0 -0.57130731237E+01  0.15303735111E+02 -0.41979397566E+02  0.46142319487E+02  0.10000015738E+02 0.  0.
        -12    1    1    2    0    0  0.57130731237E+01 -0.15303735111E+02  0.41979397566E+02  0.45045680513E+02  0.00000000000E+00 0.  1.
         11    1    3    3    0    0 -0.18517505567E+01  0.22314807623E+01 -0.23842664506E+01  0.37540928712E+01  0.51100000000E-03 0. -1.
        -11    1    3    3    0    0 -0.37517836131E+01  0.26843374943E+01 -0.14875570166E+02  0.15574470652E+02  0.51100000000E-03 0.  1.
         12    1    3    3    0    0 -0.10953895398E+00  0.10387916855E+02 -0.24719560949E+02  0.26813755964E+02  0.00000000000E+00 0. -1.
</event>
<event>
 7    1  0.3910495E-008  0.4614232E+02  0.7816164E-02  0.1320468E+00
        -11   -1    0    0    0    0  0.00000000000E+00  0.00000000000E+00  0.45593999997E+02  0.45594000000E+02  0.51100000000E-03 0.  1.
         11   -1    0    0    0    0 -0.00000000000E+00 -0.00000000000E+00 -0.45593999997E+02  0.45594000000E+02  0.51100000000E-03 0. -1.
    9900012    2    1    2    0    0  0.38032190648E+02  0.15955573502E+02 -0.18113134875E+02  0.46142317562E+02  0.99999981833E+01 0.  0.
        -12    1    1    2    0    0 -0.38032190648E+02 -0.15955573502E+02  0.18113134875E+02  0.45045682438E+02  0.00000000000E+00 0.  1.
         11    1    3    3    0    0  0.11755573469E+02  0.34120423962E+01 -0.70831648992E+01  0.14142374841E+02  0.51100000000E-03 0. -1.
        -11    1    3    3    0    0  0.12637548910E+02  0.93359871514E+01 -0.81338839354E+01  0.17692607684E+02  0.51100000000E-03 0.  1.
        -12    1    3    3    0    0  0.13639068270E+02  0.32075439546E+01 -0.28960860408E+01  0.14307335036E+02  0.00000000000E+00 0.  1.
</event>
<event>
 7    1  0.3910495E-008  0.4614232E+02  0.7816164E-02  0.1320468E+00
        -11   -1    0    0    0    0  0.00000000000E+00  0.00000000000E+00  0.45593999997E+02  0.45594000000E+02  0.51100000000E-03 0.  1.
         11   -1    0    0    0    0 -0.00000000000E+00 -0.00000000000E+00 -0.45593999997E+02  0.45594000000E+02  0.51100000000E-03 0. -1.
    9900012    2    1    2    0    0 -0.18773742796E+02 -0.99984609616E+01 -0.39707566864E+02  0.46142317561E+02  0.99999981760E+01 0.  0.
        -12    1    1    2    0    0  0.18773742796E+02  0.99984609616E+01  0.39707566864E+02  0.45045682439E+02  0.00000000000E+00 0.  1.
         11    1    3    3    0    0 -0.50849685532E+01 -0.48252024550E+01 -0.69818896582E+01  0.98937489042E+01  0.51100000000E-03 0. -1.
        -11    1    3    3    0    0 -0.34132061015E+01  0.91207219558E+00 -0.57666324720E+01  0.67628323881E+01  0.51100000000E-03 0.  1.
         12    1    3    3    0    0 -0.10275568141E+02 -0.60853307022E+01 -0.26959044733E+02  0.29485736269E+02  0.00000000000E+00 0. -1.
</event>
<event>
 7    1  0.3910495E-008  0.4614232E+02  0.7816164E-02  0.1320468E+00
        -11   -1    0    0    0    0  0.00000000000E+00  0.00000000000E+00  0.45593999997E+02  0.45594000000E+02  0.51100000000E-03 0.  1.
         11   -1    0    0    0    0 -0.00000000000E+00 -0.00000000000E+00 -0.45593999997E+02  0.45594000000E+02  0.51100000000E-03 0. -1.
    9900012    2    1    2    0    0 -0.83357199331E+01 -0.34203344420E+02 -0.28102677176E+02  0.46142318067E+02  0.10000002792E+02 0.  0.
        -12    1    1    2    0    0  0.83357199331E+01  0.34203344420E+02  0.28102677176E+02  0.45045681933E+02  0.00000000000E+00 0.  1.
         11    1    3    3    0    0  0.25293523188E+00 -0.24065983866E+01 -0.29481854732E+01  0.38141171812E+01  0.51100000000E-03 0. -1.
        -11    1    3    3    0    0 -0.38199781502E+01 -0.68773165687E+01 -0.10185679103E+02  0.12870034005E+02  0.51100000000E-03 0.  1.
        -12    1    3    3    0    0 -0.47686770148E+01 -0.24919429465E+02 -0.14968812601E+02  0.29458166881E+02  0.00000000000E+00 0.  1.
</event>
<event>
 7    1  0.3910495E-008  0.4614232E+02  0.7816164E-02  0.1320468E+00
        -11   -1    0    0    0    0  0.00000000000E+00  0.00000000000E+00  0.45593999997E+02  0.45594000000E+02  0.51100000000E-03 0.  1.
         11   -1    0    0    0    0 -0.00000000000E+00 -0.00000000000E+00 -0.45593999997E+02  0.45594000000E+02  0.51100000000E-03 0. -1.
    9900012    2    1    2    0    0 -0.36542713257E+02  0.14929108513E+02 -0.21699431552E+02  0.46142317600E+02  0.99999985305E+01 0.  0.
        -12    1    1    2    0    0  0.36542713257E+02 -0.14929108513E+02  0.21699431552E+02  0.45045682400E+02  0.00000000000E+00 0.  1.
         11    1    3    3    0    0 -0.20724794623E+02  0.84093331476E+01 -0.81338686700E+01  0.23799029727E+02  0.51100000000E-03 0. -1.
        -11    1    3    3    0    0 -0.13250114356E+02  0.61180069795E+01 -0.91679236820E+01  0.17235033065E+02  0.51100000000E-03 0.  1.
        -12    1    3    3    0    0 -0.25678042785E+01  0.40176838592E+00 -0.43976392003E+01  0.51082548081E+01  0.00000000000E+00 0.  1.
</event>
<event>
 7    1  0.3910495E-008  0.4614232E+02  0.7816164E-02  0.1320468E+00
        -11   -1    0    0    0    0  0.00000000000E+00  0.00000000000E+00  0.45593999997E+02  0.45594000000E+02  0.51100000000E-03 0.  1.
         11   -1    0    0    0    0 -0.00000000000E+00 -0.00000000000E+00 -0.45593999997E+02  0.45594000000E+02  0.51100000000E-03 0. -1.
    9900012    2    1    2    0    0 -0.35195102753E+02 -0.26434945413E+02 -0.95714150203E+01  0.46142316719E+02  0.99999904991E+01 0.  0.
        -12    1    1    2    0    0  0.35195102753E+02  0.26434945413E+02  0.95714150203E+01  0.45045683281E+02  0.00000000000E+00 0.  1.
         11    1    3    3    0    0 -0.38544185953E+01 -0.71470019317E+01 -0.13499612270E+01  0.82315596879E+01  0.51100000000E-03 0. -1.
        -11    1    3    3    0    0 -0.12189763493E+01  0.34103327973E-03 -0.50701434275E+00  0.13202148542E+01  0.51100000000E-03 0.  1.
         12    1    3    3    0    0 -0.30121707808E+02 -0.19288284514E+02 -0.77144394505E+01  0.36590542177E+02  0.00000000000E+00 0. -1.
</event>
<event>
 7    1  0.3910495E-008  0.4614232E+02  0.7816164E-02  0.1320468E+00
        -11   -1    0    0    0    0  0.00000000000E+00  0.00000000000E+00  0.45593999997E+02  0.45594000000E+02  0.51100000000E-03 0.  1.
         11   -1    0    0    0    0 -0.00000000000E+00 -0.00000000000E+00 -0.45593999997E+02  0.45594000000E+02  0.51100000000E-03 0. -1.
    9900012    2    1    2    0    0  0.10844006597E+02 -0.17131744626E+01 -0.43687367599E+02  0.46142317259E+02  0.99999954243E+01 0.  0.
        -12    1    1    2    0    0 -0.10844006597E+02  0.17131744626E+01  0.43687367599E+02  0.45045682741E+02  0.00000000000E+00 0.  1.
         11    1    3    3    0    0  0.87189254131E+01 -0.53349673782E+01 -0.26477227959E+02  0.28381774749E+02  0.51100000000E-03 0. -1.
        -11    1    3    3    0    0  0.76533380696E+00  0.25275812149E+01 -0.10546870981E+02  0.10872483175E+02  0.51100000000E-03 0.  1.
         12    1    3    3    0    0  0.13597473768E+01  0.10942117007E+01 -0.66632686591E+01  0.68880593347E+01  0.00000000000E+00 0. -1.
</event>
<event>
 7    1  0.3910495E-008  0.4614232E+02  0.7816164E-02  0.1320468E+00
        -11   -1    0    0    0    0  0.00000000000E+00  0.00000000000E+00  0.45593999997E+02  0.45594000000E+02  0.51100000000E-03 0. -1.
         11   -1    0    0    0    0 -0.00000000000E+00 -0.00000000000E+00 -0.45593999997E+02  0.45594000000E+02  0.51100000000E-03 0.  1.
    9900012    2    1    2    0    0  0.42394627043E+01  0.16086529216E+02  0.41861246854E+02  0.46142318138E+02  0.10000003435E+02 0.  0.
        -12    1    1    2    0    0 -0.42394627043E+01 -0.16086529216E+02 -0.41861246854E+02  0.45045681862E+02  0.00000000000E+00 0.  1.
         11    1    3    3    0    0  0.67980351099E+01  0.90093288113E+01  0.30100180346E+02  0.32146572821E+02  0.51100000000E-03 0. -1.
        -11    1    3    3    0    0 -0.86979260461E+00  0.25173917390E+01  0.33434560395E+01  0.42746343577E+01  0.51100000000E-03 0.  1.
         12    1    3    3    0    0 -0.16887798010E+01  0.45598086661E+01  0.84176104682E+01  0.97211109593E+01  0.00000000000E+00 0. -1.
</event>
<event>
 7    1  0.3910495E-008  0.4614232E+02  0.7816164E-02  0.1320468E+00
        -11   -1    0    0    0    0  0.00000000000E+00  0.00000000000E+00  0.45593999997E+02  0.45594000000E+02  0.51100000000E-03 0. -1.
         11   -1    0    0    0    0 -0.00000000000E+00 -0.00000000000E+00 -0.45593999997E+02  0.45594000000E+02  0.51100000000E-03 0.  1.
    9900012    2    1    2    0    0 -0.18370817558E+02 -0.31285001649E+02  0.26699724826E+02  0.46142316836E+02  0.99999915634E+01 0.  0.
        -12    1    1    2    0    0  0.18370817558E+02  0.31285001649E+02 -0.26699724826E+02  0.45045683164E+02  0.00000000000E+00 0.  1.
         11    1    3    3    0    0 -0.40522709424E+01 -0.10339124051E+02  0.42647852907E+01  0.11895662225E+02  0.51100000000E-03 0. -1.
        -11    1    3    3    0    0 -0.15121490802E+01 -0.44499597358E+01  0.22806242274E+01  0.52239815868E+01  0.51100000000E-03 0.  1.
        -12    1    3    3    0    0 -0.12806397535E+02 -0.16495917863E+02  0.20154315308E+02  0.29022673025E+02  0.00000000000E+00 0.  1.
</event>
<event>
 7    1  0.3910495E-008  0.4614232E+02  0.7816164E-02  0.1320468E+00
        -11   -1    0    0    0    0  0.00000000000E+00  0.00000000000E+00  0.45593999997E+02  0.45594000000E+02  0.51100000000E-03 0. -1.
         11   -1    0    0    0    0 -0.00000000000E+00 -0.00000000000E+00 -0.45593999997E+02  0.45594000000E+02  0.51100000000E-03 0.  1.
    9900012    2    1    2    0    0  0.14760472957E+02  0.15611259926E+02  0.39592051132E+02  0.46142317508E+02  0.99999976907E+01 0.  0.
        -12    1    1    2    0    0 -0.14760472957E+02 -0.15611259926E+02 -0.39592051132E+02  0.45045682492E+02  0.00000000000E+00 0.  1.
         11    1    3    3    0    0  0.10589149193E+02  0.94855956543E+01  0.25014339612E+02  0.28771927152E+02  0.51100000000E-03 0. -1.
        -11    1    3    3    0    0  0.21071728993E+01  0.15693670203E+01  0.85267839497E+00  0.27622728284E+01  0.51100000000E-03 0.  1.
         12    1    3    3    0    0  0.20641508652E+01  0.45562972510E+01  0.13725033125E+02  0.14608117528E+02  0.00000000000E+00 0. -1.
</event>
<event>
 7    1  0.3910495E-008  0.4614232E+02  0.7816164E-02  0.1320468E+00
        -11   -1    0    0    0    0  0.00000000000E+00  0.00000000000E+00  0.45593999997E+02  0.45594000000E+02  0.51100000000E-03 0.  1.
         11   -1    0    0    0    0 -0.00000000000E+00 -0.00000000000E+00 -0.45593999997E+02  0.45594000000E+02  0.51100000000E-03 0. -1.
    9900012    2    1    2    0    0 -0.94128653648E+01 -0.43856517931E+02 -0.41373027068E+01  0.46142317931E+02  0.10000001548E+02 0.  0.
        -12    1    1    2    0    0  0.94128653648E+01  0.43856517931E+02  0.41373027068E+01  0.45045682069E+02  0.00000000000E+00 0.  1.
         11    1    3    3    0    0  0.16629802012E+01 -0.47949703170E+01 -0.96921646319E+00  0.51668776166E+01  0.51100000000E-03 0. -1.
        -11    1    3    3    0    0 -0.86374804991E+01 -0.24206836042E+02 -0.62961893385E+00  0.25709402964E+02  0.51100000000E-03 0.  1.
         12    1    3    3    0    0 -0.24383650669E+01 -0.14854711572E+02 -0.25384673098E+01  0.15266037350E+02  0.00000000000E+00 0. -1.
</event>
<event>
 7    1  0.3910495E-008  0.4614231E+02  0.7816164E-02  0.1320468E+00
        -11   -1    0    0    0    0  0.00000000000E+00  0.00000000000E+00  0.45593999997E+02  0.45594000000E+02  0.51100000000E-03 0.  1.
         11   -1    0    0    0    0 -0.00000000000E+00 -0.00000000000E+00 -0.45593999997E+02  0.45594000000E+02  0.51100000000E-03 0. -1.
    9900012    2    1    2    0    0 -0.29595914653E+02 -0.12638614252E+02 -0.31519225050E+02  0.46142308950E+02  0.99999196559E+01 0.  0.
        -12    1    1    2    0    0  0.29595914653E+02  0.12638614252E+02  0.31519225050E+02  0.45045691050E+02  0.00000000000E+00 0.  1.
         11    1    3    3    0    0 -0.10172068629E+02 -0.43925681917E+01 -0.10068693431E+02  0.14971446930E+02  0.51100000000E-03 0. -1.
        -11    1    3    3    0    0 -0.12433446645E+02 -0.26353965311E+01 -0.16819911826E+02  0.21081872414E+02  0.51100000000E-03 0.  1.
        -12    1    3    3    0    0 -0.69903993792E+01 -0.56106495290E+01 -0.46306197929E+01  0.10088989607E+02  0.00000000000E+00 0.  1.
</event>
<event>
 7    1  0.3910495E-008  0.4614232E+02  0.7816164E-02  0.1320468E+00
        -11   -1    0    0    0    0  0.00000000000E+00  0.00000000000E+00  0.45593999997E+02  0.45594000000E+02  0.51100000000E-03 0. -1.
         11   -1    0    0    0    0 -0.00000000000E+00 -0.00000000000E+00 -0.45593999997E+02  0.45594000000E+02  0.51100000000E-03 0.  1.
    9900012    2    1    2    0    0  0.32367239577E+02 -0.23813312326E+02  0.20356845606E+02  0.46142320909E+02  0.10000028707E+02 0.  0.
        -12    1    1    2    0    0 -0.32367239577E+02  0.23813312326E+02 -0.20356845606E+02  0.45045679091E+02  0.00000000000E+00 0.  1.
         11    1    3    3    0    0  0.83627685910E+01 -0.69114743450E+01  0.10039118145E+02  0.14781348704E+02  0.51100000000E-03 0. -1.
        -11    1    3    3    0    0  0.14063292412E+02 -0.12021532331E+02  0.72340615304E+01  0.19865172527E+02  0.51100000000E-03 0.  1.
         12    1    3    3    0    0  0.99411785731E+01 -0.48803056503E+01  0.30836659307E+01  0.11495799678E+02  0.00000000000E+00 0. -1.
</event>
<event>
 7    1  0.3910495E-008  0.4614231E+02  0.7816164E-02  0.1320468E+00
        -11   -1    0    0    0    0  0.00000000000E+00  0.00000000000E+00  0.45593999997E+02  0.45594000000E+02  0.51100000000E-03 0.  1.
         11   -1    0    0    0    0 -0.00000000000E+00 -0.00000000000E+00 -0.45593999997E+02  0.45594000000E+02  0.51100000000E-03 0. -1.
    9900012    2    1    2    0    0  0.13873891012E+02  0.42825890660E+02  0.16037993746E+01  0.46142312803E+02  0.99999547874E+01 0.  0.
        -12    1    1    2    0    0 -0.13873891012E+02 -0.42825890660E+02 -0.16037993746E+01  0.45045687197E+02  0.00000000000E+00 0.  1.
         11    1    3    3    0    0  0.35057216248E+01  0.14109288307E+02  0.26038991208E+01  0.14769644259E+02  0.51100000000E-03 0. -1.
        -11    1    3    3    0    0  0.49562951628E+01  0.72198324365E+01  0.20560623330E+01  0.89954563381E+01  0.51100000000E-03 0.  1.
        -12    1    3    3    0    0  0.54118742241E+01  0.21496769917E+02 -0.30561620792E+01  0.22377212206E+02  0.00000000000E+00 0.  1.
</event>
<event>
 7    1  0.3910495E-008  0.4614232E+02  0.7816164E-02  0.1320468E+00
        -11   -1    0    0    0    0  0.00000000000E+00  0.00000000000E+00  0.45593999997E+02  0.45594000000E+02  0.51100000000E-03 0. -1.
         11   -1    0    0    0    0 -0.00000000000E+00 -0.00000000000E+00 -0.45593999997E+02  0.45594000000E+02  0.51100000000E-03 0.  1.
    9900012    2    1    2    0    0 -0.96897685737E+01  0.73829652189E+01  0.43367197319E+02  0.46142316591E+02  0.99999893325E+01 0.  0.
        -12    1    1    2    0    0  0.96897685737E+01 -0.73829652189E+01 -0.43367197319E+02  0.45045683409E+02  0.00000000000E+00 0.  1.
         11    1    3    3    0    0 -0.33219339453E+01  0.48935307345E+01  0.88081073059E+01  0.10609648569E+02  0.51100000000E-03 0. -1.
        -11    1    3    3    0    0 -0.58340832509E+01  0.35852835677E+01  0.31579426353E+02  0.32313324724E+02  0.51100000000E-03 0.  1.
        -12    1    3    3    0    0 -0.53375137744E+00 -0.10958490832E+01  0.29796636599E+01  0.32193432983E+01  0.00000000000E+00 0.  1.
</event>
<event>
 7    1  0.3910495E-008  0.4614232E+02  0.7816164E-02  0.1320468E+00
        -11   -1    0    0    0    0  0.00000000000E+00  0.00000000000E+00  0.45593999997E+02  0.45594000000E+02  0.51100000000E-03 0.  1.
         11   -1    0    0    0    0 -0.00000000000E+00 -0.00000000000E+00 -0.45593999997E+02  0.45594000000E+02  0.51100000000E-03 0. -1.
    9900012    2    1    2    0    0 -0.23376655977E+02  0.22142938268E+02 -0.31501362807E+02  0.46142316317E+02  0.99999868272E+01 0.  0.
        -12    1    1    2    0    0  0.23376655977E+02 -0.22142938268E+02  0.31501362807E+02  0.45045683683E+02  0.00000000000E+00 0.  1.
         11    1    3    3    0    0  0.10980150235E+00  0.15706116398E+01 -0.30868094736E+01  0.34651508308E+01  0.51100000000E-03 0. -1.
        -11    1    3    3    0    0 -0.16172978877E+02  0.15983389169E+02 -0.23683188845E+02  0.32831804843E+02  0.51100000000E-03 0.  1.
        -12    1    3    3    0    0 -0.73134786021E+01  0.45889374593E+01 -0.47313644879E+01  0.98453606427E+01  0.00000000000E+00 0.  1.
</event>
<event>
 7    1  0.3910495E-008  0.4614232E+02  0.7816164E-02  0.1320468E+00
        -11   -1    0    0    0    0  0.00000000000E+00  0.00000000000E+00  0.45593999997E+02  0.45594000000E+02  0.51100000000E-03 0.  1.
         11   -1    0    0    0    0 -0.00000000000E+00 -0.00000000000E+00 -0.45593999997E+02  0.45594000000E+02  0.51100000000E-03 0. -1.
    9900012    2    1    2    0    0  0.24383938353E+02 -0.18269985721E+01 -0.37831192346E+02  0.46142317769E+02  0.10000000067E+02 0.  0.
        -12    1    1    2    0    0 -0.24383938353E+02  0.18269985721E+01  0.37831192346E+02  0.45045682231E+02  0.00000000000E+00 0.  1.
         11    1    3    3    0    0  0.13969844392E+02 -0.51148785756E+01 -0.20452426392E+02  0.25290715307E+02  0.51100000000E-03 0. -1.
        -11    1    3    3    0    0  0.25100377296E+01  0.16603936980E+01 -0.24474809086E+01  0.38790926382E+01  0.51100000000E-03 0.  1.
        -12    1    3    3    0    0  0.79040562311E+01  0.16274863056E+01 -0.14931285045E+02  0.16972509823E+02  0.00000000000E+00 0.  1.
</event>
<event>
 7    1  0.3910495E-008  0.4614232E+02  0.7816164E-02  0.1320468E+00
        -11   -1    0    0    0    0  0.00000000000E+00  0.00000000000E+00  0.45593999997E+02  0.45594000000E+02  0.51100000000E-03 0. -1.
         11   -1    0    0    0    0 -0.00000000000E+00 -0.00000000000E+00 -0.45593999997E+02  0.45594000000E+02  0.51100000000E-03 0.  1.
    9900012    2    1    2    0    0 -0.18628501550E+02 -0.19709878389E+02  0.35966833532E+02  0.46142317738E+02  0.99999997923E+01 0.  0.
        -12    1    1    2    0    0  0.18628501550E+02  0.19709878389E+02 -0.35966833532E+02  0.45045682262E+02  0.00000000000E+00 0.  1.
         11    1    3    3    0    0 -0.67934077400E+01 -0.22683236209E+01  0.89523324764E+01  0.11464725806E+02  0.51100000000E-03 0. -1.
        -11    1    3    3    0    0 -0.33162375037E+01 -0.65553534761E+01  0.58141749529E+01  0.93688164152E+01  0.51100000000E-03 0.  1.
        -12    1    3    3    0    0 -0.85188563066E+01 -0.10886201292E+02  0.21200326103E+02  0.25308775517E+02  0.00000000000E+00 0.  1.
</event>
<event>
 7    1  0.3910495E-008  0.4614232E+02  0.7816164E-02  0.1320468E+00
        -11   -1    0    0    0    0  0.00000000000E+00  0.00000000000E+00  0.45593999997E+02  0.45594000000E+02  0.51100000000E-03 0.  1.
         11   -1    0    0    0    0 -0.00000000000E+00 -0.00000000000E+00 -0.45593999997E+02  0.45594000000E+02  0.51100000000E-03 0. -1.
    9900012    2    1    2    0    0  0.40904925150E+01 -0.33258201153E+02 -0.30104376025E+02  0.46142317312E+02  0.99999959078E+01 0.  0.
        -12    1    1    2    0    0 -0.40904925150E+01  0.33258201153E+02  0.30104376025E+02  0.45045682688E+02  0.00000000000E+00 0.  1.
         11    1    3    3    0    0 -0.15638305054E+00  0.66961196941E+00 -0.10581062428E+01  0.12619132024E+01  0.51100000000E-03 0.  1.
        -11    1    3    3    0    0  0.53004563422E+00 -0.71788124374E+01 -0.56937732494E+01  0.91779818294E+01  0.51100000000E-03 0. -1.
        -12    1    3    3    0    0  0.37168299313E+01 -0.26749000685E+02 -0.23352496532E+02  0.35702422281E+02  0.00000000000E+00 0.  1.
</event>
<event>
 7    1  0.3910495E-008  0.4614231E+02  0.7816164E-02  0.1320468E+00
        -11   -1    0    0    0    0  0.00000000000E+00  0.00000000000E+00  0.45593999997E+02  0.45594000000E+02  0.51100000000E-03 0.  1.
         11   -1    0    0    0    0 -0.00000000000E+00 -0.00000000000E+00 -0.45593999997E+02  0.45594000000E+02  0.51100000000E-03 0. -1.
    9900012    2    1    2    0    0 -0.32731728791E+01 -0.21492214940E+02 -0.39452310840E+02  0.46142314365E+02  0.99999690272E+01 0.  0.
        -12    1    1    2    0    0  0.32731728791E+01  0.21492214940E+02  0.39452310840E+02  0.45045685635E+02  0.00000000000E+00 0.  1.
         11    1    3    3    0    0 -0.15169866153E+01 -0.38761018407E+01 -0.30428320354E+01  0.51559907804E+01  0.51100000000E-03 0. -1.
        -11    1    3    3    0    0  0.35100904915E+00 -0.68271280509E-01  0.14306762848E+00  0.38514533331E+00  0.51100000000E-03 0.  1.
         12    1    3    3    0    0 -0.21071953129E+01 -0.17547841819E+02 -0.36552546434E+02  0.40601178251E+02  0.00000000000E+00 0. -1.
</event>
<event>
 7    1  0.3910495E-008  0.4614232E+02  0.7816164E-02  0.1320468E+00
        -11   -1    0    0    0    0  0.00000000000E+00  0.00000000000E+00  0.45593999997E+02  0.45594000000E+02  0.51100000000E-03 0.  1.
         11   -1    0    0    0    0 -0.00000000000E+00 -0.00000000000E+00 -0.45593999997E+02  0.45594000000E+02  0.51100000000E-03 0. -1.
    9900012    2    1    2    0    0  0.62067196425E+01 -0.54618272044E+01 -0.44280450768E+02  0.46142320459E+02  0.10000024600E+02 0.  0.
        -12    1    1    2    0    0 -0.62067196425E+01  0.54618272044E+01  0.44280450768E+02  0.45045679541E+02  0.00000000000E+00 0.  1.
         11    1    3    3    0    0  0.44594127018E+01  0.86720355886E+00 -0.12488247822E+02  0.13288895273E+02  0.51100000000E-03 0.  1.
        -11    1    3    3    0    0 -0.42776826699E+00 -0.45658788610E+01 -0.26212329367E+02  0.26610457467E+02  0.51100000000E-03 0. -1.
         12    1    3    3    0    0  0.21750752076E+01 -0.17631519023E+01 -0.55798735782E+01  0.62429677188E+01  0.00000000000E+00 0. -1.
</event>
<event>
 7    1  0.3910495E-008  0.4614232E+02  0.7816164E-02  0.1320468E+00
        -11   -1    0    0    0    0  0.00000000000E+00  0.00000000000E+00  0.45593999997E+02  0.45594000000E+02  0.51100000000E-03 0. -1.
         11   -1    0    0    0    0 -0.00000000000E+00 -0.00000000000E+00 -0.45593999997E+02  0.45594000000E+02  0.51100000000E-03 0.  1.
    9900012    2    1    2    0    0 -0.25549877736E+02  0.33747944858E+02 -0.15407574596E+02  0.46142318860E+02  0.10000010018E+02 0.  0.
        -12    1    1    2    0    0  0.25549877736E+02 -0.33747944858E+02  0.15407574596E+02  0.45045681140E+02  0.00000000000E+00 0.  1.
         11    1    3    3    0    0 -0.12959624174E+02  0.17841452439E+02 -0.68071409988E+01  0.23078267975E+02  0.51100000000E-03 0. -1.
        -11    1    3    3    0    0 -0.11805947219E+02  0.14339787387E+02 -0.52809706711E+01  0.19310581129E+02  0.51100000000E-03 0.  1.
        -12    1    3    3    0    0 -0.78430634348E+00  0.15667050317E+01 -0.33194629257E+01  0.37534697564E+01  0.00000000000E+00 0.  1.
</event>
<event>
 7    1  0.3910495E-008  0.4614232E+02  0.7816164E-02  0.1320468E+00
        -11   -1    0    0    0    0  0.00000000000E+00  0.00000000000E+00  0.45593999997E+02  0.45594000000E+02  0.51100000000E-03 0.  1.
         11   -1    0    0    0    0 -0.00000000000E+00 -0.00000000000E+00 -0.45593999997E+02  0.45594000000E+02  0.51100000000E-03 0. -1.
    9900012    2    1    2    0    0  0.21451907537E+02  0.71713521003E+01 -0.38955113495E+02  0.46142317684E+02  0.99999992979E+01 0.  0.
        -12    1    1    2    0    0 -0.21451907537E+02 -0.71713521003E+01  0.38955113495E+02  0.45045682316E+02  0.00000000000E+00 0.  1.
         11    1    3    3    0    0  0.21879700367E+01  0.43522691691E+01 -0.81952186074E+01  0.95336807208E+01  0.51100000000E-03 0.  1.
        -11    1    3    3    0    0  0.78651320867E+01 -0.38166626493E+00 -0.14423926612E+02  0.16433369437E+02  0.51100000000E-03 0. -1.
        -12    1    3    3    0    0  0.11398805414E+02  0.32007491961E+01 -0.16335968275E+02  0.20175267526E+02  0.00000000000E+00 0.  1.
</event>
<event>
 7    1  0.3910495E-008  0.4614232E+02  0.7816164E-02  0.1320468E+00
        -11   -1    0    0    0    0  0.00000000000E+00  0.00000000000E+00  0.45593999997E+02  0.45594000000E+02  0.51100000000E-03 0. -1.
         11   -1    0    0    0    0 -0.00000000000E+00 -0.00000000000E+00 -0.45593999997E+02  0.45594000000E+02  0.51100000000E-03 0.  1.
    9900012    2    1    2    0    0 -0.37482597727E+02 -0.12731821464E+02  0.21495791880E+02  0.46142317869E+02  0.10000000982E+02 0.  0.
        -12    1    1    2    0    0  0.37482597727E+02  0.12731821464E+02 -0.21495791880E+02  0.45045682131E+02  0.00000000000E+00 0.  1.
         11    1    3    3    0    0 -0.18616022365E+02 -0.80038084199E+01  0.96577875946E+01  0.22447496506E+02  0.51100000000E-03 0. -1.
        -11    1    3    3    0    0 -0.17518164367E+02 -0.22771275045E+01  0.10832214804E+02  0.20722168571E+02  0.51100000000E-03 0.  1.
        -12    1    3    3    0    0 -0.13484109946E+01 -0.24508855398E+01  0.10057894815E+01  0.29726527918E+01  0.00000000000E+00 0.  1.
</event>
<event>
 7    1  0.3910495E-008  0.4614232E+02  0.7816164E-02  0.1320468E+00
        -11   -1    0    0    0    0  0.00000000000E+00  0.00000000000E+00  0.45593999997E+02  0.45594000000E+02  0.51100000000E-03 0. -1.
         11   -1    0    0    0    0 -0.00000000000E+00 -0.00000000000E+00 -0.45593999997E+02  0.45594000000E+02  0.51100000000E-03 0.  1.
    9900012    2    1    2    0    0 -0.42482855839E+02 -0.12909147074E+02  0.75943570587E+01  0.46142318991E+02  0.10000011215E+02 0.  0.
        -12    1    1    2    0    0  0.42482855839E+02  0.12909147074E+02 -0.75943570587E+01  0.45045681009E+02  0.00000000000E+00 0.  1.
         11    1    3    3    0    0 -0.81074788139E+01 -0.35822189179E+01  0.53151131677E+01  0.10335082648E+02  0.51100000000E-03 0. -1.
        -11    1    3    3    0    0 -0.42743572734E+01 -0.82655154628E+00 -0.60902992125E+00  0.43959339469E+01  0.51100000000E-03 0.  1.
        -12    1    3    3    0    0 -0.30101019752E+02 -0.85003766102E+01  0.28882738123E+01  0.31411302396E+02  0.00000000000E+00 0.  1.
</event>
<event>
 7    1  0.3910495E-008  0.4614232E+02  0.7816164E-02  0.1320468E+00
        -11   -1    0    0    0    0  0.00000000000E+00  0.00000000000E+00  0.45593999997E+02  0.45594000000E+02  0.51100000000E-03 0.  1.
         11   -1    0    0    0    0 -0.00000000000E+00 -0.00000000000E+00 -0.45593999997E+02  0.45594000000E+02  0.51100000000E-03 0. -1.
    9900012    2    1    2    0    0  0.12219000326E+02 -0.55101802556E+00 -0.43353269082E+02  0.46142317300E+02  0.99999957921E+01 0.  0.
        -12    1    1    2    0    0 -0.12219000326E+02  0.55101802556E+00  0.43353269082E+02  0.45045682700E+02  0.00000000000E+00 0.  1.
         11    1    3    3    0    0  0.82037094405E+01 -0.12195405546E+01 -0.22102503108E+02  0.23607388074E+02  0.51100000000E-03 0. -1.
        -11    1    3    3    0    0  0.16400769999E+01  0.31106608650E+01 -0.64414211199E+01  0.73387989404E+01  0.51100000000E-03 0.  1.
         12    1    3    3    0    0  0.23752138858E+01 -0.24421383360E+01 -0.14809344854E+02  0.15196130286E+02  0.00000000000E+00 0. -1.
</event>
<event>
 7    1  0.3910495E-008  0.4614232E+02  0.7816164E-02  0.1320468E+00
        -11   -1    0    0    0    0  0.00000000000E+00  0.00000000000E+00  0.45593999997E+02  0.45594000000E+02  0.51100000000E-03 0.  1.
         11   -1    0    0    0    0 -0.00000000000E+00 -0.00000000000E+00 -0.45593999997E+02  0.45594000000E+02  0.51100000000E-03 0. -1.
    9900012    2    1    2    0    0 -0.26502978152E+02 -0.29171212008E+02 -0.21811606334E+02  0.46142316169E+02  0.99999854826E+01 0.  0.
        -12    1    1    2    0    0  0.26502978152E+02  0.29171212008E+02  0.21811606334E+02  0.45045683831E+02  0.00000000000E+00 0.  1.
         11    1    3    3    0    0 -0.57620962053E+01 -0.93063881778E+01 -0.79409578486E+01  0.13522922222E+02  0.51100000000E-03 0. -1.
        -11    1    3    3    0    0  0.19431852631E+00 -0.68173392747E+00  0.42740065483E+00  0.82776350391E+00  0.51100000000E-03 0.  1.
         12    1    3    3    0    0 -0.20935200473E+02 -0.19183089903E+02 -0.14298049140E+02  0.31791630444E+02  0.00000000000E+00 0. -1.
</event>
<event>
 7    1  0.3910495E-008  0.4614232E+02  0.7816164E-02  0.1320468E+00
        -11   -1    0    0    0    0  0.00000000000E+00  0.00000000000E+00  0.45593999997E+02  0.45594000000E+02  0.51100000000E-03 0.  1.
         11   -1    0    0    0    0 -0.00000000000E+00 -0.00000000000E+00 -0.45593999997E+02  0.45594000000E+02  0.51100000000E-03 0. -1.
    9900012    2    1    2    0    0  0.33581768501E+01 -0.11278545059E+02 -0.43481383487E+02  0.46142316074E+02  0.99999846200E+01 0.  0.
        -12    1    1    2    0    0 -0.33581768501E+01  0.11278545059E+02  0.43481383487E+02  0.45045683926E+02  0.00000000000E+00 0.  1.
         11    1    3    3    0    0  0.27535957943E+01 -0.81559389272E+01 -0.15815662467E+02  0.18006576829E+02  0.51100000000E-03 0. -1.
        -11    1    3    3    0    0 -0.13246048669E+00  0.44489334455E-01 -0.16638171065E+02  0.16638757818E+02  0.51100000000E-03 0.  1.
         12    1    3    3    0    0  0.73704154244E+00 -0.31670954663E+01 -0.11027549955E+02  0.11496981427E+02  0.00000000000E+00 0. -1.
</event>
<event>
 7    1  0.3910495E-008  0.4614232E+02  0.7816164E-02  0.1320468E+00
        -11   -1    0    0    0    0  0.00000000000E+00  0.00000000000E+00  0.45593999997E+02  0.45594000000E+02  0.51100000000E-03 0.  1.
         11   -1    0    0    0    0 -0.00000000000E+00 -0.00000000000E+00 -0.45593999997E+02  0.45594000000E+02  0.51100000000E-03 0. -1.
    9900012    2    1    2    0    0 -0.14864358625E+02  0.30943005839E+02 -0.29166672951E+02  0.46142316759E+02  0.99999908602E+01 0.  0.
        -12    1    1    2    0    0  0.14864358625E+02 -0.30943005839E+02  0.29166672951E+02  0.45045683241E+02  0.00000000000E+00 0.  1.
         11    1    3    3    0    0 -0.53869149438E+01  0.49063144712E+01 -0.46327236930E+01  0.86344023174E+01  0.51100000000E-03 0. -1.
        -11    1    3    3    0    0 -0.41727960794E+01  0.18417461761E+02 -0.14280575832E+02  0.23675936543E+02  0.51100000000E-03 0.  1.
        -12    1    3    3    0    0 -0.53046476017E+01  0.76192296064E+01 -0.10253373426E+02  0.13831977898E+02  0.00000000000E+00 0.  1.
</event>
<event>
 7    1  0.3910495E-008  0.4614232E+02  0.7816164E-02  0.1320468E+00
        -11   -1    0    0    0    0  0.00000000000E+00  0.00000000000E+00  0.45593999997E+02  0.45594000000E+02  0.51100000000E-03 0.  1.
         11   -1    0    0    0    0 -0.00000000000E+00 -0.00000000000E+00 -0.45593999997E+02  0.45594000000E+02  0.51100000000E-03 0. -1.
    9900012    2    1    2    0    0 -0.14851839048E+02  0.14760307606E+02 -0.39883200537E+02  0.46142317757E+02  0.99999999582E+01 0.  0.
        -12    1    1    2    0    0  0.14851839048E+02 -0.14760307606E+02  0.39883200537E+02  0.45045682243E+02  0.00000000000E+00 0.  1.
         11    1    3    3    0    0 -0.32769664301E+01  0.36854419890E+01 -0.94948553114E+01  0.10699218162E+02  0.51100000000E-03 0. -1.
        -11    1    3    3    0    0 -0.91234494215E+01  0.11148017829E+02 -0.29509494700E+02  0.32837873082E+02  0.51100000000E-03 0.  1.
        -12    1    3    3    0    0 -0.24514231960E+01 -0.73152212617E-01 -0.87885052571E+00  0.26052265119E+01  0.00000000000E+00 0.  1.
</event>
<event>
 7    1  0.3910495E-008  0.4614233E+02  0.7816164E-02  0.1320468E+00
        -11   -1    0    0    0    0  0.00000000000E+00  0.00000000000E+00  0.45593999997E+02  0.45594000000E+02  0.51100000000E-03 0.  1.
         11   -1    0    0    0    0 -0.00000000000E+00 -0.00000000000E+00 -0.45593999997E+02  0.45594000000E+02  0.51100000000E-03 0. -1.
    9900012    2    1    2    0    0 -0.11175740928E+02  0.42600920755E+02 -0.94539285361E+01  0.46142329850E+02  0.10000110240E+02 0.  0.
        -12    1    1    2    0    0  0.11175740928E+02 -0.42600920755E+02  0.94539285361E+01  0.45045670150E+02  0.00000000000E+00 0.  1.
         11    1    3    3    0    0 -0.83473734192E+01  0.27490700296E+02 -0.54650208891E+01  0.29245233788E+02  0.51100000000E-03 0. -1.
        -11    1    3    3    0    0 -0.41081776020E+01  0.14072788088E+02 -0.41647451556E+01  0.15240262145E+02  0.51100000000E-03 0.  1.
        -12    1    3    3    0    0  0.12798100933E+01  0.10374323715E+01  0.17583750864E+00  0.16568339173E+01  0.00000000000E+00 0.  1.
</event>
<event>
 7    1  0.3910495E-008  0.4614232E+02  0.7816164E-02  0.1320468E+00
        -11   -1    0    0    0    0  0.00000000000E+00  0.00000000000E+00  0.45593999997E+02  0.45594000000E+02  0.51100000000E-03 0.  1.
         11   -1    0    0    0    0 -0.00000000000E+00 -0.00000000000E+00 -0.45593999997E+02  0.45594000000E+02  0.51100000000E-03 0. -1.
    9900012    2    1    2    0    0 -0.42643922990E+01 -0.19217673232E+02 -0.40516780111E+02  0.46142317890E+02  0.10000001179E+02 0.  0.
        -12    1    1    2    0    0  0.42643922990E+01  0.19217673232E+02  0.40516780111E+02  0.45045682110E+02  0.00000000000E+00 0.  1.
         11    1    3    3    0    0 -0.26935075456E+01 -0.88935064436E+01 -0.19559813494E+02  0.21654924242E+02  0.51100000000E-03 0. -1.
        -11    1    3    3    0    0  0.46098967465E+00  0.98505511899E+00 -0.27572344017E+01  0.29639815915E+01  0.51100000000E-03 0.  1.
        -12    1    3    3    0    0 -0.20318744281E+01 -0.11309221908E+02 -0.18199732216E+02  0.21523412057E+02  0.00000000000E+00 0.  1.
</event>
<event>
 7    1  0.3910495E-008  0.4614232E+02  0.7816164E-02  0.1320468E+00
        -11   -1    0    0    0    0  0.00000000000E+00  0.00000000000E+00  0.45593999997E+02  0.45594000000E+02  0.51100000000E-03 0.  1.
         11   -1    0    0    0    0 -0.00000000000E+00 -0.00000000000E+00 -0.45593999997E+02  0.45594000000E+02  0.51100000000E-03 0. -1.
    9900012    2    1    2    0    0 -0.37777350241E+01  0.31136983772E+02 -0.32331569976E+02  0.46142318105E+02  0.10000003133E+02 0.  0.
        -12    1    1    2    0    0  0.37777350241E+01 -0.31136983772E+02  0.32331569976E+02  0.45045681895E+02  0.00000000000E+00 0.  1.
         11    1    3    3    0    0 -0.38141103560E+01  0.13364491955E+02 -0.86119023026E+01  0.16349983014E+02  0.51100000000E-03 0. -1.
        -11    1    3    3    0    0  0.34472363693E+00  0.45518946035E+01 -0.83519143853E+01  0.95180382973E+01  0.51100000000E-03 0.  1.
         12    1    3    3    0    0 -0.30834830501E+00  0.13220597213E+02 -0.15367753288E+02  0.20274296793E+02  0.00000000000E+00 0. -1.
</event>
<event>
 7    1  0.3910495E-008  0.4614232E+02  0.7816164E-02  0.1320468E+00
        -11   -1    0    0    0    0  0.00000000000E+00  0.00000000000E+00  0.45593999997E+02  0.45594000000E+02  0.51100000000E-03 0.  1.
         11   -1    0    0    0    0 -0.00000000000E+00 -0.00000000000E+00 -0.45593999997E+02  0.45594000000E+02  0.51100000000E-03 0. -1.
    9900012    2    1    2    0    0 -0.39686065805E+02 -0.15317387761E+02 -0.14815778907E+02  0.46142317726E+02  0.99999996816E+01 0.  0.
        -12    1    1    2    0    0  0.39686065805E+02  0.15317387761E+02  0.14815778907E+02  0.45045682274E+02  0.00000000000E+00 0.  1.
         11    1    3    3    0    0 -0.23452849930E+02 -0.14003303896E+02 -0.90126311000E+01  0.28763800330E+02  0.51100000000E-03 0. -1.
        -11    1    3    3    0    0 -0.82243704295E+01 -0.15181809232E+01 -0.27247302405E+01  0.87959818908E+01  0.51100000000E-03 0.  1.
         12    1    3    3    0    0 -0.80088454456E+01  0.20409705872E+00 -0.30784175666E+01  0.85825355051E+01  0.00000000000E+00 0. -1.
</event>
<event>
 7    1  0.3910495E-008  0.4614232E+02  0.7816164E-02  0.1320468E+00
        -11   -1    0    0    0    0  0.00000000000E+00  0.00000000000E+00  0.45593999997E+02  0.45594000000E+02  0.51100000000E-03 0. -1.
         11   -1    0    0    0    0 -0.00000000000E+00 -0.00000000000E+00 -0.45593999997E+02  0.45594000000E+02  0.51100000000E-03 0.  1.
    9900012    2    1    2    0    0  0.19920494892E+02  0.37782933599E+02  0.14308645251E+02  0.46142317443E+02  0.99999971023E+01 0.  0.
        -12    1    1    2    0    0 -0.19920494892E+02 -0.37782933599E+02 -0.14308645251E+02  0.45045682557E+02  0.00000000000E+00 0.  1.
         11    1    3    3    0    0  0.20773919127E+02  0.36194763809E+02  0.13632713099E+02  0.43902932815E+02  0.51100000000E-03 0. -1.
        -11    1    3    3    0    0 -0.75967146143E+00  0.12933558583E+01  0.43374678300E-02  0.14999630597E+01  0.51100000000E-03 0.  1.
         12    1    3    3    0    0 -0.93752773263E-01  0.29481393161E+00  0.67159468364E+00  0.73942156843E+00  0.00000000000E+00 0. -1.
</event>
<event>
 7    1  0.3910495E-008  0.4614232E+02  0.7816164E-02  0.1320468E+00
        -11   -1    0    0    0    0  0.00000000000E+00  0.00000000000E+00  0.45593999997E+02  0.45594000000E+02  0.51100000000E-03 0. -1.
         11   -1    0    0    0    0 -0.00000000000E+00 -0.00000000000E+00 -0.45593999997E+02  0.45594000000E+02  0.51100000000E-03 0.  1.
    9900012    2    1    2    0    0  0.42957594009E+02  0.11390062894E+02 -0.73501743095E+01  0.46142317875E+02  0.10000001034E+02 0.  0.
        -12    1    1    2    0    0 -0.42957594009E+02 -0.11390062894E+02  0.73501743095E+01  0.45045682125E+02  0.00000000000E+00 0.  1.
         11    1    3    3    0    0  0.19273006034E+02  0.49971678432E+01 -0.25735497596E+01  0.20075945972E+02  0.51100000000E-03 0. -1.
        -11    1    3    3    0    0  0.17511397056E+02  0.79555454621E+01 -0.40665139146E+01  0.19658999622E+02  0.51100000000E-03 0.  1.
        -12    1    3    3    0    0  0.61731909191E+01 -0.15626504113E+01 -0.71011063536E+00  0.64073722809E+01  0.00000000000E+00 0.  1.
</event>
<event>
 7    1  0.3910495E-008  0.4614232E+02  0.7816164E-02  0.1320468E+00
        -11   -1    0    0    0    0  0.00000000000E+00  0.00000000000E+00  0.45593999997E+02  0.45594000000E+02  0.51100000000E-03 0. -1.
         11   -1    0    0    0    0 -0.00000000000E+00 -0.00000000000E+00 -0.45593999997E+02  0.45594000000E+02  0.51100000000E-03 0.  1.
    9900012    2    1    2    0    0  0.36210693056E+02  0.11535687354E+02  0.24183199112E+02  0.46142317702E+02  0.99999994649E+01 0.  0.
        -12    1    1    2    0    0 -0.36210693056E+02 -0.11535687354E+02 -0.24183199112E+02  0.45045682298E+02  0.00000000000E+00 0.  1.
         11    1    3    3    0    0  0.23400069620E+02  0.26653334789E+01  0.15335852917E+02  0.28104370581E+02  0.51100000000E-03 0. -1.
        -11    1    3    3    0    0  0.31428845309E+01  0.21935052030E+01  0.11878882389E+01  0.40125137981E+01  0.51100000000E-03 0.  1.
         12    1    3    3    0    0  0.96677389052E+01  0.66768486725E+01  0.76594579557E+01  0.14025433323E+02  0.00000000000E+00 0. -1.
</event>
<event>
 7    1  0.3910495E-008  0.4614232E+02  0.7816164E-02  0.1320468E+00
        -11   -1    0    0    0    0  0.00000000000E+00  0.00000000000E+00  0.45593999997E+02  0.45594000000E+02  0.51100000000E-03 0. -1.
         11   -1    0    0    0    0 -0.00000000000E+00 -0.00000000000E+00 -0.45593999997E+02  0.45594000000E+02  0.51100000000E-03 0.  1.
    9900012    2    1    2    0    0 -0.26431653752E+02  0.21783964419E+02  0.29256452407E+02  0.46142318372E+02  0.10000005573E+02 0.  0.
        -12    1    1    2    0    0  0.26431653752E+02 -0.21783964419E+02 -0.29256452407E+02  0.45045681628E+02  0.00000000000E+00 0.  1.
         11    1    3    3    0    0 -0.10624761288E+02  0.40285037030E+01  0.11376333884E+02  0.16079035028E+02  0.51100000000E-03 0. -1.
        -11    1    3    3    0    0 -0.60429613959E+01  0.45812940595E+01  0.39668888296E+01  0.85581449473E+01  0.51100000000E-03 0.  1.
         12    1    3    3    0    0 -0.97639310674E+01  0.13174166656E+02  0.13913229694E+02  0.21505138397E+02  0.00000000000E+00 0. -1.
</event>
<event>
 7    1  0.3910495E-008  0.4614232E+02  0.7816164E-02  0.1320468E+00
        -11   -1    0    0    0    0  0.00000000000E+00  0.00000000000E+00  0.45593999997E+02  0.45594000000E+02  0.51100000000E-03 0. -1.
         11   -1    0    0    0    0 -0.00000000000E+00 -0.00000000000E+00 -0.45593999997E+02  0.45594000000E+02  0.51100000000E-03 0.  1.
    9900012    2    1    2    0    0  0.40395148255E+01  0.38810940703E+02  0.22505704072E+02  0.46142317476E+02  0.99999973981E+01 0.  0.
        -12    1    1    2    0    0 -0.40395148255E+01 -0.38810940703E+02 -0.22505704072E+02  0.45045682524E+02  0.00000000000E+00 0.  1.
         11    1    3    3    0    0 -0.21313368124E+01  0.50918897607E+01  0.23187054638E+01  0.59871807415E+01  0.51100000000E-03 0. -1.
        -11    1    3    3    0    0  0.57926701685E+00  0.10436606831E+02  0.37201831035E+01  0.11094957188E+02  0.51100000000E-03 0.  1.
        -12    1    3    3    0    0  0.55915846210E+01  0.23282444111E+02  0.16466815505E+02  0.29060179546E+02  0.00000000000E+00 0.  1.
</event>
<event>
 7    1  0.3910495E-008  0.4614232E+02  0.7816164E-02  0.1320468E+00
        -11   -1    0    0    0    0  0.00000000000E+00  0.00000000000E+00  0.45593999997E+02  0.45594000000E+02  0.51100000000E-03 0.  1.
         11   -1    0    0    0    0 -0.00000000000E+00 -0.00000000000E+00 -0.45593999997E+02  0.45594000000E+02  0.51100000000E-03 0. -1.
    9900012    2    1    2    0    0 -0.21337093264E+02  0.31728546400E+02 -0.23814727727E+02  0.46142318050E+02  0.10000002635E+02 0.  0.
        -12    1    1    2    0    0  0.21337093264E+02 -0.31728546400E+02  0.23814727727E+02  0.45045681950E+02  0.00000000000E+00 0.  1.
         11    1    3    3    0    0 -0.14414979478E+02  0.14370338559E+02 -0.11215889895E+02  0.23239932230E+02  0.51100000000E-03 0.  1.
        -11    1    3    3    0    0 -0.12785572699E+00  0.11004268751E+01 -0.21453917595E+01  0.24145377316E+01  0.51100000000E-03 0. -1.
         12    1    3    3    0    0 -0.67942580594E+01  0.16257780966E+02 -0.10453446072E+02  0.20487848088E+02  0.00000000000E+00 0. -1.
</event>
<event>
 7    1  0.3910495E-008  0.4614232E+02  0.7816164E-02  0.1320468E+00
        -11   -1    0    0    0    0  0.00000000000E+00  0.00000000000E+00  0.45593999997E+02  0.45594000000E+02  0.51100000000E-03 0.  1.
         11   -1    0    0    0    0 -0.00000000000E+00 -0.00000000000E+00 -0.45593999997E+02  0.45594000000E+02  0.51100000000E-03 0. -1.
    9900012    2    1    2    0    0 -0.96540047982E+01 -0.80971867514E+00 -0.43991568239E+02  0.46142317309E+02  0.99999958756E+01 0.  0.
        -12    1    1    2    0    0  0.96540047982E+01  0.80971867514E+00  0.43991568239E+02  0.45045682691E+02  0.00000000000E+00 0.  1.
         11    1    3    3    0    0 -0.33800245867E+01 -0.31295743973E+00 -0.23835257469E+02  0.24075755594E+02  0.51100000000E-03 0. -1.
        -11    1    3    3    0    0 -0.44492032205E+01 -0.24681251896E+01 -0.17733952003E+02  0.18449393084E+02  0.51100000000E-03 0.  1.
        -12    1    3    3    0    0 -0.18247769910E+01  0.19713639542E+01 -0.24223587670E+01  0.36171686307E+01  0.00000000000E+00 0.  1.
</event>
<event>
 7    1  0.3910495E-008  0.4614232E+02  0.7816164E-02  0.1320468E+00
        -11   -1    0    0    0    0  0.00000000000E+00  0.00000000000E+00  0.45593999997E+02  0.45594000000E+02  0.51100000000E-03 0.  1.
         11   -1    0    0    0    0 -0.00000000000E+00 -0.00000000000E+00 -0.45593999997E+02  0.45594000000E+02  0.51100000000E-03 0. -1.
    9900012    2    1    2    0    0  0.21060239763E+02 -0.17882595806E+01 -0.39779163784E+02  0.46142318269E+02  0.10000004636E+02 0.  0.
        -12    1    1    2    0    0 -0.21060239763E+02  0.17882595806E+01  0.39779163784E+02  0.45045681731E+02  0.00000000000E+00 0.  1.
         11    1    3    3    0    0  0.95104295786E+01 -0.36076906670E+01 -0.13226827215E+02  0.16685702297E+02  0.51100000000E-03 0. -1.
        -11    1    3    3    0    0  0.57717307142E+01  0.13118690801E+01 -0.19200675329E+02  0.20092282331E+02  0.51100000000E-03 0.  1.
        -12    1    3    3    0    0  0.57780794697E+01  0.50756200628E+00 -0.73516612405E+01  0.93643336412E+01  0.00000000000E+00 0.  1.
</event>
<event>
 7    1  0.3910495E-008  0.4614232E+02  0.7816164E-02  0.1320468E+00
        -11   -1    0    0    0    0  0.00000000000E+00  0.00000000000E+00  0.45593999997E+02  0.45594000000E+02  0.51100000000E-03 0.  1.
         11   -1    0    0    0    0 -0.00000000000E+00 -0.00000000000E+00 -0.45593999997E+02  0.45594000000E+02  0.51100000000E-03 0. -1.
    9900012    2    1    2    0    0 -0.15716873361E+01 -0.10821080224E+02 -0.43698368402E+02  0.46142318972E+02  0.10000011045E+02 0.  0.
        -12    1    1    2    0    0  0.15716873361E+01  0.10821080224E+02  0.43698368402E+02  0.45045681028E+02  0.00000000000E+00 0.  1.
         11    1    3    3    0    0 -0.41907546966E+01 -0.42040045119E+01 -0.26215870500E+02  0.26879507905E+02  0.51100000000E-03 0. -1.
        -11    1    3    3    0    0  0.12993392209E+01 -0.52239243503E+01 -0.15863925271E+02  0.16752366796E+02  0.51100000000E-03 0.  1.
         12    1    3    3    0    0  0.13197281395E+01 -0.13931513614E+01 -0.16185726310E+01  0.25104442714E+01  0.00000000000E+00 0. -1.
</event>
<event>
 7    1  0.3910495E-008  0.4614232E+02  0.7816164E-02  0.1320468E+00
        -11   -1    0    0    0    0  0.00000000000E+00  0.00000000000E+00  0.45593999997E+02  0.45594000000E+02  0.51100000000E-03 0.  1.
         11   -1    0    0    0    0 -0.00000000000E+00 -0.00000000000E+00 -0.45593999997E+02  0.45594000000E+02  0.51100000000E-03 0. -1.
    9900012    2    1    2    0    0 -0.87924439377E+00  0.40716355820E+02 -0.19248866491E+02  0.46142316932E+02  0.99999924359E+01 0.  0.
        -12    1    1    2    0    0  0.87924439377E+00 -0.40716355820E+02  0.19248866491E+02  0.45045683068E+02  0.00000000000E+00 0.  1.
         11    1    3    3    0    0 -0.89024895344E+00  0.28788629257E+01 -0.45487005365E+01  0.54562873620E+01  0.51100000000E-03 0. -1.
        -11    1    3    3    0    0  0.25968885024E-01  0.30377359894E+01 -0.40567172582E+00  0.30648138825E+01  0.51100000000E-03 0.  1.
         12    1    3    3    0    0 -0.14964325354E-01  0.34799756904E+02 -0.14294494228E+02  0.37621215687E+02  0.00000000000E+00 0. -1.
</event>
<event>
 7    1  0.3910495E-008  0.4614232E+02  0.7816164E-02  0.1320468E+00
        -11   -1    0    0    0    0  0.00000000000E+00  0.00000000000E+00  0.45593999997E+02  0.45594000000E+02  0.51100000000E-03 0.  1.
         11   -1    0    0    0    0 -0.00000000000E+00 -0.00000000000E+00 -0.45593999997E+02  0.45594000000E+02  0.51100000000E-03 0. -1.
    9900012    2    1    2    0    0 -0.33076448998E+02 -0.29317272145E+02 -0.86925044261E+01  0.46142316994E+02  0.99999930004E+01 0.  0.
        -12    1    1    2    0    0  0.33076448998E+02  0.29317272145E+02  0.86925044261E+01  0.45045683006E+02  0.00000000000E+00 0.  1.
         11    1    3    3    0    0  0.41757589325E+00 -0.48016164724E-01 -0.88342326185E-02  0.42042060307E+00  0.51100000000E-03 0. -1.
        -11    1    3    3    0    0 -0.55089599429E+01 -0.76904442500E+01 -0.30341143313E+01  0.99346576414E+01  0.51100000000E-03 0.  1.
         12    1    3    3    0    0 -0.27985064948E+02 -0.21578811730E+02 -0.56495558621E+01  0.35787238749E+02  0.00000000000E+00 0. -1.
</event>
<event>
 7    1  0.3910495E-008  0.4614232E+02  0.7816164E-02  0.1320468E+00
        -11   -1    0    0    0    0  0.00000000000E+00  0.00000000000E+00  0.45593999997E+02  0.45594000000E+02  0.51100000000E-03 0.  1.
         11   -1    0    0    0    0 -0.00000000000E+00 -0.00000000000E+00 -0.45593999997E+02  0.45594000000E+02  0.51100000000E-03 0. -1.
    9900012    2    1    2    0    0 -0.14428503195E+02  0.42353172026E+02 -0.52096544704E+01  0.46142318910E+02  0.10000010476E+02 0.  0.
        -12    1    1    2    0    0  0.14428503195E+02 -0.42353172026E+02  0.52096544704E+01  0.45045681090E+02  0.00000000000E+00 0.  1.
         11    1    3    3    0    0 -0.26767948167E+00  0.12466516757E+01 -0.98690345743E+00  0.16123806625E+01  0.51100000000E-03 0. -1.
        -11    1    3    3    0    0 -0.13228867534E+02  0.41277767457E+02 -0.38675218268E+01  0.43517981891E+02  0.51100000000E-03 0.  1.
        -12    1    3    3    0    0 -0.93195618017E+00 -0.17124710678E+00 -0.35522918612E+00  0.10119563568E+01  0.00000000000E+00 0.  1.
</event>
<event>
 7    1  0.3910495E-008  0.4614232E+02  0.7816164E-02  0.1320468E+00
        -11   -1    0    0    0    0  0.00000000000E+00  0.00000000000E+00  0.45593999997E+02  0.45594000000E+02  0.51100000000E-03 0. -1.
         11   -1    0    0    0    0 -0.00000000000E+00 -0.00000000000E+00 -0.45593999997E+02  0.45594000000E+02  0.51100000000E-03 0.  1.
    9900012    2    1    2    0    0 -0.34518729564E+02  0.28197322727E+02  0.65178065299E+01  0.46142317614E+02  0.99999986568E+01 0.  0.
        -12    1    1    2    0    0  0.34518729564E+02 -0.28197322727E+02 -0.65178065299E+01  0.45045682386E+02  0.00000000000E+00 0.  1.
         11    1    3    3    0    0 -0.66338386415E+01  0.59779544851E+01  0.19372755595E+01  0.91376578948E+01  0.51100000000E-03 0. -1.
        -11    1    3    3    0    0 -0.21737289534E+02  0.14294797437E+02  0.64461902499E+01  0.26803066225E+02  0.51100000000E-03 0.  1.
         12    1    3    3    0    0 -0.61476013881E+01  0.79245708052E+01 -0.18656592795E+01  0.10201593494E+02  0.00000000000E+00 0. -1.
</event>
<event>
 7    1  0.3910495E-008  0.4614232E+02  0.7816164E-02  0.1320468E+00
        -11   -1    0    0    0    0  0.00000000000E+00  0.00000000000E+00  0.45593999997E+02  0.45594000000E+02  0.51100000000E-03 0.  1.
         11   -1    0    0    0    0 -0.00000000000E+00 -0.00000000000E+00 -0.45593999997E+02  0.45594000000E+02  0.51100000000E-03 0. -1.
    9900012    2    1    2    0    0 -0.47908473514E+01 -0.28025386885E+02 -0.34939073637E+02  0.46142318798E+02  0.10000009451E+02 0.  0.
        -12    1    1    2    0    0  0.47908473514E+01  0.28025386885E+02  0.34939073637E+02  0.45045681202E+02  0.00000000000E+00 0.  1.
         11    1    3    3    0    0  0.44318528558E+00 -0.87864730377E+01 -0.14148893316E+02  0.16661023497E+02  0.51100000000E-03 0. -1.
        -11    1    3    3    0    0 -0.26940907669E+01 -0.10903186824E+02 -0.72116903006E+01  0.13347137717E+02  0.51100000000E-03 0.  1.
         12    1    3    3    0    0 -0.25399418700E+01 -0.83357270239E+01 -0.13578490020E+02  0.16134157584E+02  0.00000000000E+00 0. -1.
</event>
<event>
 7    1  0.3910495E-008  0.4614231E+02  0.7816164E-02  0.1320468E+00
        -11   -1    0    0    0    0  0.00000000000E+00  0.00000000000E+00  0.45593999997E+02  0.45594000000E+02  0.51100000000E-03 0. -1.
         11   -1    0    0    0    0 -0.00000000000E+00 -0.00000000000E+00 -0.45593999997E+02  0.45594000000E+02  0.51100000000E-03 0.  1.
    9900012    2    1    2    0    0 -0.37936061544E+02 -0.23924499666E+02 -0.41937209580E+01  0.46142314910E+02  0.99999740031E+01 0.  0.
        -12    1    1    2    0    0  0.37936061544E+02  0.23924499666E+02  0.41937209580E+01  0.45045685090E+02  0.00000000000E+00 0.  1.
         11    1    3    3    0    0 -0.80276057855E+00  0.51229013953E+00 -0.80996137520E+00  0.12501613592E+01  0.51100000000E-03 0. -1.
        -11    1    3    3    0    0 -0.13038449799E+02 -0.56581779093E+01 -0.83601028546E+00  0.14237804039E+02  0.51100000000E-03 0.  1.
         12    1    3    3    0    0 -0.24094851167E+02 -0.18778611896E+02 -0.25477492973E+01  0.30654349512E+02  0.00000000000E+00 0. -1.
</event>
<event>
 7    1  0.3910495E-008  0.4614232E+02  0.7816164E-02  0.1320468E+00
        -11   -1    0    0    0    0  0.00000000000E+00  0.00000000000E+00  0.45593999997E+02  0.45594000000E+02  0.51100000000E-03 0.  1.
         11   -1    0    0    0    0 -0.00000000000E+00 -0.00000000000E+00 -0.45593999997E+02  0.45594000000E+02  0.51100000000E-03 0. -1.
    9900012    2    1    2    0    0 -0.11567206305E+02  0.20426989965E+02 -0.38445431292E+02  0.46142319097E+02  0.10000012184E+02 0.  0.
        -12    1    1    2    0    0  0.11567206305E+02 -0.20426989965E+02  0.38445431292E+02  0.45045680903E+02  0.00000000000E+00 0.  1.
         11    1    3    3    0    0 -0.44515245372E+01  0.87282824339E+01 -0.17111075383E+02  0.19717704886E+02  0.51100000000E-03 0. -1.
        -11    1    3    3    0    0 -0.31602939134E+01 -0.16160372403E-01 -0.53840233842E+01  0.62430302610E+01  0.51100000000E-03 0.  1.
        -12    1    3    3    0    0 -0.39553878546E+01  0.11714867904E+02 -0.15950332525E+02  0.20181583950E+02  0.00000000000E+00 0.  1.
</event>
<event>
 7    1  0.3910495E-008  0.4614232E+02  0.7816164E-02  0.1320468E+00
        -11   -1    0    0    0    0  0.00000000000E+00  0.00000000000E+00  0.45593999997E+02  0.45594000000E+02  0.51100000000E-03 0.  1.
         11   -1    0    0    0    0 -0.00000000000E+00 -0.00000000000E+00 -0.45593999997E+02  0.45594000000E+02  0.51100000000E-03 0. -1.
    9900012    2    1    2    0    0  0.45042746407E+02  0.51340673908E+00 -0.29130329918E-01  0.46142318310E+02  0.10000005001E+02 0.  0.
        -12    1    1    2    0    0 -0.45042746407E+02 -0.51340673908E+00  0.29130329918E-01  0.45045681690E+02  0.00000000000E+00 0.  1.
         11    1    3    3    0    0  0.16842598848E+02 -0.12184098856E+00  0.30833877035E+01  0.17122945459E+02  0.51100000000E-03 0. -1.
        -11    1    3    3    0    0  0.15141228424E+02 -0.22562403065E+01 -0.98254937618E-01  0.15308725381E+02  0.51100000000E-03 0.  1.
        -12    1    3    3    0    0  0.13058919135E+02  0.28914880341E+01 -0.30142630958E+01  0.13710647469E+02  0.00000000000E+00 0.  1.
</event>
<event>
 7    1  0.3910495E-008  0.4614232E+02  0.7816164E-02  0.1320468E+00
        -11   -1    0    0    0    0  0.00000000000E+00  0.00000000000E+00  0.45593999997E+02  0.45594000000E+02  0.51100000000E-03 0.  1.
         11   -1    0    0    0    0 -0.00000000000E+00 -0.00000000000E+00 -0.45593999997E+02  0.45594000000E+02  0.51100000000E-03 0. -1.
    9900012    2    1    2    0    0 -0.39793784066E+02  0.12932927864E+02 -0.16682556315E+02  0.46142316981E+02  0.99999928854E+01 0.  0.
        -12    1    1    2    0    0  0.39793784066E+02 -0.12932927864E+02  0.16682556315E+02  0.45045683019E+02  0.00000000000E+00 0.  1.
         11    1    3    3    0    0 -0.18896438245E+02  0.52303183442E+01 -0.32987350209E+01  0.19882486297E+02  0.51100000000E-03 0. -1.
        -11    1    3    3    0    0 -0.34904430993E+01  0.28234614036E+01 -0.21691347997E+01  0.49860077585E+01  0.51100000000E-03 0.  1.
         12    1    3    3    0    0 -0.17406902722E+02  0.48791481162E+01 -0.11214686495E+02  0.21273822926E+02  0.00000000000E+00 0. -1.
</event>
<event>
 7    1  0.3910495E-008  0.4614232E+02  0.7816164E-02  0.1320468E+00
        -11   -1    0    0    0    0  0.00000000000E+00  0.00000000000E+00  0.45593999997E+02  0.45594000000E+02  0.51100000000E-03 0.  1.
         11   -1    0    0    0    0 -0.00000000000E+00 -0.00000000000E+00 -0.45593999997E+02  0.45594000000E+02  0.51100000000E-03 0. -1.
    9900012    2    1    2    0    0 -0.97500178579E+01 -0.47923785315E+01 -0.43715944610E+02  0.46142317039E+02  0.99999934176E+01 0.  0.
        -12    1    1    2    0    0  0.97500178579E+01  0.47923785315E+01  0.43715944610E+02  0.45045682961E+02  0.00000000000E+00 0.  1.
         11    1    3    3    0    0 -0.56230551603E+01 -0.32985454988E+00 -0.25777916225E+02  0.26386142548E+02  0.51100000000E-03 0. -1.
        -11    1    3    3    0    0 -0.32078191443E+01  0.36960698017E+00 -0.54557849123E+01  0.63397399200E+01  0.51100000000E-03 0.  1.
        -12    1    3    3    0    0 -0.91914355328E+00 -0.48321309618E+01 -0.12482243473E+02  0.13416434572E+02  0.00000000000E+00 0.  1.
</event>
<event>
 7    1  0.3910495E-008  0.4614231E+02  0.7816164E-02  0.1320468E+00
        -11   -1    0    0    0    0  0.00000000000E+00  0.00000000000E+00  0.45593999997E+02  0.45594000000E+02  0.51100000000E-03 0.  1.
         11   -1    0    0    0    0 -0.00000000000E+00 -0.00000000000E+00 -0.45593999997E+02  0.45594000000E+02  0.51100000000E-03 0. -1.
    9900012    2    1    2    0    0  0.12507467502E+02  0.19218019665E+02 -0.38772991384E+02  0.46142313369E+02  0.99999599532E+01 0.  0.
        -12    1    1    2    0    0 -0.12507467502E+02 -0.19218019665E+02  0.38772991384E+02  0.45045686631E+02  0.00000000000E+00 0.  1.
         11    1    3    3    0    0  0.29439369627E+01  0.24010472121E+01 -0.39744328559E+01  0.54979913916E+01  0.51100000000E-03 0. -1.
        -11    1    3    3    0    0  0.62944694794E+01  0.39849387280E+01 -0.16008392665E+02  0.17656973655E+02  0.51100000000E-03 0.  1.
        -12    1    3    3    0    0  0.32690610595E+01  0.12832033725E+02 -0.18790165864E+02  0.22987348323E+02  0.00000000000E+00 0.  1.
</event>
<event>
 7    1  0.3910495E-008  0.4614232E+02  0.7816164E-02  0.1320468E+00
        -11   -1    0    0    0    0  0.00000000000E+00  0.00000000000E+00  0.45593999997E+02  0.45594000000E+02  0.51100000000E-03 0.  1.
         11   -1    0    0    0    0 -0.00000000000E+00 -0.00000000000E+00 -0.45593999997E+02  0.45594000000E+02  0.51100000000E-03 0. -1.
    9900012    2    1    2    0    0 -0.41347573687E+02 -0.16795912951E+02 -0.61146446159E+01  0.46142318516E+02  0.10000006880E+02 0.  0.
        -12    1    1    2    0    0  0.41347573687E+02  0.16795912951E+02  0.61146446159E+01  0.45045681484E+02  0.00000000000E+00 0.  1.
         11    1    3    3    0    0 -0.38752363832E+02 -0.16671211007E+02 -0.74804020661E+01  0.42844269096E+02  0.51100000000E-03 0. -1.
        -11    1    3    3    0    0 -0.14449082063E+01 -0.64137476405E+00  0.12800667465E+01  0.20341318662E+01  0.51100000000E-03 0.  1.
        -12    1    3    3    0    0 -0.11503016478E+01  0.51667282062E+00  0.85690703725E-01  0.12639175532E+01  0.00000000000E+00 0.  1.
</event>
<event>
 7    1  0.3910495E-008  0.4614231E+02  0.7816164E-02  0.1320468E+00
        -11   -1    0    0    0    0  0.00000000000E+00  0.00000000000E+00  0.45593999997E+02  0.45594000000E+02  0.51100000000E-03 0. -1.
         11   -1    0    0    0    0 -0.00000000000E+00 -0.00000000000E+00 -0.45593999997E+02  0.45594000000E+02  0.51100000000E-03 0.  1.
    9900012    2    1    2    0    0  0.40566802588E+02  0.67435799572E+01  0.18384026322E+02  0.46142314672E+02  0.99999718336E+01 0.  0.
        -12    1    1    2    0    0 -0.40566802588E+02 -0.67435799572E+01 -0.18384026322E+02  0.45045685328E+02  0.00000000000E+00 0.  1.
         11    1    3    3    0    0  0.79681122230E+01  0.31990962494E+01  0.77252523561E+01  0.11550088893E+02  0.51100000000E-03 0. -1.
        -11    1    3    3    0    0  0.27853124503E+02  0.22766067849E+01  0.97421135525E+01  0.29595409437E+02  0.51100000000E-03 0.  1.
         12    1    3    3    0    0  0.47455658620E+01  0.12678769229E+01  0.91666041314E+00  0.49968163420E+01  0.00000000000E+00 0. -1.
</event>
<event>
 7    1  0.3910495E-008  0.4614232E+02  0.7816164E-02  0.1320468E+00
        -11   -1    0    0    0    0  0.00000000000E+00  0.00000000000E+00  0.45593999997E+02  0.45594000000E+02  0.51100000000E-03 0. -1.
         11   -1    0    0    0    0 -0.00000000000E+00 -0.00000000000E+00 -0.45593999997E+02  0.45594000000E+02  0.51100000000E-03 0.  1.
    9900012    2    1    2    0    0  0.49403361606E+01  0.24061864095E+01  0.44709248126E+02  0.46142317383E+02  0.99999965499E+01 0.  0.
        -12    1    1    2    0    0 -0.49403361606E+01 -0.24061864095E+01 -0.44709248126E+02  0.45045682617E+02  0.00000000000E+00 0.  1.
         11    1    3    3    0    0  0.12053190893E+00  0.21645219352E+01  0.61001896293E+01  0.64739475533E+01  0.51100000000E-03 0. -1.
        -11    1    3    3    0    0  0.24475811598E+01 -0.28820633789E+01  0.84765170418E+01  0.92816100045E+01  0.51100000000E-03 0.  1.
        -12    1    3    3    0    0  0.23722230919E+01  0.31237278531E+01  0.30132541455E+02  0.30386759825E+02  0.00000000000E+00 0.  1.
</event>
<event>
 7    1  0.3910495E-008  0.4614232E+02  0.7816164E-02  0.1320468E+00
        -11   -1    0    0    0    0  0.00000000000E+00  0.00000000000E+00  0.45593999997E+02  0.45594000000E+02  0.51100000000E-03 0. -1.
         11   -1    0    0    0    0 -0.00000000000E+00 -0.00000000000E+00 -0.45593999997E+02  0.45594000000E+02  0.51100000000E-03 0.  1.
    9900012    2    1    2    0    0 -0.39846126242E+02  0.87109577694E+01  0.19118548744E+02  0.46142317989E+02  0.10000002078E+02 0.  0.
        -12    1    1    2    0    0  0.39846126242E+02 -0.87109577694E+01 -0.19118548744E+02  0.45045682011E+02  0.00000000000E+00 0.  1.
         11    1    3    3    0    0 -0.25642600390E+02  0.44177431624E+01  0.13750396914E+02  0.29430134640E+02  0.51100000000E-03 0. -1.
        -11    1    3    3    0    0 -0.51620852397E+01  0.14421183140E+01  0.48326744422E+01  0.72167563198E+01  0.51100000000E-03 0.  1.
        -12    1    3    3    0    0 -0.90414406128E+01  0.28510962930E+01  0.53547738749E+00  0.94954270288E+01  0.00000000000E+00 0.  1.
</event>
<event>
 7    1  0.3910495E-008  0.4614232E+02  0.7816164E-02  0.1320468E+00
        -11   -1    0    0    0    0  0.00000000000E+00  0.00000000000E+00  0.45593999997E+02  0.45594000000E+02  0.51100000000E-03 0.  1.
         11   -1    0    0    0    0 -0.00000000000E+00 -0.00000000000E+00 -0.45593999997E+02  0.45594000000E+02  0.51100000000E-03 0. -1.
    9900012    2    1    2    0    0  0.38637300729E+02 -0.22325292903E+02  0.61525415299E+01  0.46142317875E+02  0.10000001040E+02 0.  0.
        -12    1    1    2    0    0 -0.38637300729E+02  0.22325292903E+02 -0.61525415299E+01  0.45045682125E+02  0.00000000000E+00 0.  1.
         11    1    3    3    0    0  0.85265977952E+01 -0.66281943553E+01  0.30583706145E+01  0.11224502726E+02  0.51100000000E-03 0. -1.
        -11    1    3    3    0    0  0.64523400595E+01 -0.71312753357E+01  0.10268138293E+01  0.96717178959E+01  0.51100000000E-03 0.  1.
         12    1    3    3    0    0  0.23658362874E+02 -0.85658232116E+01  0.20673570861E+01  0.25246097253E+02  0.00000000000E+00 0. -1.
</event>
<event>
 7    1  0.3910495E-008  0.4614232E+02  0.7816164E-02  0.1320468E+00
        -11   -1    0    0    0    0  0.00000000000E+00  0.00000000000E+00  0.45593999997E+02  0.45594000000E+02  0.51100000000E-03 0. -1.
         11   -1    0    0    0    0 -0.00000000000E+00 -0.00000000000E+00 -0.45593999997E+02  0.45594000000E+02  0.51100000000E-03 0.  1.
    9900012    2    1    2    0    0  0.25914413337E+02  0.34188461386E+02  0.13737022825E+02  0.46142317558E+02  0.99999981461E+01 0.  0.
        -12    1    1    2    0    0 -0.25914413337E+02 -0.34188461386E+02 -0.13737022825E+02  0.45045682442E+02  0.00000000000E+00 0.  1.
         11    1    3    3    0    0  0.50007705264E+01  0.85597982779E+01  0.21125624465E+01  0.10136112310E+02  0.51100000000E-03 0. -1.
        -11    1    3    3    0    0  0.11949459066E+02  0.11904160234E+02  0.98126215111E+01  0.19513742441E+02  0.51100000000E-03 0.  1.
        -12    1    3    3    0    0  0.89641837445E+01  0.13724502874E+02  0.18118388678E+01  0.16492462807E+02  0.00000000000E+00 0.  1.
</event>
<event>
 7    1  0.3910495E-008  0.4614232E+02  0.7816164E-02  0.1320468E+00
        -11   -1    0    0    0    0  0.00000000000E+00  0.00000000000E+00  0.45593999997E+02  0.45594000000E+02  0.51100000000E-03 0.  1.
         11   -1    0    0    0    0 -0.00000000000E+00 -0.00000000000E+00 -0.45593999997E+02  0.45594000000E+02  0.51100000000E-03 0. -1.
    9900012    2    1    2    0    0  0.97944225230E+01  0.15903890377E+02 -0.40990839780E+02  0.46142318881E+02  0.10000010208E+02 0.  0.
        -12    1    1    2    0    0 -0.97944225230E+01 -0.15903890377E+02  0.40990839780E+02  0.45045681119E+02  0.00000000000E+00 0.  1.
         11    1    3    3    0    0  0.11997917083E+01 -0.19395303972E+00 -0.21499585900E+01  0.24697044610E+01  0.51100000000E-03 0. -1.
        -11    1    3    3    0    0  0.16288077988E+01 -0.89268310900E-01 -0.95853802686E+00  0.18920304138E+01  0.51100000000E-03 0.  1.
         12    1    3    3    0    0  0.69658230159E+01  0.16187111727E+02 -0.37882343163E+02  0.41780584006E+02  0.00000000000E+00 0. -1.
</event>
<event>
 7    1  0.3910495E-008  0.4614232E+02  0.7816164E-02  0.1320468E+00
        -11   -1    0    0    0    0  0.00000000000E+00  0.00000000000E+00  0.45593999997E+02  0.45594000000E+02  0.51100000000E-03 0.  1.
         11   -1    0    0    0    0 -0.00000000000E+00 -0.00000000000E+00 -0.45593999997E+02  0.45594000000E+02  0.51100000000E-03 0. -1.
    9900012    2    1    2    0    0  0.12448400495E+02  0.26359537825E+02 -0.34341308736E+02  0.46142318798E+02  0.10000009455E+02 0.  0.
        -12    1    1    2    0    0 -0.12448400495E+02 -0.26359537825E+02  0.34341308736E+02  0.45045681202E+02  0.00000000000E+00 0.  1.
         11    1    3    3    0    0  0.59546518515E+01  0.15885921480E+02 -0.18304689830E+02  0.24957605053E+02  0.51100000000E-03 0. -1.
        -11    1    3    3    0    0 -0.53017900658E+00  0.47333604992E+01 -0.51711876315E+01  0.70304319338E+01  0.51100000000E-03 0.  1.
         12    1    3    3    0    0  0.70239276501E+01  0.57402558461E+01 -0.10865431275E+02  0.14154281812E+02  0.00000000000E+00 0. -1.
</event>
<event>
 7    1  0.3910495E-008  0.4614232E+02  0.7816164E-02  0.1320468E+00
        -11   -1    0    0    0    0  0.00000000000E+00  0.00000000000E+00  0.45593999997E+02  0.45594000000E+02  0.51100000000E-03 0.  1.
         11   -1    0    0    0    0 -0.00000000000E+00 -0.00000000000E+00 -0.45593999997E+02  0.45594000000E+02  0.51100000000E-03 0. -1.
    9900012    2    1    2    0    0 -0.43069971169E+02  0.11308948021E+02  0.67969662484E+01  0.46142317942E+02  0.10000001651E+02 0.  0.
        -12    1    1    2    0    0  0.43069971169E+02 -0.11308948021E+02 -0.67969662484E+01  0.45045682058E+02  0.00000000000E+00 0.  1.
         11    1    3    3    0    0 -0.16480583281E+02  0.33945629259E+01  0.22000862304E+01  0.16969769074E+02  0.51100000000E-03 0. -1.
        -11    1    3    3    0    0 -0.15310668881E+02  0.68050648165E+01  0.59031716509E+01  0.17764372337E+02  0.51100000000E-03 0.  1.
        -12    1    3    3    0    0 -0.11278719007E+02  0.11093202784E+01 -0.13062916328E+01  0.11408176531E+02  0.00000000000E+00 0.  1.
</event>
<event>
 7    1  0.3910495E-008  0.4614232E+02  0.7816164E-02  0.1320468E+00
        -11   -1    0    0    0    0  0.00000000000E+00  0.00000000000E+00  0.45593999997E+02  0.45594000000E+02  0.51100000000E-03 0.  1.
         11   -1    0    0    0    0 -0.00000000000E+00 -0.00000000000E+00 -0.45593999997E+02  0.45594000000E+02  0.51100000000E-03 0. -1.
    9900012    2    1    2    0    0  0.19561782273E+01  0.33652267046E+02 -0.29879954583E+02  0.46142318781E+02  0.10000009300E+02 0.  0.
        -12    1    1    2    0    0 -0.19561782273E+01 -0.33652267046E+02  0.29879954583E+02  0.45045681219E+02  0.00000000000E+00 0.  1.
         11    1    3    3    0    0 -0.50956990270E+00  0.76558921393E+00 -0.31613511150E+00  0.97248650380E+00  0.51100000000E-03 0. -1.
        -11    1    3    3    0    0  0.45268620246E+01  0.81140653043E+01 -0.82276276827E+01  0.12410656433E+02  0.51100000000E-03 0.  1.
         12    1    3    3    0    0 -0.20611138946E+01  0.24772612527E+02 -0.21336191789E+02  0.32759175844E+02  0.00000000000E+00 0. -1.
</event>
<event>
 7    1  0.3910495E-008  0.4614232E+02  0.7816164E-02  0.1320468E+00
        -11   -1    0    0    0    0  0.00000000000E+00  0.00000000000E+00  0.45593999997E+02  0.45594000000E+02  0.51100000000E-03 0.  1.
         11   -1    0    0    0    0 -0.00000000000E+00 -0.00000000000E+00 -0.45593999997E+02  0.45594000000E+02  0.51100000000E-03 0. -1.
    9900012    2    1    2    0    0 -0.45013155705E+02  0.13058700742E+00 -0.17064994521E+01  0.46142318966E+02  0.10000010984E+02 0.  0.
        -12    1    1    2    0    0  0.45013155705E+02 -0.13058700742E+00  0.17064994521E+01  0.45045681034E+02  0.00000000000E+00 0.  1.
         11    1    3    3    0    0 -0.14747133017E+02  0.77215345497E+00  0.12774208556E+01  0.14822481489E+02  0.51100000000E-03 0. -1.
        -11    1    3    3    0    0 -0.53016020045E+01 -0.23780513806E+01  0.12393767033E+01  0.59412260567E+01  0.51100000000E-03 0.  1.
         12    1    3    3    0    0 -0.24964420683E+02  0.17364849330E+01 -0.42232970110E+01  0.25378611420E+02  0.00000000000E+00 0. -1.
</event>
<event>
 7    1  0.3910495E-008  0.4614232E+02  0.7816164E-02  0.1320468E+00
        -11   -1    0    0    0    0  0.00000000000E+00  0.00000000000E+00  0.45593999997E+02  0.45594000000E+02  0.51100000000E-03 0.  1.
         11   -1    0    0    0    0 -0.00000000000E+00 -0.00000000000E+00 -0.45593999997E+02  0.45594000000E+02  0.51100000000E-03 0. -1.
    9900012    2    1    2    0    0 -0.28662700931E+02  0.31919482102E+02  0.13737166165E+02  0.46142317670E+02  0.99999991725E+01 0.  0.
        -12    1    1    2    0    0  0.28662700931E+02 -0.31919482102E+02 -0.13737166165E+02  0.45045682330E+02  0.00000000000E+00 0.  1.
         11    1    3    3    0    0 -0.16779831587E+02  0.18766419258E+02  0.50573731846E+01  0.25677193454E+02  0.51100000000E-03 0. -1.
        -11    1    3    3    0    0 -0.81053356046E+01  0.49523275626E+01  0.41936944981E+01  0.10383115494E+02  0.51100000000E-03 0.  1.
         12    1    3    3    0    0 -0.37775337391E+01  0.82007352812E+01  0.44860984820E+01  0.10082008723E+02  0.00000000000E+00 0. -1.
</event>
<event>
 7    1  0.3910495E-008  0.4614232E+02  0.7816164E-02  0.1320468E+00
        -11   -1    0    0    0    0  0.00000000000E+00  0.00000000000E+00  0.45593999997E+02  0.45594000000E+02  0.51100000000E-03 0.  1.
         11   -1    0    0    0    0 -0.00000000000E+00 -0.00000000000E+00 -0.45593999997E+02  0.45594000000E+02  0.51100000000E-03 0. -1.
    9900012    2    1    2    0    0 -0.40847670460E+02 -0.10206584807E+02 -0.16012708715E+02  0.46142318789E+02  0.10000009371E+02 0.  0.
        -12    1    1    2    0    0  0.40847670460E+02  0.10206584807E+02  0.16012708715E+02  0.45045681211E+02  0.00000000000E+00 0.  1.
         11    1    3    3    0    0 -0.30744097287E+02 -0.89621536496E+01 -0.12598409197E+02  0.34412782953E+02  0.51100000000E-03 0. -1.
        -11    1    3    3    0    0 -0.62843400288E+01 -0.84971966992E+00 -0.44567386835E+01  0.77509659443E+01  0.51100000000E-03 0.  1.
         12    1    3    3    0    0 -0.38192331440E+01 -0.39471148744E+00  0.10424391658E+01  0.39785698915E+01  0.00000000000E+00 0. -1.
</event>
<event>
 7    1  0.3910495E-008  0.4614232E+02  0.7816164E-02  0.1320468E+00
        -11   -1    0    0    0    0  0.00000000000E+00  0.00000000000E+00  0.45593999997E+02  0.45594000000E+02  0.51100000000E-03 0.  1.
         11   -1    0    0    0    0 -0.00000000000E+00 -0.00000000000E+00 -0.45593999997E+02  0.45594000000E+02  0.51100000000E-03 0. -1.
    9900012    2    1    2    0    0 -0.14676540834E+01  0.67448546193E+01 -0.44513665555E+02  0.46142317704E+02  0.99999994830E+01 0.  0.
        -12    1    1    2    0    0  0.14676540834E+01 -0.67448546193E+01  0.44513665555E+02  0.45045682296E+02  0.00000000000E+00 0.  1.
         11    1    3    3    0    0  0.58251743715E+00  0.25163714842E+01 -0.13062398814E+02  0.13315318811E+02  0.51100000000E-03 0. -1.
        -11    1    3    3    0    0 -0.46911421843E+00  0.26052943482E+01 -0.20751256345E+01  0.33635953161E+01  0.51100000000E-03 0.  1.
        -12    1    3    3    0    0 -0.15810573021E+01  0.16231887868E+01 -0.29376141107E+02  0.29463403577E+02  0.00000000000E+00 0.  1.
</event>
<event>
 7    1  0.3910495E-008  0.4614232E+02  0.7816164E-02  0.1320468E+00
        -11   -1    0    0    0    0  0.00000000000E+00  0.00000000000E+00  0.45593999997E+02  0.45594000000E+02  0.51100000000E-03 0.  1.
         11   -1    0    0    0    0 -0.00000000000E+00 -0.00000000000E+00 -0.45593999997E+02  0.45594000000E+02  0.51100000000E-03 0. -1.
    9900012    2    1    2    0    0 -0.89281528563E+01 -0.19957021486E+02 -0.39384246341E+02  0.46142317856E+02  0.10000000865E+02 0.  0.
        -12    1    1    2    0    0  0.89281528563E+01  0.19957021486E+02  0.39384246341E+02  0.45045682144E+02  0.00000000000E+00 0.  1.
         11    1    3    3    0    0 -0.36878915144E+00 -0.41963421136E+01 -0.16357207221E+02  0.16890930137E+02  0.51100000000E-03 0. -1.
        -11    1    3    3    0    0 -0.26241186838E+01 -0.56215664239E+01 -0.93519558997E+01  0.11222614995E+02  0.51100000000E-03 0.  1.
         12    1    3    3    0    0 -0.59352450211E+01 -0.10139112948E+02 -0.13675083220E+02  0.18028772723E+02  0.00000000000E+00 0. -1.
</event>
<event>
 7    1  0.3910495E-008  0.4614232E+02  0.7816164E-02  0.1320468E+00
        -11   -1    0    0    0    0  0.00000000000E+00  0.00000000000E+00  0.45593999997E+02  0.45594000000E+02  0.51100000000E-03 0.  1.
         11   -1    0    0    0    0 -0.00000000000E+00 -0.00000000000E+00 -0.45593999997E+02  0.45594000000E+02  0.51100000000E-03 0. -1.
    9900012    2    1    2    0    0 -0.34050065293E+01 -0.21975294017E+02 -0.39174046324E+02  0.46142317388E+02  0.99999965954E+01 0.  0.
        -12    1    1    2    0    0  0.34050065293E+01  0.21975294017E+02  0.39174046324E+02  0.45045682612E+02  0.00000000000E+00 0.  1.
         11    1    3    3    0    0 -0.18283570992E+01 -0.51081963765E+01 -0.57742984711E+01  0.79233252487E+01  0.51100000000E-03 0. -1.
        -11    1    3    3    0    0 -0.33164357072E+01 -0.35500049737E+01 -0.61318063953E+01  0.78230640445E+01  0.51100000000E-03 0.  1.
         12    1    3    3    0    0  0.17397862770E+01 -0.13317092667E+02 -0.27267941458E+02  0.30395928095E+02  0.00000000000E+00 0. -1.
</event>
<event>
 7    1  0.3910495E-008  0.4614232E+02  0.7816164E-02  0.1320468E+00
        -11   -1    0    0    0    0  0.00000000000E+00  0.00000000000E+00  0.45593999997E+02  0.45594000000E+02  0.51100000000E-03 0.  1.
         11   -1    0    0    0    0 -0.00000000000E+00 -0.00000000000E+00 -0.45593999997E+02  0.45594000000E+02  0.51100000000E-03 0. -1.
    9900012    2    1    2    0    0  0.19724049345E+02  0.84371707228E+01 -0.39609209729E+02  0.46142317990E+02  0.10000002087E+02 0.  0.
        -12    1    1    2    0    0 -0.19724049345E+02 -0.84371707228E+01  0.39609209729E+02  0.45045682010E+02  0.00000000000E+00 0.  1.
         11    1    3    3    0    0  0.11840875186E+02  0.74103320156E+01 -0.21405558772E+02  0.25560072229E+02  0.51100000000E-03 0. -1.
        -11    1    3    3    0    0  0.45394358043E+01 -0.30912605548E-01 -0.15508411590E+02  0.16159154165E+02  0.51100000000E-03 0.  1.
        -12    1    3    3    0    0  0.33437383541E+01  0.10577513127E+01 -0.26952393679E+01  0.44230915964E+01  0.00000000000E+00 0.  1.
</event>
<event>
 7    1  0.3910495E-008  0.4614232E+02  0.7816164E-02  0.1320468E+00
        -11   -1    0    0    0    0  0.00000000000E+00  0.00000000000E+00  0.45593999997E+02  0.45594000000E+02  0.51100000000E-03 0.  1.
         11   -1    0    0    0    0 -0.00000000000E+00 -0.00000000000E+00 -0.45593999997E+02  0.45594000000E+02  0.51100000000E-03 0. -1.
    9900012    2    1    2    0    0  0.63241740722E+01 -0.43214519854E+02  0.11028313573E+02  0.46142316476E+02  0.99999882806E+01 0.  0.
        -12    1    1    2    0    0 -0.63241740722E+01  0.43214519854E+02 -0.11028313573E+02  0.45045683524E+02  0.00000000000E+00 0.  1.
         11    1    3    3    0    0  0.17350401565E+01 -0.28126811217E+01  0.90058125376E+00  0.34252863082E+01  0.51100000000E-03 0. -1.
        -11    1    3    3    0    0  0.15963501190E+00 -0.59298245755E-01  0.11349781304E+01  0.11476825504E+01  0.51100000000E-03 0.  1.
         12    1    3    3    0    0  0.44294989038E+01 -0.40342540486E+02  0.89927541886E+01  0.41569347617E+02  0.00000000000E+00 0. -1.
</event>
<event>
 7    1  0.3910495E-008  0.4614232E+02  0.7816164E-02  0.1320468E+00
        -11   -1    0    0    0    0  0.00000000000E+00  0.00000000000E+00  0.45593999997E+02  0.45594000000E+02  0.51100000000E-03 0.  1.
         11   -1    0    0    0    0 -0.00000000000E+00 -0.00000000000E+00 -0.45593999997E+02  0.45594000000E+02  0.51100000000E-03 0. -1.
    9900012    2    1    2    0    0  0.31665193079E+02 -0.30496067526E+02  0.98193182486E+01  0.46142316542E+02  0.99999888858E+01 0.  0.
        -12    1    1    2    0    0 -0.31665193079E+02  0.30496067526E+02 -0.98193182486E+01  0.45045683458E+02  0.00000000000E+00 0.  1.
         11    1    3    3    0    0  0.50923278305E+01 -0.59878736705E+01 -0.62773732737E+00  0.78854605598E+01  0.51100000000E-03 0. -1.
        -11    1    3    3    0    0 -0.33908328153E+00 -0.10336068014E+01  0.22004797670E+00  0.11098386661E+01  0.51100000000E-03 0.  1.
        -12    1    3    3    0    0  0.26911948530E+02 -0.23474587054E+02  0.10227007599E+02  0.37147017316E+02  0.00000000000E+00 0.  1.
</event>
<event>
 7    1  0.3910495E-008  0.4614232E+02  0.7816164E-02  0.1320468E+00
        -11   -1    0    0    0    0  0.00000000000E+00  0.00000000000E+00  0.45593999997E+02  0.45594000000E+02  0.51100000000E-03 0. -1.
         11   -1    0    0    0    0 -0.00000000000E+00 -0.00000000000E+00 -0.45593999997E+02  0.45594000000E+02  0.51100000000E-03 0.  1.
    9900012    2    1    2    0    0  0.20726900042E+02 -0.98904692999E+01  0.38751617079E+02  0.46142316583E+02  0.99999892535E+01 0.  0.
        -12    1    1    2    0    0 -0.20726900042E+02  0.98904692999E+01 -0.38751617079E+02  0.45045683417E+02  0.00000000000E+00 0.  1.
         11    1    3    3    0    0  0.75769468821E+01 -0.30105465106E+01  0.12010403312E+02  0.14516311595E+02  0.51100000000E-03 0. -1.
        -11    1    3    3    0    0  0.44803972820E+01 -0.33347311282E+01  0.17880581200E+02  0.18732580597E+02  0.51100000000E-03 0.  1.
         12    1    3    3    0    0  0.86695558782E+01 -0.35451916611E+01  0.88606325660E+01  0.12893424390E+02  0.00000000000E+00 0. -1.
</event>
<event>
 7    1  0.3910495E-008  0.4614232E+02  0.7816164E-02  0.1320468E+00
        -11   -1    0    0    0    0  0.00000000000E+00  0.00000000000E+00  0.45593999997E+02  0.45594000000E+02  0.51100000000E-03 0.  1.
         11   -1    0    0    0    0 -0.00000000000E+00 -0.00000000000E+00 -0.45593999997E+02  0.45594000000E+02  0.51100000000E-03 0. -1.
    9900012    2    1    2    0    0  0.18906030442E+02  0.17767135919E+02 -0.36823963369E+02  0.46142318919E+02  0.10000010555E+02 0.  0.
        -12    1    1    2    0    0 -0.18906030442E+02 -0.17767135919E+02  0.36823963369E+02  0.45045681081E+02  0.00000000000E+00 0.  1.
         11    1    3    3    0    0 -0.21542026297E-01  0.16789527496E+01 -0.42724615487E+01  0.45905636191E+01  0.51100000000E-03 0. -1.
        -11    1    3    3    0    0  0.82326085703E+01  0.49887972722E+01 -0.17695218498E+02  0.20144098393E+02  0.51100000000E-03 0.  1.
         12    1    3    3    0    0  0.10694963898E+02  0.11099385897E+02 -0.14856283323E+02  0.21407656907E+02  0.00000000000E+00 0. -1.
</event>
<event>
 7    1  0.3910495E-008  0.4614232E+02  0.7816164E-02  0.1320468E+00
        -11   -1    0    0    0    0  0.00000000000E+00  0.00000000000E+00  0.45593999997E+02  0.45594000000E+02  0.51100000000E-03 0. -1.
         11   -1    0    0    0    0 -0.00000000000E+00 -0.00000000000E+00 -0.45593999997E+02  0.45594000000E+02  0.51100000000E-03 0.  1.
    9900012    2    1    2    0    0  0.19840935092E+02 -0.39432654560E+02 -0.89731041777E+01  0.46142317082E+02  0.99999938105E+01 0.  0.
        -12    1    1    2    0    0 -0.19840935092E+02  0.39432654560E+02  0.89731041777E+01  0.45045682918E+02  0.00000000000E+00 0.  1.
         11    1    3    3    0    0  0.18562020051E+01 -0.14360613499E+01  0.44335897309E-01  0.23472801318E+01  0.51100000000E-03 0. -1.
        -11    1    3    3    0    0  0.92200007974E+01 -0.20297788824E+02 -0.90082241429E+01  0.24044890275E+02  0.51100000000E-03 0.  1.
         12    1    3    3    0    0  0.87647322891E+01 -0.17698804386E+02 -0.92159321142E-02  0.19750146676E+02  0.00000000000E+00 0. -1.
</event>
<event>
 7    1  0.3910495E-008  0.4614232E+02  0.7816164E-02  0.1320468E+00
        -11   -1    0    0    0    0  0.00000000000E+00  0.00000000000E+00  0.45593999997E+02  0.45594000000E+02  0.51100000000E-03 0.  1.
         11   -1    0    0    0    0 -0.00000000000E+00 -0.00000000000E+00 -0.45593999997E+02  0.45594000000E+02  0.51100000000E-03 0. -1.
    9900012    2    1    2    0    0  0.34572557457E+02  0.18486135265E+02 -0.22183654593E+02  0.46142318106E+02  0.10000003149E+02 0.  0.
        -12    1    1    2    0    0 -0.34572557457E+02 -0.18486135265E+02  0.22183654593E+02  0.45045681894E+02  0.00000000000E+00 0.  1.
         11    1    3    3    0    0  0.24495143339E+01  0.38662183873E+01 -0.23076003011E+01  0.51256984403E+01  0.51100000000E-03 0. -1.
        -11    1    3    3    0    0  0.13014985417E+02  0.40531544446E+01 -0.46735646093E+01  0.14410416815E+02  0.51100000000E-03 0.  1.
         12    1    3    3    0    0  0.19108057706E+02  0.10566762433E+02 -0.15202489683E+02  0.26606202851E+02  0.00000000000E+00 0. -1.
</event>
<event>
 7    1  0.3910495E-008  0.4614232E+02  0.7816164E-02  0.1320468E+00
        -11   -1    0    0    0    0  0.00000000000E+00  0.00000000000E+00  0.45593999997E+02  0.45594000000E+02  0.51100000000E-03 0. -1.
         11   -1    0    0    0    0 -0.00000000000E+00 -0.00000000000E+00 -0.45593999997E+02  0.45594000000E+02  0.51100000000E-03 0.  1.
    9900012    2    1    2    0    0 -0.33846327195E+02  0.21147015406E+02  0.20888829607E+02  0.46142319547E+02  0.10000016281E+02 0.  0.
        -12    1    1    2    0    0  0.33846327195E+02 -0.21147015406E+02 -0.20888829607E+02  0.45045680453E+02  0.00000000000E+00 0.  1.
         11    1    3    3    0    0 -0.64587572172E+01  0.22083880522E+01  0.35352051217E+01  0.76870149013E+01  0.51100000000E-03 0. -1.
        -11    1    3    3    0    0 -0.11002578375E+02  0.29127607671E+01  0.63161748793E+01  0.13016718924E+02  0.51100000000E-03 0.  1.
         12    1    3    3    0    0 -0.16384991602E+02  0.16025866587E+02  0.11037449606E+02  0.25438585721E+02  0.00000000000E+00 0. -1.
</event>
<event>
 7    1  0.3910495E-008  0.4614232E+02  0.7816164E-02  0.1320468E+00
        -11   -1    0    0    0    0  0.00000000000E+00  0.00000000000E+00  0.45593999997E+02  0.45594000000E+02  0.51100000000E-03 0.  1.
         11   -1    0    0    0    0 -0.00000000000E+00 -0.00000000000E+00 -0.45593999997E+02  0.45594000000E+02  0.51100000000E-03 0. -1.
    9900012    2    1    2    0    0  0.32922411897E+02  0.17529047637E+02 -0.25257884887E+02  0.46142318019E+02  0.10000002354E+02 0.  0.
        -12    1    1    2    0    0 -0.32922411897E+02 -0.17529047637E+02  0.25257884887E+02  0.45045681981E+02  0.00000000000E+00 0.  1.
         11    1    3    3    0    0  0.28840891549E+02  0.14332686047E+02 -0.20988632156E+02  0.38441456719E+02  0.51100000000E-03 0. -1.
        -11    1    3    3    0    0  0.11979446476E+01 -0.82588427321E+00 -0.84456137345E+00  0.16823912702E+01  0.51100000000E-03 0.  1.
        -12    1    3    3    0    0  0.28835757000E+01  0.40222458637E+01 -0.34246913574E+01  0.60184700298E+01  0.00000000000E+00 0.  1.
</event>
<event>
 7    1  0.3910495E-008  0.4614232E+02  0.7816164E-02  0.1320468E+00
        -11   -1    0    0    0    0  0.00000000000E+00  0.00000000000E+00  0.45593999997E+02  0.45594000000E+02  0.51100000000E-03 0.  1.
         11   -1    0    0    0    0 -0.00000000000E+00 -0.00000000000E+00 -0.45593999997E+02  0.45594000000E+02  0.51100000000E-03 0. -1.
    9900012    2    1    2    0    0 -0.20878123919E+02  0.22412902892E+02 -0.33028460379E+02  0.46142317971E+02  0.10000001917E+02 0.  0.
        -12    1    1    2    0    0  0.20878123919E+02 -0.22412902892E+02  0.33028460379E+02  0.45045682029E+02  0.00000000000E+00 0.  1.
         11    1    3    3    0    0 -0.50251810837E+01  0.36927862259E+01 -0.10973898154E+02  0.12622026620E+02  0.51100000000E-03 0. -1.
        -11    1    3    3    0    0 -0.75783465271E+01  0.97964276158E+01 -0.15004426742E+02  0.19455954159E+02  0.51100000000E-03 0.  1.
        -12    1    3    3    0    0 -0.82745963084E+01  0.89236890506E+01 -0.70501354819E+01  0.14064337192E+02  0.00000000000E+00 0.  1.
</event>
<event>
 7    1  0.3910495E-008  0.4614232E+02  0.7816164E-02  0.1320468E+00
        -11   -1    0    0    0    0  0.00000000000E+00  0.00000000000E+00  0.45593999997E+02  0.45594000000E+02  0.51100000000E-03 0.  1.
         11   -1    0    0    0    0 -0.00000000000E+00 -0.00000000000E+00 -0.45593999997E+02  0.45594000000E+02  0.51100000000E-03 0. -1.
    9900012    2    1    2    0    0 -0.10891346289E+02  0.29885095513E+02 -0.31896277143E+02  0.46142324809E+02  0.10000064270E+02 0.  0.
        -12    1    1    2    0    0  0.10891346289E+02 -0.29885095513E+02  0.31896277143E+02  0.45045675191E+02  0.00000000000E+00 0.  1.
         11    1    3    3    0    0 -0.41702285816E+01  0.92974018045E+01 -0.12961735737E+02  0.16487543186E+02  0.51100000000E-03 0. -1.
        -11    1    3    3    0    0 -0.57638859351E+01  0.80355218977E+01 -0.10916152963E+02  0.14729371643E+02  0.51100000000E-03 0.  1.
        -12    1    3    3    0    0 -0.95723177260E+00  0.12552171811E+02 -0.80183884427E+01  0.14925409979E+02  0.00000000000E+00 0.  1.
</event>
<event>
 7    1  0.3910495E-008  0.4614232E+02  0.7816164E-02  0.1320468E+00
        -11   -1    0    0    0    0  0.00000000000E+00  0.00000000000E+00  0.45593999997E+02  0.45594000000E+02  0.51100000000E-03 0.  1.
         11   -1    0    0    0    0 -0.00000000000E+00 -0.00000000000E+00 -0.45593999997E+02  0.45594000000E+02  0.51100000000E-03 0. -1.
    9900012    2    1    2    0    0  0.15458173797E+02 -0.39614768645E+02 -0.14860300784E+02  0.46142316841E+02  0.99999916084E+01 0.  0.
        -12    1    1    2    0    0 -0.15458173797E+02  0.39614768645E+02  0.14860300784E+02  0.45045683159E+02  0.00000000000E+00 0.  1.
         11    1    3    3    0    0  0.20095676279E+01 -0.25762320983E+01 -0.11958357029E+00  0.32695006296E+01  0.51100000000E-03 0. -1.
        -11    1    3    3    0    0  0.49596287455E+01 -0.89311590199E+01 -0.46877734535E+00  0.10226596266E+02  0.51100000000E-03 0.  1.
         12    1    3    3    0    0  0.84889774232E+01 -0.28107377526E+02 -0.14271939868E+02  0.32646219945E+02  0.00000000000E+00 0. -1.
</event>
<event>
 7    1  0.3910495E-008  0.4614232E+02  0.7816164E-02  0.1320468E+00
        -11   -1    0    0    0    0  0.00000000000E+00  0.00000000000E+00  0.45593999997E+02  0.45594000000E+02  0.51100000000E-03 0.  1.
         11   -1    0    0    0    0 -0.00000000000E+00 -0.00000000000E+00 -0.45593999997E+02  0.45594000000E+02  0.51100000000E-03 0. -1.
    9900012    2    1    2    0    0  0.19559615019E+02 -0.37233477361E+02 -0.16130812478E+02  0.46142317773E+02  0.10000000109E+02 0.  0.
        -12    1    1    2    0    0 -0.19559615019E+02  0.37233477361E+02  0.16130812478E+02  0.45045682227E+02  0.00000000000E+00 0.  1.
         11    1    3    3    0    0  0.67686411647E+01 -0.77169669904E+01 -0.46761810917E+01  0.11279749670E+02  0.51100000000E-03 0. -1.
        -11    1    3    3    0    0  0.12673621250E+02 -0.21860549901E+02 -0.86481654433E+01  0.26707584753E+02  0.51100000000E-03 0.  1.
        -12    1    3    3    0    0  0.11735260433E+00 -0.76559604703E+01 -0.28064659427E+01  0.81549833504E+01  0.00000000000E+00 0.  1.
</event>
<event>
 7    1  0.3910495E-008  0.4614232E+02  0.7816164E-02  0.1320468E+00
        -11   -1    0    0    0    0  0.00000000000E+00  0.00000000000E+00  0.45593999997E+02  0.45594000000E+02  0.51100000000E-03 0.  1.
         11   -1    0    0    0    0 -0.00000000000E+00 -0.00000000000E+00 -0.45593999997E+02  0.45594000000E+02  0.51100000000E-03 0. -1.
    9900012    2    1    2    0    0  0.23657984183E+02 -0.17742841140E+02 -0.33979478601E+02  0.46142316597E+02  0.99999893812E+01 0.  0.
        -12    1    1    2    0    0 -0.23657984183E+02  0.17742841140E+02  0.33979478601E+02  0.45045683403E+02  0.00000000000E+00 0.  1.
         11    1    3    3    0    0  0.10539958322E+01 -0.19508111372E+01 -0.61396350234E+01  0.65277630004E+01  0.51100000000E-03 0. -1.
        -11    1    3    3    0    0  0.48569442722E+01 -0.75325809535E+00 -0.51568846590E+01  0.71239571215E+01  0.51100000000E-03 0.  1.
         12    1    3    3    0    0  0.17747044079E+02 -0.15038771907E+02 -0.22682958918E+02  0.32490596475E+02  0.00000000000E+00 0. -1.
</event>
<event>
 7    1  0.3910495E-008  0.4614232E+02  0.7816164E-02  0.1320468E+00
        -11   -1    0    0    0    0  0.00000000000E+00  0.00000000000E+00  0.45593999997E+02  0.45594000000E+02  0.51100000000E-03 0. -1.
         11   -1    0    0    0    0 -0.00000000000E+00 -0.00000000000E+00 -0.45593999997E+02  0.45594000000E+02  0.51100000000E-03 0.  1.
    9900012    2    1    2    0    0  0.27250113570E+02  0.15792079978E+01  0.35833656898E+02  0.46142317031E+02  0.99999933440E+01 0.  0.
        -12    1    1    2    0    0 -0.27250113570E+02 -0.15792079978E+01 -0.35833656898E+02  0.45045682969E+02  0.00000000000E+00 0.  1.
         11    1    3    3    0    0  0.90428473259E+01  0.21531248773E+01  0.75586686459E+01  0.11980922605E+02  0.51100000000E-03 0. -1.
        -11    1    3    3    0    0 -0.13583910750E+00  0.73386448379E+00  0.15536524383E+01  0.17236140820E+01  0.51100000000E-03 0.  1.
         12    1    3    3    0    0  0.18343105351E+02 -0.13077813633E+01  0.26721335813E+02  0.32437780345E+02  0.00000000000E+00 0. -1.
</event>
<event>
 7    1  0.3910495E-008  0.4614232E+02  0.7816164E-02  0.1320468E+00
        -11   -1    0    0    0    0  0.00000000000E+00  0.00000000000E+00  0.45593999997E+02  0.45594000000E+02  0.51100000000E-03 0.  1.
         11   -1    0    0    0    0 -0.00000000000E+00 -0.00000000000E+00 -0.45593999997E+02  0.45594000000E+02  0.51100000000E-03 0. -1.
    9900012    2    1    2    0    0 -0.61776626026E+01 -0.38396321477E+02 -0.22730434435E+02  0.46142315770E+02  0.99999818411E+01 0.  0.
        -12    1    1    2    0    0  0.61776626026E+01  0.38396321477E+02  0.22730434435E+02  0.45045684230E+02  0.00000000000E+00 0.  1.
         11    1    3    3    0    0 -0.16127935374E+01 -0.14205025838E+02 -0.92983457604E+01  0.17054122557E+02  0.51100000000E-03 0. -1.
        -11    1    3    3    0    0 -0.47465928509E+01 -0.21914316786E+02 -0.14355708326E+02  0.26624308173E+02  0.51100000000E-03 0.  1.
        -12    1    3    3    0    0  0.18172378568E+00 -0.22769788519E+01  0.92361965109E+00  0.24638850392E+01  0.00000000000E+00 0.  1.
</event>
<event>
 7    1  0.3910495E-008  0.4614232E+02  0.7816164E-02  0.1320468E+00
        -11   -1    0    0    0    0  0.00000000000E+00  0.00000000000E+00  0.45593999997E+02  0.45594000000E+02  0.51100000000E-03 0.  1.
         11   -1    0    0    0    0 -0.00000000000E+00 -0.00000000000E+00 -0.45593999997E+02  0.45594000000E+02  0.51100000000E-03 0. -1.
    9900012    2    1    2    0    0  0.32565406627E+02  0.31022994087E+02 -0.24862812636E+01  0.46142318016E+02  0.10000002322E+02 0.  0.
        -12    1    1    2    0    0 -0.32565406627E+02 -0.31022994087E+02  0.24862812636E+01  0.45045681984E+02  0.00000000000E+00 0.  1.
         11    1    3    3    0    0  0.68581857482E+01  0.79593224021E+01 -0.31433851263E+01  0.10966603630E+02  0.51100000000E-03 0. -1.
        -11    1    3    3    0    0  0.14691605459E+01  0.39266724331E+01 -0.76091814620E+00  0.42610076030E+01  0.51100000000E-03 0.  1.
        -12    1    3    3    0    0  0.24238060333E+02  0.19136999252E+02  0.14180220089E+01  0.30914706783E+02  0.00000000000E+00 0.  1.
</event>
<event>
 7    1  0.3910495E-008  0.4614232E+02  0.7816164E-02  0.1320468E+00
        -11   -1    0    0    0    0  0.00000000000E+00  0.00000000000E+00  0.45593999997E+02  0.45594000000E+02  0.51100000000E-03 0. -1.
         11   -1    0    0    0    0 -0.00000000000E+00 -0.00000000000E+00 -0.45593999997E+02  0.45594000000E+02  0.51100000000E-03 0.  1.
    9900012    2    1    2    0    0 -0.35094270305E+02  0.19454498266E+02  0.20470179204E+02  0.46142317103E+02  0.99999940013E+01 0.  0.
        -12    1    1    2    0    0  0.35094270305E+02 -0.19454498266E+02 -0.20470179204E+02  0.45045682897E+02  0.00000000000E+00 0.  1.
         11    1    3    3    0    0 -0.19010879953E+02  0.10818968845E+02  0.90442911801E+01  0.23669872130E+02  0.51100000000E-03 0. -1.
        -11    1    3    3    0    0 -0.15001477341E+02  0.89426006559E+01  0.12019250499E+02  0.21200868183E+02  0.51100000000E-03 0.  1.
        -12    1    3    3    0    0 -0.10819130110E+01 -0.30707123533E+00 -0.59336247455E+00  0.12715767901E+01  0.00000000000E+00 0.  1.
</event>
<event>
 7    1  0.3910495E-008  0.4614231E+02  0.7816164E-02  0.1320468E+00
        -11   -1    0    0    0    0  0.00000000000E+00  0.00000000000E+00  0.45593999997E+02  0.45594000000E+02  0.51100000000E-03 0.  1.
         11   -1    0    0    0    0 -0.00000000000E+00 -0.00000000000E+00 -0.45593999997E+02  0.45594000000E+02  0.51100000000E-03 0. -1.
    9900012    2    1    2    0    0  0.35086711205E+02 -0.22443316464E+02 -0.17156175799E+02  0.46142310693E+02  0.99999355497E+01 0.  0.
        -12    1    1    2    0    0 -0.35086711205E+02  0.22443316464E+02  0.17156175799E+02  0.45045689307E+02  0.00000000000E+00 0.  1.
         11    1    3    3    0    0  0.15789763941E+02 -0.59241244127E+01 -0.10285931575E+02  0.19753791636E+02  0.51100000000E-03 0. -1.
        -11    1    3    3    0    0 -0.36953661398E-01 -0.56628075832E-01  0.30735936644E-01  0.74278334563E-01  0.51100000000E-03 0.  1.
        -12    1    3    3    0    0  0.19333900925E+02 -0.16462563976E+02 -0.69009801600E+01  0.26314240722E+02  0.00000000000E+00 0.  1.
</event>
<event>
 7    1  0.3910495E-008  0.4614232E+02  0.7816164E-02  0.1320468E+00
        -11   -1    0    0    0    0  0.00000000000E+00  0.00000000000E+00  0.45593999997E+02  0.45594000000E+02  0.51100000000E-03 0. -1.
         11   -1    0    0    0    0 -0.00000000000E+00 -0.00000000000E+00 -0.45593999997E+02  0.45594000000E+02  0.51100000000E-03 0.  1.
    9900012    2    1    2    0    0  0.35190333717E+02 -0.22552299196E+02  0.16797253260E+02  0.46142317596E+02  0.99999984959E+01 0.  0.
        -12    1    1    2    0    0 -0.35190333717E+02  0.22552299196E+02 -0.16797253260E+02  0.45045682404E+02  0.00000000000E+00 0.  1.
         11    1    3    3    0    0  0.18194688617E+02 -0.14069177364E+02  0.52347245448E+01  0.23587937317E+02  0.51100000000E-03 0.  1.
        -11    1    3    3    0    0  0.59408077735E+01 -0.42213934898E+01  0.27541556943E+01  0.77909392147E+01  0.51100000000E-03 0. -1.
         12    1    3    3    0    0  0.11054837326E+02 -0.42617283428E+01  0.88083730209E+01  0.14763441064E+02  0.00000000000E+00 0. -1.
</event>
<event>
 7    1  0.3910495E-008  0.4614232E+02  0.7816164E-02  0.1320468E+00
        -11   -1    0    0    0    0  0.00000000000E+00  0.00000000000E+00  0.45593999997E+02  0.45594000000E+02  0.51100000000E-03 0.  1.
         11   -1    0    0    0    0 -0.00000000000E+00 -0.00000000000E+00 -0.45593999997E+02  0.45594000000E+02  0.51100000000E-03 0. -1.
    9900012    2    1    2    0    0  0.18645045869E+02  0.31042319617E+02 -0.26792725929E+02  0.46142317572E+02  0.99999982774E+01 0.  0.
        -12    1    1    2    0    0 -0.18645045869E+02 -0.31042319617E+02  0.26792725929E+02  0.45045682428E+02  0.00000000000E+00 0.  1.
         11    1    3    3    0    0  0.28035621827E+00  0.61307465625E+01 -0.39514940114E+01  0.72992436736E+01  0.51100000000E-03 0. -1.
        -11    1    3    3    0    0  0.11894768881E+02  0.16763519949E+02 -0.18184744197E+02  0.27444235271E+02  0.51100000000E-03 0.  1.
        -12    1    3    3    0    0  0.64699207691E+01  0.81480531055E+01 -0.46564877209E+01  0.11398838628E+02  0.00000000000E+00 0.  1.
</event>
<event>
 7    1  0.3910495E-008  0.4614232E+02  0.7816164E-02  0.1320468E+00
        -11   -1    0    0    0    0  0.00000000000E+00  0.00000000000E+00  0.45593999997E+02  0.45594000000E+02  0.51100000000E-03 0.  1.
         11   -1    0    0    0    0 -0.00000000000E+00 -0.00000000000E+00 -0.45593999997E+02  0.45594000000E+02  0.51100000000E-03 0. -1.
    9900012    2    1    2    0    0 -0.72777580261E+01 -0.21144639729E+02 -0.39103094746E+02  0.46142316856E+02  0.99999917464E+01 0.  0.
        -12    1    1    2    0    0  0.72777580261E+01  0.21144639729E+02  0.39103094746E+02  0.45045683144E+02  0.00000000000E+00 0.  1.
         11    1    3    3    0    0 -0.18556580377E+01 -0.18074647503E+01 -0.55626317622E+00  0.26494951517E+01  0.51100000000E-03 0.  1.
        -11    1    3    3    0    0 -0.10520236707E+01 -0.48240521320E+01 -0.10831785274E+02  0.11904024751E+02  0.51100000000E-03 0. -1.
        -12    1    3    3    0    0 -0.43700763178E+01 -0.14513122847E+02 -0.27715046296E+02  0.31588796953E+02  0.00000000000E+00 0.  1.
</event>
<event>
 7    1  0.3910495E-008  0.4614231E+02  0.7816164E-02  0.1320468E+00
        -11   -1    0    0    0    0  0.00000000000E+00  0.00000000000E+00  0.45593999997E+02  0.45594000000E+02  0.51100000000E-03 0. -1.
         11   -1    0    0    0    0 -0.00000000000E+00 -0.00000000000E+00 -0.45593999997E+02  0.45594000000E+02  0.51100000000E-03 0.  1.
    9900012    2    1    2    0    0 -0.44543916838E+02  0.66967196710E+01 -0.32770841799E+00  0.46142312366E+02  0.99999508010E+01 0.  0.
        -12    1    1    2    0    0  0.44543916838E+02 -0.66967196710E+01  0.32770841799E+00  0.45045687634E+02  0.00000000000E+00 0.  1.
         11    1    3    3    0    0 -0.53048902393E+01 -0.67011365919E-01  0.15719509123E+01  0.55332974713E+01  0.51100000000E-03 0. -1.
        -11    1    3    3    0    0 -0.87091086797E+01 -0.15495849345E+01  0.61811328778E+00  0.88674602768E+01  0.51100000000E-03 0.  1.
         12    1    3    3    0    0 -0.30529917919E+02  0.83133159714E+01 -0.25177726181E+01  0.31741554618E+02  0.00000000000E+00 0. -1.
</event>
<event>
 7    1  0.3910495E-008  0.4614232E+02  0.7816164E-02  0.1320468E+00
        -11   -1    0    0    0    0  0.00000000000E+00  0.00000000000E+00  0.45593999997E+02  0.45594000000E+02  0.51100000000E-03 0.  1.
         11   -1    0    0    0    0 -0.00000000000E+00 -0.00000000000E+00 -0.45593999997E+02  0.45594000000E+02  0.51100000000E-03 0. -1.
    9900012    2    1    2    0    0 -0.93864242273E+01 -0.25346696459E+02 -0.36035447987E+02  0.46142317712E+02  0.99999995500E+01 0.  0.
        -12    1    1    2    0    0  0.93864242273E+01  0.25346696459E+02  0.36035447987E+02  0.45045682288E+02  0.00000000000E+00 0.  1.
         11    1    3    3    0    0 -0.95423343179E+01 -0.16695853954E+02 -0.27212437691E+02  0.33321531310E+02  0.51100000000E-03 0. -1.
        -11    1    3    3    0    0 -0.88332136681E+00 -0.78672052925E+01 -0.69169561093E+01  0.10512728372E+02  0.51100000000E-03 0.  1.
        -12    1    3    3    0    0  0.10392314575E+01 -0.78363721204E+00 -0.19060541874E+01  0.23080580295E+01  0.00000000000E+00 0.  1.
</event>
<event>
 7    1  0.3910495E-008  0.4614232E+02  0.7816164E-02  0.1320468E+00
        -11   -1    0    0    0    0  0.00000000000E+00  0.00000000000E+00  0.45593999997E+02  0.45594000000E+02  0.51100000000E-03 0. -1.
         11   -1    0    0    0    0 -0.00000000000E+00 -0.00000000000E+00 -0.45593999997E+02  0.45594000000E+02  0.51100000000E-03 0.  1.
    9900012    2    1    2    0    0  0.21812696835E+02  0.39583050080E+01  0.39212901419E+02  0.46142316972E+02  0.99999928070E+01 0.  0.
        -12    1    1    2    0    0 -0.21812696835E+02 -0.39583050080E+01 -0.39212901419E+02  0.45045683028E+02  0.00000000000E+00 0.  1.
         11    1    3    3    0    0  0.55530551108E+01  0.67066121793E+00  0.75319760694E+01  0.93817307201E+01  0.51100000000E-03 0. -1.
        -11    1    3    3    0    0  0.15722939672E+02  0.50712146002E+01  0.26218258735E+02  0.30989113263E+02  0.51100000000E-03 0.  1.
        -12    1    3    3    0    0  0.53670205175E+00 -0.17835708101E+01  0.54626666139E+01  0.57714729889E+01  0.00000000000E+00 0.  1.
</event>
<event>
 7    1  0.3910495E-008  0.4614232E+02  0.7816164E-02  0.1320468E+00
        -11   -1    0    0    0    0  0.00000000000E+00  0.00000000000E+00  0.45593999997E+02  0.45594000000E+02  0.51100000000E-03 0. -1.
         11   -1    0    0    0    0 -0.00000000000E+00 -0.00000000000E+00 -0.45593999997E+02  0.45594000000E+02  0.51100000000E-03 0.  1.
    9900012    2    1    2    0    0  0.10523915521E+02 -0.42072479027E+02  0.12176497251E+02  0.46142319023E+02  0.10000011511E+02 0.  0.
        -12    1    1    2    0    0 -0.10523915521E+02  0.42072479027E+02 -0.12176497251E+02  0.45045680977E+02  0.00000000000E+00 0.  1.
         11    1    3    3    0    0  0.30430228076E+01 -0.15029512464E+02  0.17426976155E+01  0.15433185930E+02  0.51100000000E-03 0. -1.
        -11    1    3    3    0    0  0.58357535471E+01 -0.10436177591E+02  0.24320157170E+01  0.12201824572E+02  0.51100000000E-03 0.  1.
        -12    1    3    3    0    0  0.16451391659E+01 -0.16606788972E+02  0.80017839190E+01  0.18507308522E+02  0.00000000000E+00 0.  1.
</event>
<event>
 7    1  0.3910495E-008  0.4614232E+02  0.7816164E-02  0.1320468E+00
        -11   -1    0    0    0    0  0.00000000000E+00  0.00000000000E+00  0.45593999997E+02  0.45594000000E+02  0.51100000000E-03 0. -1.
         11   -1    0    0    0    0 -0.00000000000E+00 -0.00000000000E+00 -0.45593999997E+02  0.45594000000E+02  0.51100000000E-03 0.  1.
    9900012    2    1    2    0    0 -0.24032171963E+02  0.37522444126E+02 -0.66056322347E+01  0.46142317858E+02  0.10000000880E+02 0.  0.
        -12    1    1    2    0    0  0.24032171963E+02 -0.37522444126E+02  0.66056322347E+01  0.45045682142E+02  0.00000000000E+00 0.  1.
         11    1    3    3    0    0 -0.35894429615E+01  0.99987011600E+01 -0.25542561867E+01  0.10926223071E+02  0.51100000000E-03 0. -1.
        -11    1    3    3    0    0 -0.19394617783E+02  0.27470564033E+02 -0.47419362155E+01  0.33959815173E+02  0.51100000000E-03 0.  1.
        -12    1    3    3    0    0 -0.10481112177E+01  0.53178933459E-01  0.69056016752E+00  0.12562796140E+01  0.00000000000E+00 0.  1.
</event>
<event>
 7    1  0.3910495E-008  0.4614232E+02  0.7816164E-02  0.1320468E+00
        -11   -1    0    0    0    0  0.00000000000E+00  0.00000000000E+00  0.45593999997E+02  0.45594000000E+02  0.51100000000E-03 0. -1.
         11   -1    0    0    0    0 -0.00000000000E+00 -0.00000000000E+00 -0.45593999997E+02  0.45594000000E+02  0.51100000000E-03 0.  1.
    9900012    2    1    2    0    0  0.10850971038E+01 -0.44966601156E+02 -0.24373893552E+01  0.46142317387E+02  0.99999965855E+01 0.  0.
        -12    1    1    2    0    0 -0.10850971038E+01  0.44966601156E+02  0.24373893552E+01  0.45045682613E+02  0.00000000000E+00 0.  1.
         11    1    3    3    0    0 -0.10729032284E+01 -0.21598842836E+01  0.13158669203E+00  0.24152715737E+01  0.51100000000E-03 0. -1.
        -11    1    3    3    0    0  0.17869474510E+01 -0.50835838808E+01 -0.26435146533E+01  0.60020143493E+01  0.51100000000E-03 0.  1.
         12    1    3    3    0    0  0.37105288117E+00 -0.37723132991E+02  0.74538606111E-01  0.37725031464E+02  0.00000000000E+00 0. -1.
</event>
<event>
 7    1  0.3910495E-008  0.4614232E+02  0.7816164E-02  0.1320468E+00
        -11   -1    0    0    0    0  0.00000000000E+00  0.00000000000E+00  0.45593999997E+02  0.45594000000E+02  0.51100000000E-03 0.  1.
         11   -1    0    0    0    0 -0.00000000000E+00 -0.00000000000E+00 -0.45593999997E+02  0.45594000000E+02  0.51100000000E-03 0. -1.
    9900012    2    1    2    0    0  0.14218305190E+00 -0.12454920729E+02 -0.43289354484E+02  0.46142317876E+02  0.10000001044E+02 0.  0.
        -12    1    1    2    0    0 -0.14218305190E+00  0.12454920729E+02  0.43289354484E+02  0.45045682124E+02  0.00000000000E+00 0.  1.
         11    1    3    3    0    0 -0.19079126600E+01 -0.85214535582E+01 -0.22903968981E+02  0.24512182621E+02  0.51100000000E-03 0. -1.
        -11    1    3    3    0    0 -0.10695072562E+01  0.43897946733E+00 -0.86137348599E+01  0.86909710183E+01  0.51100000000E-03 0.  1.
        -12    1    3    3    0    0  0.31196029680E+01 -0.43724466377E+01 -0.11771650643E+02  0.12939164237E+02  0.00000000000E+00 0.  1.
</event>
<event>
 7    1  0.3910495E-008  0.4614232E+02  0.7816164E-02  0.1320468E+00
        -11   -1    0    0    0    0  0.00000000000E+00  0.00000000000E+00  0.45593999997E+02  0.45594000000E+02  0.51100000000E-03 0. -1.
         11   -1    0    0    0    0 -0.00000000000E+00 -0.00000000000E+00 -0.45593999997E+02  0.45594000000E+02  0.51100000000E-03 0.  1.
    9900012    2    1    2    0    0  0.30024660250E+02 -0.32295281810E+02 -0.92004239866E+01  0.46142320386E+02  0.10000023936E+02 0.  0.
        -12    1    1    2    0    0 -0.30024660250E+02  0.32295281810E+02  0.92004239866E+01  0.45045679614E+02  0.00000000000E+00 0.  1.
         11    1    3    3    0    0  0.61856952808E+00  0.25529667430E+00 -0.53096810921E+00  0.85424355257E+00  0.51100000000E-03 0. -1.
        -11    1    3    3    0    0  0.42841723597E+01 -0.51878195145E+01  0.12434268767E+01  0.68420548654E+01  0.51100000000E-03 0.  1.
         12    1    3    3    0    0  0.25121918363E+02 -0.27362758970E+02 -0.99128827541E+01  0.38446021968E+02  0.00000000000E+00 0. -1.
</event>
<event>
 7    1  0.3910495E-008  0.4614232E+02  0.7816164E-02  0.1320468E+00
        -11   -1    0    0    0    0  0.00000000000E+00  0.00000000000E+00  0.45593999997E+02  0.45594000000E+02  0.51100000000E-03 0.  1.
         11   -1    0    0    0    0 -0.00000000000E+00 -0.00000000000E+00 -0.45593999997E+02  0.45594000000E+02  0.51100000000E-03 0. -1.
    9900012    2    1    2    0    0 -0.12571386795E+02 -0.14684974140E+02 -0.40686917340E+02  0.46142317920E+02  0.10000001445E+02 0.  0.
        -12    1    1    2    0    0  0.12571386795E+02  0.14684974140E+02  0.40686917340E+02  0.45045682080E+02  0.00000000000E+00 0.  1.
         11    1    3    3    0    0 -0.33172052233E+01 -0.22930372875E+01 -0.17517905469E+02  0.17976064162E+02  0.51100000000E-03 0. -1.
        -11    1    3    3    0    0 -0.87586009801E+01 -0.90730506417E+01 -0.19166668747E+02  0.22943289437E+02  0.51100000000E-03 0.  1.
        -12    1    3    3    0    0 -0.49558059197E+00 -0.33188862109E+01 -0.40023431241E+01  0.52229643199E+01  0.00000000000E+00 0.  1.
</event>
<event>
 7    1  0.3910495E-008  0.4614232E+02  0.7816164E-02  0.1320468E+00
        -11   -1    0    0    0    0  0.00000000000E+00  0.00000000000E+00  0.45593999997E+02  0.45594000000E+02  0.51100000000E-03 0.  1.
         11   -1    0    0    0    0 -0.00000000000E+00 -0.00000000000E+00 -0.45593999997E+02  0.45594000000E+02  0.51100000000E-03 0. -1.
    9900012    2    1    2    0    0 -0.27136273019E+02 -0.30975410966E+02 -0.18255412040E+02  0.46142318002E+02  0.10000002199E+02 0.  0.
        -12    1    1    2    0    0  0.27136273019E+02  0.30975410966E+02  0.18255412040E+02  0.45045681998E+02  0.00000000000E+00 0.  1.
         11    1    3    3    0    0 -0.79864133145E+01 -0.50404317940E+01 -0.72639953642E+01  0.11914460928E+02  0.51100000000E-03 0. -1.
        -11    1    3    3    0    0 -0.13890931278E+02 -0.17230686194E+02 -0.88425058101E+01  0.23833682631E+02  0.51100000000E-03 0.  1.
        -12    1    3    3    0    0 -0.52589284271E+01 -0.87042929776E+01 -0.21489108658E+01  0.10394174443E+02  0.00000000000E+00 0.  1.
</event>
<event>
 7    1  0.3910495E-008  0.4614232E+02  0.7816164E-02  0.1320468E+00
        -11   -1    0    0    0    0  0.00000000000E+00  0.00000000000E+00  0.45593999997E+02  0.45594000000E+02  0.51100000000E-03 0. -1.
         11   -1    0    0    0    0 -0.00000000000E+00 -0.00000000000E+00 -0.45593999997E+02  0.45594000000E+02  0.51100000000E-03 0.  1.
    9900012    2    1    2    0    0 -0.26604039074E+02 -0.80132974082E+01  0.35455967608E+02  0.46142317971E+02  0.10000001915E+02 0.  0.
        -12    1    1    2    0    0  0.26604039074E+02  0.80132974082E+01 -0.35455967608E+02  0.45045682029E+02  0.00000000000E+00 0.  1.
         11    1    3    3    0    0 -0.14227839291E+02 -0.57693243643E+01  0.23216546706E+02  0.27833874249E+02  0.51100000000E-03 0. -1.
        -11    1    3    3    0    0 -0.13781716289E+01  0.11851712350E+01  0.31393677199E+01  0.36276187557E+01  0.51100000000E-03 0.  1.
        -12    1    3    3    0    0 -0.10998028154E+02 -0.34291442790E+01  0.91000531824E+01  0.14680824966E+02  0.00000000000E+00 0.  1.
</event>
<event>
 7    1  0.3910495E-008  0.4614232E+02  0.7816164E-02  0.1320468E+00
        -11   -1    0    0    0    0  0.00000000000E+00  0.00000000000E+00  0.45593999997E+02  0.45594000000E+02  0.51100000000E-03 0.  1.
         11   -1    0    0    0    0 -0.00000000000E+00 -0.00000000000E+00 -0.45593999997E+02  0.45594000000E+02  0.51100000000E-03 0. -1.
    9900012    2    1    2    0    0  0.38345052309E+01  0.37561716519E+02 -0.24566797085E+02  0.46142317663E+02  0.99999991038E+01 0.  0.
        -12    1    1    2    0    0 -0.38345052309E+01 -0.37561716519E+02  0.24566797085E+02  0.45045682337E+02  0.00000000000E+00 0.  1.
         11    1    3    3    0    0 -0.14215384455E+01  0.34981016098E+01 -0.19967637335E+01  0.42713641958E+01  0.51100000000E-03 0. -1.
        -11    1    3    3    0    0 -0.13117845354E+01  0.28916357051E+01 -0.76324704077E+00  0.32657130959E+01  0.51100000000E-03 0.  1.
        -12    1    3    3    0    0  0.65678282118E+01  0.31171979204E+02 -0.21806786311E+02  0.38605240371E+02  0.00000000000E+00 0.  1.
</event>
<event>
 7    1  0.3910495E-008  0.4614232E+02  0.7816164E-02  0.1320468E+00
        -11   -1    0    0    0    0  0.00000000000E+00  0.00000000000E+00  0.45593999997E+02  0.45594000000E+02  0.51100000000E-03 0.  1.
         11   -1    0    0    0    0 -0.00000000000E+00 -0.00000000000E+00 -0.45593999997E+02  0.45594000000E+02  0.51100000000E-03 0. -1.
    9900012    2    1    2    0    0  0.17217283048E+02 -0.14907852287E+02 -0.38864311602E+02  0.46142316393E+02  0.99999875231E+01 0.  0.
        -12    1    1    2    0    0 -0.17217283048E+02  0.14907852287E+02  0.38864311602E+02  0.45045683607E+02  0.00000000000E+00 0.  1.
         11    1    3    3    0    0  0.11364963166E+02 -0.68780041477E+01 -0.24932015289E+02  0.28250216201E+02  0.51100000000E-03 0. -1.
        -11    1    3    3    0    0  0.33044343180E+01 -0.76504087905E+01 -0.12248411291E+02  0.14814574589E+02  0.51100000000E-03 0.  1.
        -12    1    3    3    0    0  0.25478855644E+01 -0.37943934831E+00 -0.16838850218E+01  0.30775256026E+01  0.00000000000E+00 0.  1.
</event>
<event>
 7    1  0.3910495E-008  0.4614232E+02  0.7816164E-02  0.1320468E+00
        -11   -1    0    0    0    0  0.00000000000E+00  0.00000000000E+00  0.45593999997E+02  0.45594000000E+02  0.51100000000E-03 0.  1.
         11   -1    0    0    0    0 -0.00000000000E+00 -0.00000000000E+00 -0.45593999997E+02  0.45594000000E+02  0.51100000000E-03 0. -1.
    9900012    2    1    2    0    0 -0.20358078116E+02 -0.11222991405E+02 -0.38583761021E+02  0.46142317685E+02  0.99999993096E+01 0.  0.
        -12    1    1    2    0    0  0.20358078116E+02  0.11222991405E+02  0.38583761021E+02  0.45045682315E+02  0.00000000000E+00 0.  1.
         11    1    3    3    0    0 -0.89991050568E+01 -0.43916831124E+01 -0.21168963644E+02  0.23417852045E+02  0.51100000000E-03 0. -1.
        -11    1    3    3    0    0 -0.98922305161E+01 -0.27949953743E+01 -0.12874687805E+02  0.16475005617E+02  0.51100000000E-03 0.  1.
        -12    1    3    3    0    0 -0.14667425434E+01 -0.40363129185E+01 -0.45401095718E+01  0.62494600238E+01  0.00000000000E+00 0.  1.
</event>
<event>
 7    1  0.3910495E-008  0.4614232E+02  0.7816164E-02  0.1320468E+00
        -11   -1    0    0    0    0  0.00000000000E+00  0.00000000000E+00  0.45593999997E+02  0.45594000000E+02  0.51100000000E-03 0. -1.
         11   -1    0    0    0    0 -0.00000000000E+00 -0.00000000000E+00 -0.45593999997E+02  0.45594000000E+02  0.51100000000E-03 0.  1.
    9900012    2    1    2    0    0 -0.42211586862E+02 -0.75950098925E+01  0.13769940601E+02  0.46142317579E+02  0.99999983372E+01 0.  0.
        -12    1    1    2    0    0  0.42211586862E+02  0.75950098925E+01 -0.13769940601E+02  0.45045682421E+02  0.00000000000E+00 0.  1.
         11    1    3    3    0    0 -0.12803169374E+02 -0.23446369650E+01  0.23114811438E+01  0.13219735771E+02  0.51100000000E-03 0. -1.
        -11    1    3    3    0    0 -0.62248862139E+00 -0.14095459779E+01 -0.33732596122E+00  0.15773715519E+01  0.51100000000E-03 0.  1.
        -12    1    3    3    0    0 -0.28785928867E+02 -0.38408269497E+01  0.11795785418E+02  0.31345210256E+02  0.00000000000E+00 0.  1.
</event>
<event>
 7    1  0.3910495E-008  0.4614232E+02  0.7816164E-02  0.1320468E+00
        -11   -1    0    0    0    0  0.00000000000E+00  0.00000000000E+00  0.45593999997E+02  0.45594000000E+02  0.51100000000E-03 0.  1.
         11   -1    0    0    0    0 -0.00000000000E+00 -0.00000000000E+00 -0.45593999997E+02  0.45594000000E+02  0.51100000000E-03 0. -1.
    9900012    2    1    2    0    0  0.35019610773E+02  0.27635799327E+02 -0.62452343317E+01  0.46142317688E+02  0.99999993324E+01 0.  0.
        -12    1    1    2    0    0 -0.35019610773E+02 -0.27635799327E+02  0.62452343317E+01  0.45045682312E+02  0.00000000000E+00 0.  1.
         11    1    3    3    0    0  0.10933655726E+02  0.98625285878E+01 -0.55066510751E+01  0.15720607622E+02  0.51100000000E-03 0. -1.
        -11    1    3    3    0    0  0.94086637701E+01  0.56749456556E+01 -0.26571557620E+01  0.11304354875E+02  0.51100000000E-03 0.  1.
        -12    1    3    3    0    0  0.14677291277E+02  0.12098325083E+02  0.19185725054E+01  0.19117355191E+02  0.00000000000E+00 0.  1.
</event>
<event>
 7    1  0.3910495E-008  0.4614232E+02  0.7816164E-02  0.1320468E+00
        -11   -1    0    0    0    0  0.00000000000E+00  0.00000000000E+00  0.45593999997E+02  0.45594000000E+02  0.51100000000E-03 0.  1.
         11   -1    0    0    0    0 -0.00000000000E+00 -0.00000000000E+00 -0.45593999997E+02  0.45594000000E+02  0.51100000000E-03 0. -1.
    9900012    2    1    2    0    0 -0.68592908442E+01  0.21593673074E+02 -0.38932979494E+02  0.46142317854E+02  0.10000000846E+02 0.  0.
        -12    1    1    2    0    0  0.68592908442E+01 -0.21593673074E+02  0.38932979494E+02  0.45045682146E+02  0.00000000000E+00 0.  1.
         11    1    3    3    0    0 -0.10658688270E+01  0.55484102939E+01 -0.16986615548E+02  0.17901565327E+02  0.51100000000E-03 0. -1.
        -11    1    3    3    0    0 -0.11415208912E+01  0.10142021243E+02 -0.11566889317E+02  0.15425841746E+02  0.51100000000E-03 0.  1.
         12    1    3    3    0    0 -0.46519011259E+01  0.59032415370E+01 -0.10379474629E+02  0.12814910780E+02  0.00000000000E+00 0. -1.
</event>
<event>
 7    1  0.3910495E-008  0.4614232E+02  0.7816164E-02  0.1320468E+00
        -11   -1    0    0    0    0  0.00000000000E+00  0.00000000000E+00  0.45593999997E+02  0.45594000000E+02  0.51100000000E-03 0. -1.
         11   -1    0    0    0    0 -0.00000000000E+00 -0.00000000000E+00 -0.45593999997E+02  0.45594000000E+02  0.51100000000E-03 0.  1.
    9900012    2    1    2    0    0 -0.32920259080E+01  0.43324694280E+02  0.11884735560E+02  0.46142317539E+02  0.99999979749E+01 0.  0.
        -12    1    1    2    0    0  0.32920259080E+01 -0.43324694280E+02 -0.11884735560E+02  0.45045682461E+02  0.00000000000E+00 0.  1.
         11    1    3    3    0    0 -0.14750495450E+01  0.10841197432E+02  0.54624896884E+01  0.12228905379E+02  0.51100000000E-03 0. -1.
        -11    1    3    3    0    0  0.19521170204E+01  0.11288359525E+02  0.27079204142E-01  0.11455939734E+02  0.51100000000E-03 0.  1.
        -12    1    3    3    0    0 -0.37690933834E+01  0.21195137323E+02  0.63951666678E+01  0.22457472427E+02  0.00000000000E+00 0.  1.
</event>
<event>
 7    1  0.3910495E-008  0.4614233E+02  0.7816164E-02  0.1320468E+00
        -11   -1    0    0    0    0  0.00000000000E+00  0.00000000000E+00  0.45593999997E+02  0.45594000000E+02  0.51100000000E-03 0. -1.
         11   -1    0    0    0    0 -0.00000000000E+00 -0.00000000000E+00 -0.45593999997E+02  0.45594000000E+02  0.51100000000E-03 0.  1.
    9900012    2    1    2    0    0 -0.42025609098E+02  0.37328331993E+01  0.15780585549E+02  0.46142326023E+02  0.10000075337E+02 0.  0.
        -12    1    1    2    0    0  0.42025609098E+02 -0.37328331993E+01 -0.15780585549E+02  0.45045673977E+02  0.00000000000E+00 0.  1.
         11    1    3    3    0    0 -0.84866550518E+01 -0.18445155942E+01  0.47765219512E+01  0.99116453708E+01  0.51100000000E-03 0. -1.
        -11    1    3    3    0    0 -0.22316271412E+02  0.90088732477E+00  0.78032459677E+01  0.23658364601E+02  0.51100000000E-03 0.  1.
        -12    1    3    3    0    0 -0.11222682635E+02  0.46764614687E+01  0.32008176301E+01  0.12572316051E+02  0.00000000000E+00 0.  1.
</event>
<event>
 7    1  0.3910495E-008  0.4614232E+02  0.7816164E-02  0.1320468E+00
        -11   -1    0    0    0    0  0.00000000000E+00  0.00000000000E+00  0.45593999997E+02  0.45594000000E+02  0.51100000000E-03 0.  1.
         11   -1    0    0    0    0 -0.00000000000E+00 -0.00000000000E+00 -0.45593999997E+02  0.45594000000E+02  0.51100000000E-03 0. -1.
    9900012    2    1    2    0    0 -0.59130824826E+01 -0.32082648888E+02 -0.31062077316E+02  0.46142317062E+02  0.99999936269E+01 0.  0.
        -12    1    1    2    0    0  0.59130824826E+01  0.32082648888E+02  0.31062077316E+02  0.45045682938E+02  0.00000000000E+00 0.  1.
         11    1    3    3    0    0 -0.34573568130E+01 -0.45977085869E+01 -0.47247109921E+01  0.74441342413E+01  0.51100000000E-03 0. -1.
        -11    1    3    3    0    0  0.10796107736E+01 -0.66344899937E+00 -0.82163937612E+00  0.15102369094E+01  0.51100000000E-03 0.  1.
        -12    1    3    3    0    0 -0.35353364432E+01 -0.26821491302E+02 -0.25515726948E+02  0.37187945911E+02  0.00000000000E+00 0.  1.
</event>
<event>
 7    1  0.3910495E-008  0.4614232E+02  0.7816164E-02  0.1320468E+00
        -11   -1    0    0    0    0  0.00000000000E+00  0.00000000000E+00  0.45593999997E+02  0.45594000000E+02  0.51100000000E-03 0.  1.
         11   -1    0    0    0    0 -0.00000000000E+00 -0.00000000000E+00 -0.45593999997E+02  0.45594000000E+02  0.51100000000E-03 0. -1.
    9900012    2    1    2    0    0 -0.59711061768E+01 -0.15402567829E+02 -0.41907283251E+02  0.46142316587E+02  0.99999892917E+01 0.  0.
        -12    1    1    2    0    0  0.59711061768E+01  0.15402567829E+02  0.41907283251E+02  0.45045683413E+02  0.00000000000E+00 0.  1.
         11    1    3    3    0    0 -0.81753938519E+00 -0.28851785308E+00 -0.90079233256E+01  0.90495467344E+01  0.51100000000E-03 0. -1.
        -11    1    3    3    0    0 -0.54256850330E+01 -0.84371235331E+01 -0.23581775130E+02  0.25626611756E+02  0.51100000000E-03 0.  1.
        -12    1    3    3    0    0  0.27211824138E+00 -0.66769264425E+01 -0.93175847956E+01  0.11466158096E+02  0.00000000000E+00 0.  1.
</event>
<event>
 7    1  0.3910495E-008  0.4614232E+02  0.7816164E-02  0.1320468E+00
        -11   -1    0    0    0    0  0.00000000000E+00  0.00000000000E+00  0.45593999997E+02  0.45594000000E+02  0.51100000000E-03 0. -1.
         11   -1    0    0    0    0 -0.00000000000E+00 -0.00000000000E+00 -0.45593999997E+02  0.45594000000E+02  0.51100000000E-03 0.  1.
    9900012    2    1    2    0    0 -0.41296641534E+02 -0.14129522864E+02  0.11138098085E+02  0.46142320437E+02  0.10000024400E+02 0.  0.
        -12    1    1    2    0    0  0.41296641534E+02  0.14129522864E+02 -0.11138098085E+02  0.45045679563E+02  0.00000000000E+00 0.  1.
         11    1    3    3    0    0 -0.29246270081E+01 -0.17122546860E+01 -0.10660650634E+01  0.35527108279E+01  0.51100000000E-03 0. -1.
        -11    1    3    3    0    0 -0.32513988343E+01 -0.11764002194E+01 -0.68764143240E+00  0.35253883271E+01  0.51100000000E-03 0.  1.
         12    1    3    3    0    0 -0.35120615692E+02 -0.11240867959E+02  0.12891804580E+02  0.39064221282E+02  0.00000000000E+00 0. -1.
</event>
<event>
 7    1  0.3910495E-008  0.4614232E+02  0.7816164E-02  0.1320468E+00
        -11   -1    0    0    0    0  0.00000000000E+00  0.00000000000E+00  0.45593999997E+02  0.45594000000E+02  0.51100000000E-03 0.  1.
         11   -1    0    0    0    0 -0.00000000000E+00 -0.00000000000E+00 -0.45593999997E+02  0.45594000000E+02  0.51100000000E-03 0. -1.
    9900012    2    1    2    0    0  0.21369192168E+02 -0.36716210301E+02 -0.14979686186E+02  0.46142317954E+02  0.10000001755E+02 0.  0.
        -12    1    1    2    0    0 -0.21369192168E+02  0.36716210301E+02  0.14979686186E+02  0.45045682046E+02  0.00000000000E+00 0.  1.
         11    1    3    3    0    0  0.20158670732E+02 -0.32799057995E+02 -0.11582561827E+02  0.40203307697E+02  0.51100000000E-03 0. -1.
        -11    1    3    3    0    0 -0.82583423850E-01 -0.30807052503E+01 -0.13184532536E+01  0.33519970323E+01  0.51100000000E-03 0.  1.
         12    1    3    3    0    0  0.12931048598E+01 -0.83644705601E+00 -0.20786711064E+01  0.25870132247E+01  0.00000000000E+00 0. -1.
</event>
<event>
 7    1  0.3910495E-008  0.4614232E+02  0.7816164E-02  0.1320468E+00
        -11   -1    0    0    0    0  0.00000000000E+00  0.00000000000E+00  0.45593999997E+02  0.45594000000E+02  0.51100000000E-03 0.  1.
         11   -1    0    0    0    0 -0.00000000000E+00 -0.00000000000E+00 -0.45593999997E+02  0.45594000000E+02  0.51100000000E-03 0. -1.
    9900012    2    1    2    0    0 -0.34624716296E+02 -0.19238261940E+02 -0.21450683072E+02  0.46142317573E+02  0.99999982863E+01 0.  0.
        -12    1    1    2    0    0  0.34624716296E+02  0.19238261940E+02  0.21450683072E+02  0.45045682427E+02  0.00000000000E+00 0.  1.
         11    1    3    3    0    0 -0.12116858776E+02 -0.83539334192E+01 -0.34478522767E+01  0.15116023146E+02  0.51100000000E-03 0. -1.
        -11    1    3    3    0    0 -0.33010231058E+01 -0.27631971907E+01 -0.20344658948E+01  0.47614140755E+01  0.51100000000E-03 0.  1.
         12    1    3    3    0    0 -0.19206834414E+02 -0.81211313299E+01 -0.15968364900E+02  0.26264880351E+02  0.00000000000E+00 0. -1.
</event>
<event>
 7    1  0.3910495E-008  0.4614232E+02  0.7816164E-02  0.1320468E+00
        -11   -1    0    0    0    0  0.00000000000E+00  0.00000000000E+00  0.45593999997E+02  0.45594000000E+02  0.51100000000E-03 0.  1.
         11   -1    0    0    0    0 -0.00000000000E+00 -0.00000000000E+00 -0.45593999997E+02  0.45594000000E+02  0.51100000000E-03 0. -1.
    9900012    2    1    2    0    0  0.90058921637E+01 -0.20895654917E+02 -0.38876456431E+02  0.46142319267E+02  0.10000013729E+02 0.  0.
        -12    1    1    2    0    0 -0.90058921637E+01  0.20895654917E+02  0.38876456431E+02  0.45045680733E+02  0.00000000000E+00 0.  1.
         11    1    3    3    0    0  0.31467078887E+01 -0.22481436225E+01 -0.82869272149E+01  0.91448938327E+01  0.51100000000E-03 0. -1.
        -11    1    3    3    0    0  0.24456474757E+01 -0.55584561525E+01 -0.43288850529E+01  0.74576720521E+01  0.51100000000E-03 0.  1.
        -12    1    3    3    0    0  0.34135367994E+01 -0.13089055142E+02 -0.26260644163E+02  0.29539753382E+02  0.00000000000E+00 0.  1.
</event>
<event>
 7    1  0.3910495E-008  0.4614232E+02  0.7816164E-02  0.1320468E+00
        -11   -1    0    0    0    0  0.00000000000E+00  0.00000000000E+00  0.45593999997E+02  0.45594000000E+02  0.51100000000E-03 0.  1.
         11   -1    0    0    0    0 -0.00000000000E+00 -0.00000000000E+00 -0.45593999997E+02  0.45594000000E+02  0.51100000000E-03 0. -1.
    9900012    2    1    2    0    0  0.13664160521E+02  0.19210387228E+02 -0.38384431850E+02  0.46142324640E+02  0.10000062727E+02 0.  0.
        -12    1    1    2    0    0 -0.13664160521E+02 -0.19210387228E+02  0.38384431850E+02  0.45045675360E+02  0.00000000000E+00 0.  1.
         11    1    3    3    0    0  0.42482167302E+01  0.98933656863E+00 -0.53448524001E+01  0.68988100186E+01  0.51100000000E-03 0. -1.
        -11    1    3    3    0    0  0.85298791040E+01  0.11332306783E+02 -0.23383091682E+02  0.27348656118E+02  0.51100000000E-03 0.  1.
        -12    1    3    3    0    0  0.88606468654E+00  0.68887438760E+01 -0.96564877678E+01  0.11894858504E+02  0.00000000000E+00 0.  1.
</event>
<event>
 7    1  0.3910495E-008  0.4614232E+02  0.7816164E-02  0.1320468E+00
        -11   -1    0    0    0    0  0.00000000000E+00  0.00000000000E+00  0.45593999997E+02  0.45594000000E+02  0.51100000000E-03 0.  1.
         11   -1    0    0    0    0 -0.00000000000E+00 -0.00000000000E+00 -0.45593999997E+02  0.45594000000E+02  0.51100000000E-03 0. -1.
    9900012    2    1    2    0    0 -0.40706929066E+02  0.17413377575E+02 -0.82966167390E+01  0.46142316057E+02  0.99999844627E+01 0.  0.
        -12    1    1    2    0    0  0.40706929066E+02 -0.17413377575E+02  0.82966167390E+01  0.45045683943E+02  0.00000000000E+00 0.  1.
         11    1    3    3    0    0 -0.22525006142E+02  0.78484860632E+01 -0.83887600907E+01  0.25285290809E+02  0.51100000000E-03 0. -1.
        -11    1    3    3    0    0 -0.43584629383E+01  0.24083374153E+01 -0.15231104424E+01  0.52073173488E+01  0.51100000000E-03 0.  1.
        -12    1    3    3    0    0 -0.13823459986E+02  0.71565540963E+01  0.16152537942E+01  0.15649707899E+02  0.00000000000E+00 0.  1.
</event>
<event>
 7    1  0.3910495E-008  0.4614232E+02  0.7816164E-02  0.1320468E+00
        -11   -1    0    0    0    0  0.00000000000E+00  0.00000000000E+00  0.45593999997E+02  0.45594000000E+02  0.51100000000E-03 0.  1.
         11   -1    0    0    0    0 -0.00000000000E+00 -0.00000000000E+00 -0.45593999997E+02  0.45594000000E+02  0.51100000000E-03 0. -1.
    9900012    2    1    2    0    0  0.69568698315E+01  0.34124051415E+02 -0.28570343829E+02  0.46142317972E+02  0.10000001921E+02 0.  0.
        -12    1    1    2    0    0 -0.69568698315E+01 -0.34124051415E+02  0.28570343829E+02  0.45045682028E+02  0.00000000000E+00 0.  1.
         11    1    3    3    0    0  0.49716311617E+00  0.16417875258E+02 -0.15951207282E+02  0.22896174641E+02  0.51100000000E-03 0. -1.
        -11    1    3    3    0    0  0.62126242685E+01  0.16538659543E+02 -0.13064018186E+02  0.21972540391E+02  0.51100000000E-03 0.  1.
        -12    1    3    3    0    0  0.24708244678E+00  0.11675166136E+01  0.44488163806E+00  0.12736029406E+01  0.00000000000E+00 0.  1.
</event>
<event>
 7    1  0.3910495E-008  0.4614232E+02  0.7816164E-02  0.1320468E+00
        -11   -1    0    0    0    0  0.00000000000E+00  0.00000000000E+00  0.45593999997E+02  0.45594000000E+02  0.51100000000E-03 0.  1.
         11   -1    0    0    0    0 -0.00000000000E+00 -0.00000000000E+00 -0.45593999997E+02  0.45594000000E+02  0.51100000000E-03 0. -1.
    9900012    2    1    2    0    0  0.19082905731E+02  0.20442994114E+02 -0.35313456272E+02  0.46142317706E+02  0.99999994964E+01 0.  0.
        -12    1    1    2    0    0 -0.19082905731E+02 -0.20442994114E+02  0.35313456272E+02  0.45045682294E+02  0.00000000000E+00 0.  1.
         11    1    3    3    0    0  0.14409648930E+02  0.20307233246E+02 -0.28256507750E+02  0.37662341070E+02  0.51100000000E-03 0. -1.
        -11    1    3    3    0    0  0.17104070747E+01 -0.18772527357E+00 -0.25017585066E+01  0.30363677356E+01  0.51100000000E-03 0.  1.
         12    1    3    3    0    0  0.29628497256E+01  0.32348614162E+00 -0.45551900153E+01  0.54436089000E+01  0.00000000000E+00 0. -1.
</event>
<event>
 7    1  0.3910495E-008  0.4614231E+02  0.7816164E-02  0.1320468E+00
        -11   -1    0    0    0    0  0.00000000000E+00  0.00000000000E+00  0.45593999997E+02  0.45594000000E+02  0.51100000000E-03 0.  1.
         11   -1    0    0    0    0 -0.00000000000E+00 -0.00000000000E+00 -0.45593999997E+02  0.45594000000E+02  0.51100000000E-03 0. -1.
    9900012    2    1    2    0    0  0.25311986033E+02  0.36720015289E+02 -0.63291182753E+01  0.46142313215E+02  0.99999585424E+01 0.  0.
        -12    1    1    2    0    0 -0.25311986033E+02 -0.36720015289E+02  0.63291182753E+01  0.45045686785E+02  0.00000000000E+00 0.  1.
         11    1    3    3    0    0  0.15007469248E+02  0.19418471244E+02 -0.38095713719E+01  0.24835740235E+02  0.51100000000E-03 0. -1.
        -11    1    3    3    0    0  0.53382278242E+01  0.12524851940E+02 -0.41350483233E+01  0.14229097558E+02  0.51100000000E-03 0.  1.
         12    1    3    3    0    0  0.49662889610E+01  0.47766921053E+01  0.16155014199E+01  0.70774754222E+01  0.00000000000E+00 0. -1.
</event>
<event>
 7    1  0.3987454E-008  0.4614232E+02  0.7816164E-02  0.1320468E+00
        -11   -1    0    0    0    0  0.00000000000E+00  0.00000000000E+00  0.45593999997E+02  0.45594000000E+02  0.51100000000E-03 0. -1.
         11   -1    0    0    0    0 -0.00000000000E+00 -0.00000000000E+00 -0.45593999997E+02  0.45594000000E+02  0.51100000000E-03 0.  1.
    9900012    2    1    2    0    0  0.43738875117E+02  0.12565461470E+01  0.10697914605E+02  0.46142317836E+02  0.10000000679E+02 0.  0.
        -12    1    1    2    0    0 -0.43738875117E+02 -0.12565461470E+01 -0.10697914605E+02  0.45045682164E+02  0.00000000000E+00 0.  1.
         11    1    3    3    0    0  0.67282235501E+01  0.11025808880E+01  0.54880117223E+00  0.68400189870E+01  0.51100000000E-03 0.  1.
        -11    1    3    3    0    0  0.17731192245E+02  0.66719359526E+00  0.53323293506E+00  0.17751750994E+02  0.51100000000E-03 0. -1.
         12    1    3    3    0    0  0.19279459322E+02 -0.51322833627E+00  0.96158804980E+01  0.21550547854E+02  0.00000000000E+00 0. -1.
</event>
<event>
 7    1  0.3910495E-008  0.4614232E+02  0.7816164E-02  0.1320468E+00
        -11   -1    0    0    0    0  0.00000000000E+00  0.00000000000E+00  0.45593999997E+02  0.45594000000E+02  0.51100000000E-03 0. -1.
         11   -1    0    0    0    0 -0.00000000000E+00 -0.00000000000E+00 -0.45593999997E+02  0.45594000000E+02  0.51100000000E-03 0.  1.
    9900012    2    1    2    0    0 -0.32122411453E+02  0.25840609471E+02  0.18152883510E+02  0.46142316576E+02  0.99999891969E+01 0.  0.
        -12    1    1    2    0    0  0.32122411453E+02 -0.25840609471E+02 -0.18152883510E+02  0.45045683424E+02  0.00000000000E+00 0.  1.
         11    1    3    3    0    0 -0.72944281078E+01  0.73692001911E+01  0.61194175463E+01  0.12039977751E+02  0.51100000000E-03 0. -1.
        -11    1    3    3    0    0 -0.21333535577E+02  0.12439471877E+02  0.11077504642E+02  0.27066054573E+02  0.51100000000E-03 0.  1.
        -12    1    3    3    0    0 -0.34944477677E+01  0.60319374026E+01  0.95596132215E+00  0.70362842524E+01  0.00000000000E+00 0.  1.
</event>
<event>
 7    1  0.3910495E-008  0.4614232E+02  0.7816164E-02  0.1320468E+00
        -11   -1    0    0    0    0  0.00000000000E+00  0.00000000000E+00  0.45593999997E+02  0.45594000000E+02  0.51100000000E-03 0.  1.
         11   -1    0    0    0    0 -0.00000000000E+00 -0.00000000000E+00 -0.45593999997E+02  0.45594000000E+02  0.51100000000E-03 0. -1.
    9900012    2    1    2    0    0  0.28929410233E+02 -0.33521485028E+02 -0.82772357049E+01  0.46142319122E+02  0.10000012408E+02 0.  0.
        -12    1    1    2    0    0 -0.28929410233E+02  0.33521485028E+02  0.82772357049E+01  0.45045680878E+02  0.00000000000E+00 0.  1.
         11    1    3    3    0    0  0.18606110268E+02 -0.20281342145E+02 -0.48682554143E+01  0.27950314660E+02  0.51100000000E-03 0. -1.
        -11    1    3    3    0    0  0.55272213435E+01 -0.57057303009E+01 -0.46030382638E+01  0.91811489241E+01  0.51100000000E-03 0.  1.
        -12    1    3    3    0    0  0.47960786208E+01 -0.75344125813E+01  0.11940579732E+01  0.90108555380E+01  0.00000000000E+00 0.  1.
</event>
<event>
 7    1  0.3910495E-008  0.4614232E+02  0.7816164E-02  0.1320468E+00
        -11   -1    0    0    0    0  0.00000000000E+00  0.00000000000E+00  0.45593999997E+02  0.45594000000E+02  0.51100000000E-03 0.  1.
         11   -1    0    0    0    0 -0.00000000000E+00 -0.00000000000E+00 -0.45593999997E+02  0.45594000000E+02  0.51100000000E-03 0. -1.
    9900012    2    1    2    0    0 -0.14259001974E+02 -0.27767053796E+02 -0.32477455527E+02  0.46142317284E+02  0.99999956493E+01 0.  0.
        -12    1    1    2    0    0  0.14259001974E+02  0.27767053796E+02  0.32477455527E+02  0.45045682716E+02  0.00000000000E+00 0.  1.
         11    1    3    3    0    0 -0.32439037625E+01 -0.10502596033E+02 -0.96460027929E+01  0.14624390763E+02  0.51100000000E-03 0. -1.
        -11    1    3    3    0    0 -0.46696724305E+00 -0.31274072817E+01 -0.73793144990E+00  0.32470413915E+01  0.51100000000E-03 0.  1.
         12    1    3    3    0    0 -0.10548130969E+02 -0.14137050482E+02 -0.22093521284E+02  0.28270885129E+02  0.00000000000E+00 0. -1.
</event>
<event>
 7    1  0.3910495E-008  0.4614232E+02  0.7816164E-02  0.1320468E+00
        -11   -1    0    0    0    0  0.00000000000E+00  0.00000000000E+00  0.45593999997E+02  0.45594000000E+02  0.51100000000E-03 0. -1.
         11   -1    0    0    0    0 -0.00000000000E+00 -0.00000000000E+00 -0.45593999997E+02  0.45594000000E+02  0.51100000000E-03 0.  1.
    9900012    2    1    2    0    0  0.32579823876E+02  0.33199771819E+01  0.30929700379E+02  0.46142317212E+02  0.99999949927E+01 0.  0.
        -12    1    1    2    0    0 -0.32579823876E+02 -0.33199771819E+01 -0.30929700379E+02  0.45045682788E+02  0.00000000000E+00 0.  1.
         11    1    3    3    0    0  0.83459787504E+01 -0.11508055739E+01  0.10741918178E+02  0.13651685653E+02  0.51100000000E-03 0. -1.
        -11    1    3    3    0    0  0.97424709645E+01  0.45015289513E+00  0.11664099700E+02  0.15204262566E+02  0.51100000000E-03 0.  1.
        -12    1    3    3    0    0  0.14491374161E+02  0.40206298606E+01  0.85236825020E+01  0.17286368993E+02  0.00000000000E+00 0.  1.
</event>
<event>
 7    1  0.3910495E-008  0.4614232E+02  0.7816164E-02  0.1320468E+00
        -11   -1    0    0    0    0  0.00000000000E+00  0.00000000000E+00  0.45593999997E+02  0.45594000000E+02  0.51100000000E-03 0.  1.
         11   -1    0    0    0    0 -0.00000000000E+00 -0.00000000000E+00 -0.45593999997E+02  0.45594000000E+02  0.51100000000E-03 0. -1.
    9900012    2    1    2    0    0 -0.52336900720E+01 -0.44732298170E+02 -0.86231739448E+00  0.46142316493E+02  0.99999884351E+01 0.  0.
        -12    1    1    2    0    0  0.52336900720E+01  0.44732298170E+02  0.86231739448E+00  0.45045683507E+02  0.00000000000E+00 0.  1.
         11    1    3    3    0    0  0.55155239328E+00 -0.16548888686E+02  0.98499272106E+00  0.16587348724E+02  0.51100000000E-03 0. -1.
        -11    1    3    3    0    0 -0.86422425145E+00 -0.60682346822E+01  0.22538281986E+01  0.65307042136E+01  0.51100000000E-03 0.  1.
         12    1    3    3    0    0 -0.49210182138E+01 -0.22115174802E+02 -0.41011383141E+01  0.23024263555E+02  0.00000000000E+00 0. -1.
</event>
<event>
 7    1  0.3910495E-008  0.4614232E+02  0.7816164E-02  0.1320468E+00
        -11   -1    0    0    0    0  0.00000000000E+00  0.00000000000E+00  0.45593999997E+02  0.45594000000E+02  0.51100000000E-03 0. -1.
         11   -1    0    0    0    0 -0.00000000000E+00 -0.00000000000E+00 -0.45593999997E+02  0.45594000000E+02  0.51100000000E-03 0.  1.
    9900012    2    1    2    0    0  0.37525625654E+02  0.24044354809E+02  0.65429438823E+01  0.46142315484E+02  0.99999792365E+01 0.  0.
        -12    1    1    2    0    0 -0.37525625654E+02 -0.24044354809E+02 -0.65429438823E+01  0.45045684516E+02  0.00000000000E+00 0.  1.
         11    1    3    3    0    0  0.25910513009E+02  0.15864952409E+02  0.37462010529E+01  0.30611851004E+02  0.51100000000E-03 0. -1.
        -11    1    3    3    0    0  0.69567260474E+01  0.77663452351E+01  0.29995708697E+01  0.10849404651E+02  0.51100000000E-03 0.  1.
         12    1    3    3    0    0  0.46583865972E+01  0.41305716476E+00 -0.20282804026E+00  0.46810598292E+01  0.00000000000E+00 0. -1.
</event>
<event>
 7    1  0.3910495E-008  0.4614232E+02  0.7816164E-02  0.1320468E+00
        -11   -1    0    0    0    0  0.00000000000E+00  0.00000000000E+00  0.45593999997E+02  0.45594000000E+02  0.51100000000E-03 0.  1.
         11   -1    0    0    0    0 -0.00000000000E+00 -0.00000000000E+00 -0.45593999997E+02  0.45594000000E+02  0.51100000000E-03 0. -1.
    9900012    2    1    2    0    0  0.98205445254E+00  0.20668160441E+02 -0.40012202012E+02  0.46142316557E+02  0.99999890214E+01 0.  0.
        -12    1    1    2    0    0 -0.98205445254E+00 -0.20668160441E+02  0.40012202012E+02  0.45045683443E+02  0.00000000000E+00 0.  1.
         11    1    3    3    0    0 -0.34940817381E+01  0.37993597055E+01 -0.95938490319E+01  0.10894295795E+02  0.51100000000E-03 0. -1.
        -11    1    3    3    0    0  0.48219260679E+01  0.13051454638E+02 -0.24999083969E+02  0.28610236607E+02  0.51100000000E-03 0.  1.
        -12    1    3    3    0    0 -0.34578987733E+00  0.38173460979E+01 -0.54192690116E+01  0.66377841552E+01  0.00000000000E+00 0.  1.
</event>
<event>
 7    1  0.3910495E-008  0.4614232E+02  0.7816164E-02  0.1320468E+00
        -11   -1    0    0    0    0  0.00000000000E+00  0.00000000000E+00  0.45593999997E+02  0.45594000000E+02  0.51100000000E-03 0. -1.
         11   -1    0    0    0    0 -0.00000000000E+00 -0.00000000000E+00 -0.45593999997E+02  0.45594000000E+02  0.51100000000E-03 0.  1.
    9900012    2    1    2    0    0  0.38316753509E+02 -0.13975876458E+02  0.19121055246E+02  0.46142317899E+02  0.10000001260E+02 0.  0.
        -12    1    1    2    0    0 -0.38316753509E+02  0.13975876458E+02 -0.19121055246E+02  0.45045682101E+02  0.00000000000E+00 0.  1.
         11    1    3    3    0    0  0.15967703829E+02 -0.57535781824E+01  0.88914047625E+01  0.19160592538E+02  0.51100000000E-03 0. -1.
        -11    1    3    3    0    0  0.85843753526E+01  0.32477960321E+00  0.20504042230E+01  0.88318253902E+01  0.51100000000E-03 0.  1.
         12    1    3    3    0    0  0.13764674327E+02 -0.85470778791E+01  0.81792462600E+01  0.18149899971E+02  0.00000000000E+00 0. -1.
</event>
<event>
 7    1  0.3910495E-008  0.4614232E+02  0.7816164E-02  0.1320468E+00
        -11   -1    0    0    0    0  0.00000000000E+00  0.00000000000E+00  0.45593999997E+02  0.45594000000E+02  0.51100000000E-03 0. -1.
         11   -1    0    0    0    0 -0.00000000000E+00 -0.00000000000E+00 -0.45593999997E+02  0.45594000000E+02  0.51100000000E-03 0.  1.
    9900012    2    1    2    0    0  0.43658134316E+02 -0.91680111570E+01  0.62472542052E+01  0.46142319790E+02  0.10000018500E+02 0.  0.
        -12    1    1    2    0    0 -0.43658134316E+02  0.91680111570E+01 -0.62472542052E+01  0.45045680210E+02  0.00000000000E+00 0.  1.
         11    1    3    3    0    0  0.25545008631E+02 -0.37333187870E+01 -0.63148329933E-01  0.25816450629E+02  0.51100000000E-03 0. -1.
        -11    1    3    3    0    0  0.15980583621E+02 -0.59215012581E+01  0.49371516420E+01  0.17743130970E+02  0.51100000000E-03 0.  1.
         12    1    3    3    0    0  0.21325420642E+01  0.48680888804E+00  0.13732508931E+01  0.25827381912E+01  0.00000000000E+00 0. -1.
</event>
<event>
 7    1  0.3910495E-008  0.4614232E+02  0.7816164E-02  0.1320468E+00
        -11   -1    0    0    0    0  0.00000000000E+00  0.00000000000E+00  0.45593999997E+02  0.45594000000E+02  0.51100000000E-03 0.  1.
         11   -1    0    0    0    0 -0.00000000000E+00 -0.00000000000E+00 -0.45593999997E+02  0.45594000000E+02  0.51100000000E-03 0. -1.
    9900012    2    1    2    0    0  0.97858236994E+01  0.39038212716E+02 -0.20232871632E+02  0.46142317721E+02  0.99999996328E+01 0.  0.
        -12    1    1    2    0    0 -0.97858236994E+01 -0.39038212716E+02  0.20232871632E+02  0.45045682279E+02  0.00000000000E+00 0.  1.
         11    1    3    3    0    0  0.40127078142E+01  0.87364236368E+01 -0.12958620071E+01  0.97008340140E+01  0.51100000000E-03 0. -1.
        -11    1    3    3    0    0  0.32954093531E+00  0.27511936614E+01 -0.32613199369E+01  0.42794709699E+01  0.51100000000E-03 0.  1.
         12    1    3    3    0    0  0.54435749499E+01  0.27550595417E+02 -0.15675689688E+02  0.32162012737E+02  0.00000000000E+00 0. -1.
</event>
<event>
 7    1  0.3910495E-008  0.4614232E+02  0.7816164E-02  0.1320468E+00
        -11   -1    0    0    0    0  0.00000000000E+00  0.00000000000E+00  0.45593999997E+02  0.45594000000E+02  0.51100000000E-03 0.  1.
         11   -1    0    0    0    0 -0.00000000000E+00 -0.00000000000E+00 -0.45593999997E+02  0.45594000000E+02  0.51100000000E-03 0. -1.
    9900012    2    1    2    0    0  0.20357181609E+02  0.26969788104E+02 -0.29788071181E+02  0.46142317653E+02  0.99999990104E+01 0.  0.
        -12    1    1    2    0    0 -0.20357181609E+02 -0.26969788104E+02  0.29788071181E+02  0.45045682347E+02  0.00000000000E+00 0.  1.
         11    1    3    3    0    0  0.30141295029E+01  0.27823548552E+01 -0.58467398484E+01  0.71421875022E+01  0.51100000000E-03 0.  1.
        -11    1    3    3    0    0  0.11968922128E+02  0.21866590588E+02 -0.19659758329E+02  0.31747582249E+02  0.51100000000E-03 0. -1.
         12    1    3    3    0    0  0.53741299773E+01  0.23208426614E+01 -0.42815730039E+01  0.72525479012E+01  0.00000000000E+00 0. -1.
</event>
<event>
 7    1  0.3910495E-008  0.4614232E+02  0.7816164E-02  0.1320468E+00
        -11   -1    0    0    0    0  0.00000000000E+00  0.00000000000E+00  0.45593999997E+02  0.45594000000E+02  0.51100000000E-03 0. -1.
         11   -1    0    0    0    0 -0.00000000000E+00 -0.00000000000E+00 -0.45593999997E+02  0.45594000000E+02  0.51100000000E-03 0.  1.
    9900012    2    1    2    0    0  0.31084304023E+02 -0.32514077674E+02  0.23904582614E+01  0.46142317696E+02  0.99999994021E+01 0.  0.
        -12    1    1    2    0    0 -0.31084304023E+02  0.32514077674E+02 -0.23904582614E+01  0.45045682304E+02  0.00000000000E+00 0.  1.
         11    1    3    3    0    0  0.20091883314E+02 -0.22864568259E+02  0.34833726962E+01  0.30636679689E+02  0.51100000000E-03 0. -1.
        -11    1    3    3    0    0  0.11457089318E+01 -0.10036346371E+01  0.15111983459E+01  0.21456123002E+01  0.51100000000E-03 0.  1.
         12    1    3    3    0    0  0.98467117771E+01 -0.86458747780E+01 -0.26041127806E+01  0.13360025706E+02  0.00000000000E+00 0. -1.
</event>
<event>
 7    1  0.3910495E-008  0.4614232E+02  0.7816164E-02  0.1320468E+00
        -11   -1    0    0    0    0  0.00000000000E+00  0.00000000000E+00  0.45593999997E+02  0.45594000000E+02  0.51100000000E-03 0. -1.
         11   -1    0    0    0    0 -0.00000000000E+00 -0.00000000000E+00 -0.45593999997E+02  0.45594000000E+02  0.51100000000E-03 0.  1.
    9900012    2    1    2    0    0 -0.16254387665E+02  0.31559786940E+02  0.27728834321E+02  0.46142317379E+02  0.99999965112E+01 0.  0.
        -12    1    1    2    0    0  0.16254387665E+02 -0.31559786940E+02 -0.27728834321E+02  0.45045682621E+02  0.00000000000E+00 0.  1.
         11    1    3    3    0    0 -0.84811759427E+01  0.14944426825E+02  0.94993132539E+01  0.19634235179E+02  0.51100000000E-03 0. -1.
        -11    1    3    3    0    0 -0.20712191840E+01  0.23919818076E+01  0.72929331433E+00  0.32470594198E+01  0.51100000000E-03 0.  1.
        -12    1    3    3    0    0 -0.57019925383E+01  0.14223378307E+02  0.17500227753E+02  0.23261022780E+02  0.00000000000E+00 0.  1.
</event>
<event>
 7    1  0.3910495E-008  0.4614232E+02  0.7816164E-02  0.1320468E+00
        -11   -1    0    0    0    0  0.00000000000E+00  0.00000000000E+00  0.45593999997E+02  0.45594000000E+02  0.51100000000E-03 0.  1.
         11   -1    0    0    0    0 -0.00000000000E+00 -0.00000000000E+00 -0.45593999997E+02  0.45594000000E+02  0.51100000000E-03 0. -1.
    9900012    2    1    2    0    0  0.90492057381E+01  0.19850026589E+02 -0.39410678179E+02  0.46142320578E+02  0.10000025686E+02 0.  0.
        -12    1    1    2    0    0 -0.90492057381E+01 -0.19850026589E+02  0.39410678179E+02  0.45045679422E+02  0.00000000000E+00 0.  1.
         11    1    3    3    0    0  0.26251036659E+01  0.67958593574E+01 -0.12638877764E+02  0.14588218022E+02  0.51100000000E-03 0. -1.
        -11    1    3    3    0    0 -0.19454641797E+01  0.28561453536E+01 -0.45888392988E+01  0.57445490273E+01  0.51100000000E-03 0.  1.
        -12    1    3    3    0    0  0.83695662519E+01  0.10198021878E+02 -0.22182961116E+02  0.25809553528E+02  0.00000000000E+00 0.  1.
</event>
<event>
 7    1  0.3910495E-008  0.4614232E+02  0.7816164E-02  0.1320468E+00
        -11   -1    0    0    0    0  0.00000000000E+00  0.00000000000E+00  0.45593999997E+02  0.45594000000E+02  0.51100000000E-03 0.  1.
         11   -1    0    0    0    0 -0.00000000000E+00 -0.00000000000E+00 -0.45593999997E+02  0.45594000000E+02  0.51100000000E-03 0. -1.
    9900012    2    1    2    0    0 -0.41896128556E+02 -0.16348620259E+02 -0.25594166499E+01  0.46142316679E+02  0.99999901283E+01 0.  0.
        -12    1    1    2    0    0  0.41896128556E+02  0.16348620259E+02  0.25594166499E+01  0.45045683321E+02  0.00000000000E+00 0.  1.
         11    1    3    3    0    0 -0.14724860764E+02 -0.78723718137E+01 -0.28284277502E+01  0.16935045506E+02  0.51100000000E-03 0. -1.
        -11    1    3    3    0    0 -0.13462140875E+02 -0.47483125464E+01  0.33664329289E+01  0.14666580376E+02  0.51100000000E-03 0.  1.
        -12    1    3    3    0    0 -0.13709126916E+02 -0.37279358987E+01 -0.30974218287E+01  0.14540690797E+02  0.00000000000E+00 0.  1.
</event>
<event>
 7    1  0.3910495E-008  0.4614232E+02  0.7816164E-02  0.1320468E+00
        -11   -1    0    0    0    0  0.00000000000E+00  0.00000000000E+00  0.45593999997E+02  0.45594000000E+02  0.51100000000E-03 0.  1.
         11   -1    0    0    0    0 -0.00000000000E+00 -0.00000000000E+00 -0.45593999997E+02  0.45594000000E+02  0.51100000000E-03 0. -1.
    9900012    2    1    2    0    0  0.65564154058E+00 -0.42403420949E+02 -0.15186622181E+02  0.46142317995E+02  0.10000002129E+02 0.  0.
        -12    1    1    2    0    0 -0.65564154058E+00  0.42403420949E+02  0.15186622181E+02  0.45045682005E+02  0.00000000000E+00 0.  1.
         11    1    3    3    0    0  0.28238708121E+01 -0.16656762207E+02 -0.71587091974E+01  0.18348544662E+02  0.51100000000E-03 0.  1.
        -11    1    3    3    0    0  0.32441393752E-01 -0.22872320570E+02 -0.78030399023E+01  0.24166744354E+02  0.51100000000E-03 0. -1.
         12    1    3    3    0    0 -0.22006706653E+01 -0.28743381724E+01 -0.22487308166E+00  0.36270289783E+01  0.00000000000E+00 0. -1.
</event>
<event>
 7    1  0.3910495E-008  0.4614232E+02  0.7816164E-02  0.1320468E+00
        -11   -1    0    0    0    0  0.00000000000E+00  0.00000000000E+00  0.45593999997E+02  0.45594000000E+02  0.51100000000E-03 0.  1.
         11   -1    0    0    0    0 -0.00000000000E+00 -0.00000000000E+00 -0.45593999997E+02  0.45594000000E+02  0.51100000000E-03 0. -1.
    9900012    2    1    2    0    0 -0.60017897248E+01  0.33597252757E+02 -0.29399261735E+02  0.46142318039E+02  0.10000002537E+02 0.  0.
        -12    1    1    2    0    0  0.60017897248E+01 -0.33597252757E+02  0.29399261735E+02  0.45045681961E+02  0.00000000000E+00 0.  1.
         11    1    3    3    0    0 -0.14882248855E+01  0.89917423691E+01 -0.13609779560E+02  0.16379631989E+02  0.51100000000E-03 0. -1.
        -11    1    3    3    0    0  0.11082997571E+00  0.77492486030E+01 -0.48644433043E+01  0.91501883105E+01  0.51100000000E-03 0.  1.
        -12    1    3    3    0    0 -0.46243948150E+01  0.16856261785E+02 -0.10925038871E+02  0.20612497740E+02  0.00000000000E+00 0.  1.
</event>
<event>
 7    1  0.3910495E-008  0.4614232E+02  0.7816164E-02  0.1320468E+00
        -11   -1    0    0    0    0  0.00000000000E+00  0.00000000000E+00  0.45593999997E+02  0.45594000000E+02  0.51100000000E-03 0. -1.
         11   -1    0    0    0    0 -0.00000000000E+00 -0.00000000000E+00 -0.45593999997E+02  0.45594000000E+02  0.51100000000E-03 0.  1.
    9900012    2    1    2    0    0 -0.15221501089E+02 -0.28642633771E+02  0.31257302190E+02  0.46142317577E+02  0.99999983225E+01 0.  0.
        -12    1    1    2    0    0  0.15221501089E+02  0.28642633771E+02 -0.31257302190E+02  0.45045682423E+02  0.00000000000E+00 0.  1.
         11    1    3    3    0    0 -0.14915374796E+01 -0.48522948501E+01  0.16635760924E+01  0.53419972896E+01  0.51100000000E-03 0. -1.
        -11    1    3    3    0    0  0.28424435772E+00 -0.24215285409E+01  0.36092864723E+01  0.43556336427E+01  0.51100000000E-03 0.  1.
         12    1    3    3    0    0 -0.14014207967E+02 -0.21368810380E+02  0.25984439625E+02  0.36444686645E+02  0.00000000000E+00 0. -1.
</event>
<event>
 7    1  0.3910495E-008  0.4614232E+02  0.7816164E-02  0.1320468E+00
        -11   -1    0    0    0    0  0.00000000000E+00  0.00000000000E+00  0.45593999997E+02  0.45594000000E+02  0.51100000000E-03 0. -1.
         11   -1    0    0    0    0 -0.00000000000E+00 -0.00000000000E+00 -0.45593999997E+02  0.45594000000E+02  0.51100000000E-03 0.  1.
    9900012    2    1    2    0    0 -0.37522313556E+02  0.23077853919E+02 -0.94128703184E+01  0.46142317812E+02  0.10000000467E+02 0.  0.
        -12    1    1    2    0    0  0.37522313556E+02 -0.23077853919E+02  0.94128703184E+01  0.45045682188E+02  0.00000000000E+00 0.  1.
         11    1    3    3    0    0 -0.14462525742E+02  0.89839304001E+01 -0.59371809410E+01  0.18031244385E+02  0.51100000000E-03 0. -1.
        -11    1    3    3    0    0 -0.12691604659E+02  0.91588410174E+01 -0.52152516748E+01  0.16497273953E+02  0.51100000000E-03 0.  1.
        -12    1    3    3    0    0 -0.10368183156E+02  0.49350825015E+01  0.17395622974E+01  0.11613799474E+02  0.00000000000E+00 0.  1.
</event>
<event>
 7    1  0.3910495E-008  0.4614232E+02  0.7816164E-02  0.1320468E+00
        -11   -1    0    0    0    0  0.00000000000E+00  0.00000000000E+00  0.45593999997E+02  0.45594000000E+02  0.51100000000E-03 0.  1.
         11   -1    0    0    0    0 -0.00000000000E+00 -0.00000000000E+00 -0.45593999997E+02  0.45594000000E+02  0.51100000000E-03 0. -1.
    9900012    2    1    2    0    0 -0.44191616927E+02  0.47466976437E+01 -0.73268934680E+01  0.46142317487E+02  0.99999974997E+01 0.  0.
        -12    1    1    2    0    0  0.44191616927E+02 -0.47466976437E+01  0.73268934680E+01  0.45045682513E+02  0.00000000000E+00 0.  1.
         11    1    3    3    0    0 -0.26494954885E+01  0.17186317643E+01 -0.66638134975E+00  0.32276285178E+01  0.51100000000E-03 0. -1.
        -11    1    3    3    0    0 -0.24941712163E+02  0.34711025526E+01 -0.45320514122E+00  0.25186165919E+02  0.51100000000E-03 0.  1.
        -12    1    3    3    0    0 -0.16600409276E+02 -0.44303667317E+00 -0.62073069770E+01  0.17728523050E+02  0.00000000000E+00 0.  1.
</event>
<event>
 7    1  0.3910495E-008  0.4614232E+02  0.7816164E-02  0.1320468E+00
        -11   -1    0    0    0    0  0.00000000000E+00  0.00000000000E+00  0.45593999997E+02  0.45594000000E+02  0.51100000000E-03 0.  1.
         11   -1    0    0    0    0 -0.00000000000E+00 -0.00000000000E+00 -0.45593999997E+02  0.45594000000E+02  0.51100000000E-03 0. -1.
    9900012    2    1    2    0    0  0.36764316660E+01 -0.11909673273E+02 -0.43286915574E+02  0.46142317330E+02  0.99999960703E+01 0.  0.
        -12    1    1    2    0    0 -0.36764316660E+01  0.11909673273E+02  0.43286915574E+02  0.45045682670E+02  0.00000000000E+00 0.  1.
         11    1    3    3    0    0 -0.12110643406E+00 -0.56618876442E+01 -0.15169776976E+02  0.16192398594E+02  0.51100000000E-03 0. -1.
        -11    1    3    3    0    0  0.38843242611E+01 -0.62711212156E+01 -0.13930974807E+02  0.15763470290E+02  0.51100000000E-03 0.  1.
        -12    1    3    3    0    0 -0.86786161023E-01  0.23335586901E-01 -0.14186163792E+02  0.14186448446E+02  0.00000000000E+00 0.  1.
</event>
<event>
 7    1  0.3910495E-008  0.4614232E+02  0.7816164E-02  0.1320468E+00
        -11   -1    0    0    0    0  0.00000000000E+00  0.00000000000E+00  0.45593999997E+02  0.45594000000E+02  0.51100000000E-03 0.  1.
         11   -1    0    0    0    0 -0.00000000000E+00 -0.00000000000E+00 -0.45593999997E+02  0.45594000000E+02  0.51100000000E-03 0. -1.
    9900012    2    1    2    0    0 -0.28846231021E+02  0.31592577303E+02 -0.14103806842E+02  0.46142319272E+02  0.10000013780E+02 0.  0.
        -12    1    1    2    0    0  0.28846231021E+02 -0.31592577303E+02  0.14103806842E+02  0.45045680728E+02  0.00000000000E+00 0.  1.
         11    1    3    3    0    0 -0.25591477915E+02  0.30097622446E+02 -0.14842072808E+02  0.42202816781E+02  0.51100000000E-03 0. -1.
        -11    1    3    3    0    0 -0.13366326265E+01  0.33476094009E+00 -0.38699125788E+00  0.14312281998E+01  0.51100000000E-03 0.  1.
         12    1    3    3    0    0 -0.19181204793E+01  0.11601939176E+01  0.11252572240E+01  0.25082742912E+01  0.00000000000E+00 0. -1.
</event>
<event>
 7    1  0.3910495E-008  0.4614232E+02  0.7816164E-02  0.1320468E+00
        -11   -1    0    0    0    0  0.00000000000E+00  0.00000000000E+00  0.45593999997E+02  0.45594000000E+02  0.51100000000E-03 0. -1.
         11   -1    0    0    0    0 -0.00000000000E+00 -0.00000000000E+00 -0.45593999997E+02  0.45594000000E+02  0.51100000000E-03 0.  1.
    9900012    2    1    2    0    0 -0.29080762089E+02 -0.28341004597E+02  0.19498980975E+02  0.46142317362E+02  0.99999963595E+01 0.  0.
        -12    1    1    2    0    0  0.29080762089E+02  0.28341004597E+02 -0.19498980975E+02  0.45045682638E+02  0.00000000000E+00 0.  1.
         11    1    3    3    0    0 -0.57606843987E+01 -0.10202134347E+02  0.58052019244E+01  0.13075526744E+02  0.51100000000E-03 0. -1.
        -11    1    3    3    0    0 -0.27071699806E+01 -0.88185226954E+00 -0.10516644584E+00  0.28491214386E+01  0.51100000000E-03 0.  1.
        -12    1    3    3    0    0 -0.20612907710E+02 -0.17257017980E+02  0.13798945497E+02  0.30217669180E+02  0.00000000000E+00 0.  1.
</event>
<event>
 7    1  0.3910495E-008  0.4614232E+02  0.7816164E-02  0.1320468E+00
        -11   -1    0    0    0    0  0.00000000000E+00  0.00000000000E+00  0.45593999997E+02  0.45594000000E+02  0.51100000000E-03 0.  1.
         11   -1    0    0    0    0 -0.00000000000E+00 -0.00000000000E+00 -0.45593999997E+02  0.45594000000E+02  0.51100000000E-03 0. -1.
    9900012    2    1    2    0    0  0.42019763377E+02  0.79730257490E+01 -0.14138031758E+02  0.46142316569E+02  0.99999891251E+01 0.  0.
        -12    1    1    2    0    0 -0.42019763377E+02 -0.79730257490E+01  0.14138031758E+02  0.45045683431E+02  0.00000000000E+00 0.  1.
         11    1    3    3    0    0  0.18242148099E+02  0.51250683990E+00 -0.37233180935E+01  0.18625298076E+02  0.51100000000E-03 0. -1.
        -11    1    3    3    0    0  0.47113556521E+01 -0.29210293001E+00 -0.32179615120E+01  0.57129215605E+01  0.51100000000E-03 0.  1.
         12    1    3    3    0    0  0.19066259626E+02  0.77526218391E+01 -0.71967521526E+01  0.21804096932E+02  0.00000000000E+00 0. -1.
</event>
<event>
 7    1  0.3910495E-008  0.4614232E+02  0.7816164E-02  0.1320468E+00
        -11   -1    0    0    0    0  0.00000000000E+00  0.00000000000E+00  0.45593999997E+02  0.45594000000E+02  0.51100000000E-03 0.  1.
         11   -1    0    0    0    0 -0.00000000000E+00 -0.00000000000E+00 -0.45593999997E+02  0.45594000000E+02  0.51100000000E-03 0. -1.
    9900012    2    1    2    0    0 -0.17734677965E+02  0.35646464634E+02 -0.21069507583E+02  0.46142318817E+02  0.10000009628E+02 0.  0.
        -12    1    1    2    0    0  0.17734677965E+02 -0.35646464634E+02  0.21069507583E+02  0.45045681183E+02  0.00000000000E+00 0.  1.
         11    1    3    3    0    0 -0.25495852880E+01  0.10412380569E+02 -0.68411147296E+01  0.12716874823E+02  0.51100000000E-03 0. -1.
        -11    1    3    3    0    0 -0.54235523764E+01  0.73412465056E+01 -0.11297087665E+01  0.91970137976E+01  0.51100000000E-03 0.  1.
         12    1    3    3    0    0 -0.97615403010E+01  0.17892837560E+02 -0.13098684087E+02  0.24228430197E+02  0.00000000000E+00 0. -1.
</event>
<event>
 7    1  0.3910495E-008  0.4614232E+02  0.7816164E-02  0.1320468E+00
        -11   -1    0    0    0    0  0.00000000000E+00  0.00000000000E+00  0.45593999997E+02  0.45594000000E+02  0.51100000000E-03 0.  1.
         11   -1    0    0    0    0 -0.00000000000E+00 -0.00000000000E+00 -0.45593999997E+02  0.45594000000E+02  0.51100000000E-03 0. -1.
    9900012    2    1    2    0    0  0.17612723339E+02 -0.39800301279E+02 -0.11612113614E+02  0.46142321096E+02  0.10000030410E+02 0.  0.
        -12    1    1    2    0    0 -0.17612723339E+02  0.39800301279E+02  0.11612113614E+02  0.45045678904E+02  0.00000000000E+00 0.  1.
         11    1    3    3    0    0  0.73714371978E+01 -0.14363210309E+02 -0.34297909704E+01  0.16504646713E+02  0.51100000000E-03 0. -1.
        -11    1    3    3    0    0  0.55276438753E+01 -0.16610373516E+02 -0.88366497853E+01  0.19609837706E+02  0.51100000000E-03 0.  1.
        -12    1    3    3    0    0  0.47136422664E+01 -0.88267174537E+01  0.65432714139E+00  0.10027836678E+02  0.00000000000E+00 0.  1.
</event>
<event>
 7    1  0.3910495E-008  0.4614232E+02  0.7816164E-02  0.1320468E+00
        -11   -1    0    0    0    0  0.00000000000E+00  0.00000000000E+00  0.45593999997E+02  0.45594000000E+02  0.51100000000E-03 0.  1.
         11   -1    0    0    0    0 -0.00000000000E+00 -0.00000000000E+00 -0.45593999997E+02  0.45594000000E+02  0.51100000000E-03 0. -1.
    9900012    2    1    2    0    0  0.41644248258E+02 -0.97472228921E+01  0.14137245609E+02  0.46142317849E+02  0.10000000801E+02 0.  0.
        -12    1    1    2    0    0 -0.41644248258E+02  0.97472228921E+01 -0.14137245609E+02  0.45045682151E+02  0.00000000000E+00 0.  1.
         11    1    3    3    0    0  0.76081589850E+01 -0.29088121621E+01  0.66645462850E+01  0.10524326524E+02  0.51100000000E-03 0. -1.
        -11    1    3    3    0    0  0.64015378403E-01 -0.16455296563E+00 -0.60212158573E-01  0.18655136647E+00  0.51100000000E-03 0.  1.
        -12    1    3    3    0    0  0.33972073894E+02 -0.66738577643E+01  0.75329114824E+01  0.35431439959E+02  0.00000000000E+00 0.  1.
</event>
<event>
 7    1  0.3910495E-008  0.4614232E+02  0.7816164E-02  0.1320468E+00
        -11   -1    0    0    0    0  0.00000000000E+00  0.00000000000E+00  0.45593999997E+02  0.45594000000E+02  0.51100000000E-03 0.  1.
         11   -1    0    0    0    0 -0.00000000000E+00 -0.00000000000E+00 -0.45593999997E+02  0.45594000000E+02  0.51100000000E-03 0. -1.
    9900012    2    1    2    0    0 -0.36317103721E+02  0.71843728556E+00 -0.26639536900E+02  0.46142322060E+02  0.10000039204E+02 0.  0.
        -12    1    1    2    0    0  0.36317103721E+02 -0.71843728556E+00  0.26639536900E+02  0.45045677940E+02  0.00000000000E+00 0.  1.
         11    1    3    3    0    0 -0.33026579910E+01 -0.27192113204E+00 -0.48215552747E+01  0.58505458238E+01  0.51100000000E-03 0.  1.
        -11    1    3    3    0    0 -0.18019829799E+02  0.41691599103E+01 -0.13013174022E+02  0.22615014011E+02  0.51100000000E-03 0. -1.
        -12    1    3    3    0    0 -0.14994615931E+02 -0.31788014927E+01 -0.88048076033E+01  0.17676762226E+02  0.00000000000E+00 0.  1.
</event>
<event>
 7    1  0.3910495E-008  0.4614232E+02  0.7816164E-02  0.1320468E+00
        -11   -1    0    0    0    0  0.00000000000E+00  0.00000000000E+00  0.45593999997E+02  0.45594000000E+02  0.51100000000E-03 0. -1.
         11   -1    0    0    0    0 -0.00000000000E+00 -0.00000000000E+00 -0.45593999997E+02  0.45594000000E+02  0.51100000000E-03 0.  1.
    9900012    2    1    2    0    0 -0.28077618806E+02  0.29776678614E+02  0.18817815959E+02  0.46142318025E+02  0.10000002409E+02 0.  0.
        -12    1    1    2    0    0  0.28077618806E+02 -0.29776678614E+02 -0.18817815959E+02  0.45045681975E+02  0.00000000000E+00 0.  1.
         11    1    3    3    0    0 -0.18277856252E+01  0.83349976240E+00  0.21856128688E+01  0.29685730611E+01  0.51100000000E-03 0. -1.
        -11    1    3    3    0    0 -0.93206976960E+01  0.69264100701E+01  0.20046685603E+01  0.11784280135E+02  0.51100000000E-03 0.  1.
         12    1    3    3    0    0 -0.16929135485E+02  0.22016768782E+02  0.14627534530E+02  0.31389464829E+02  0.00000000000E+00 0. -1.
</event>
<event>
 7    1  0.3910495E-008  0.4614232E+02  0.7816164E-02  0.1320468E+00
        -11   -1    0    0    0    0  0.00000000000E+00  0.00000000000E+00  0.45593999997E+02  0.45594000000E+02  0.51100000000E-03 0. -1.
         11   -1    0    0    0    0 -0.00000000000E+00 -0.00000000000E+00 -0.45593999997E+02  0.45594000000E+02  0.51100000000E-03 0.  1.
    9900012    2    1    2    0    0  0.87929075373E+01 -0.35296313380E+02 -0.26570069890E+02  0.46142316798E+02  0.99999912220E+01 0.  0.
        -12    1    1    2    0    0 -0.87929075373E+01  0.35296313380E+02  0.26570069890E+02  0.45045683202E+02  0.00000000000E+00 0.  1.
         11    1    3    3    0    0  0.48583970779E+01 -0.22668512332E+02 -0.21252378248E+02  0.31450422175E+02  0.51100000000E-03 0. -1.
        -11    1    3    3    0    0  0.18307799722E+01 -0.23535178325E+01 -0.23388617924E+01  0.37896010660E+01  0.51100000000E-03 0.  1.
        -12    1    3    3    0    0  0.21037304872E+01 -0.10274283215E+02 -0.29788298492E+01  0.10902293558E+02  0.00000000000E+00 0.  1.
</event>
<event>
 7    1  0.3910495E-008  0.4614232E+02  0.7816164E-02  0.1320468E+00
        -11   -1    0    0    0    0  0.00000000000E+00  0.00000000000E+00  0.45593999997E+02  0.45594000000E+02  0.51100000000E-03 0.  1.
         11   -1    0    0    0    0 -0.00000000000E+00 -0.00000000000E+00 -0.45593999997E+02  0.45594000000E+02  0.51100000000E-03 0. -1.
    9900012    2    1    2    0    0  0.24935781562E+02  0.34632455135E+02 -0.14419201520E+02  0.46142317374E+02  0.99999964656E+01 0.  0.
        -12    1    1    2    0    0 -0.24935781562E+02 -0.34632455135E+02  0.14419201520E+02  0.45045682626E+02  0.00000000000E+00 0.  1.
         11    1    3    3    0    0  0.33112880936E+01  0.38994756178E+01 -0.28058929776E+00  0.51234040976E+01  0.51100000000E-03 0.  1.
        -11    1    3    3    0    0  0.16971384788E+02  0.28428180558E+02 -0.10715898962E+02  0.34799710377E+02  0.51100000000E-03 0. -1.
        -12    1    3    3    0    0  0.46531086809E+01  0.23047989590E+01 -0.34227132608E+01  0.62192028994E+01  0.00000000000E+00 0.  1.
</event>
<event>
 7    1  0.3910495E-008  0.4614232E+02  0.7816164E-02  0.1320468E+00
        -11   -1    0    0    0    0  0.00000000000E+00  0.00000000000E+00  0.45593999997E+02  0.45594000000E+02  0.51100000000E-03 0.  1.
         11   -1    0    0    0    0 -0.00000000000E+00 -0.00000000000E+00 -0.45593999997E+02  0.45594000000E+02  0.51100000000E-03 0. -1.
    9900012    2    1    2    0    0  0.15198016244E+02  0.17960475696E+02 -0.38412954976E+02  0.46142317688E+02  0.99999993332E+01 0.  0.
        -12    1    1    2    0    0 -0.15198016244E+02 -0.17960475696E+02  0.38412954976E+02  0.45045682312E+02  0.00000000000E+00 0.  1.
         11    1    3    3    0    0  0.53343830158E+01  0.25949892653E+01 -0.44633416808E+01  0.74236803991E+01  0.51100000000E-03 0.  1.
        -11    1    3    3    0    0  0.73388228628E+01  0.85672030269E+01 -0.22417898374E+02  0.25096164178E+02  0.51100000000E-03 0. -1.
        -12    1    3    3    0    0  0.25248103654E+01  0.67982834040E+01 -0.11531714921E+02  0.13622473111E+02  0.00000000000E+00 0.  1.
</event>
<event>
 7    1  0.3910495E-008  0.4614232E+02  0.7816164E-02  0.1320468E+00
        -11   -1    0    0    0    0  0.00000000000E+00  0.00000000000E+00  0.45593999997E+02  0.45594000000E+02  0.51100000000E-03 0. -1.
         11   -1    0    0    0    0 -0.00000000000E+00 -0.00000000000E+00 -0.45593999997E+02  0.45594000000E+02  0.51100000000E-03 0.  1.
    9900012    2    1    2    0    0  0.27988069991E+02 -0.33302189573E+01  0.35138171887E+02  0.46142317147E+02  0.99999943985E+01 0.  0.
        -12    1    1    2    0    0 -0.27988069991E+02  0.33302189573E+01 -0.35138171887E+02  0.45045682853E+02  0.00000000000E+00 0.  1.
         11    1    3    3    0    0  0.48675346299E+01  0.74463072819E+00  0.38073452988E+01  0.62244073437E+01  0.51100000000E-03 0.  1.
        -11    1    3    3    0    0  0.15621403638E+02 -0.63636285433E+01  0.22236453290E+02  0.27910282604E+02  0.51100000000E-03 0. -1.
         12    1    3    3    0    0  0.74991317230E+01  0.22887788578E+01  0.90943732983E+01  0.12007627199E+02  0.00000000000E+00 0. -1.
</event>
<event>
 7    1  0.3910495E-008  0.4614232E+02  0.7816164E-02  0.1320468E+00
        -11   -1    0    0    0    0  0.00000000000E+00  0.00000000000E+00  0.45593999997E+02  0.45594000000E+02  0.51100000000E-03 0. -1.
         11   -1    0    0    0    0 -0.00000000000E+00 -0.00000000000E+00 -0.45593999997E+02  0.45594000000E+02  0.51100000000E-03 0.  1.
    9900012    2    1    2    0    0  0.21824130527E+02 -0.38451853590E+02 -0.86183414900E+01  0.46142317323E+02  0.99999960067E+01 0.  0.
        -12    1    1    2    0    0 -0.21824130527E+02  0.38451853590E+02  0.86183414900E+01  0.45045682677E+02  0.00000000000E+00 0.  1.
         11    1    3    3    0    0  0.99957100981E+01 -0.15279530719E+02 -0.43942854186E+01  0.18779989988E+02  0.51100000000E-03 0. -1.
        -11    1    3    3    0    0  0.69581524163E+01 -0.98614431720E+01 -0.52282983451E+01  0.13152910337E+02  0.51100000000E-03 0.  1.
         12    1    3    3    0    0  0.48702680128E+01 -0.13310879699E+02  0.10042422737E+01  0.14209416998E+02  0.00000000000E+00 0. -1.
</event>
<event>
 7    1  0.3910495E-008  0.4614232E+02  0.7816164E-02  0.1320468E+00
        -11   -1    0    0    0    0  0.00000000000E+00  0.00000000000E+00  0.45593999997E+02  0.45594000000E+02  0.51100000000E-03 0.  1.
         11   -1    0    0    0    0 -0.00000000000E+00 -0.00000000000E+00 -0.45593999997E+02  0.45594000000E+02  0.51100000000E-03 0. -1.
    9900012    2    1    2    0    0  0.68233927327E+01 -0.33983861890E+02 -0.28768941350E+02  0.46142317147E+02  0.99999943989E+01 0.  0.
        -12    1    1    2    0    0 -0.68233927327E+01  0.33983861890E+02  0.28768941350E+02  0.45045682853E+02  0.00000000000E+00 0.  1.
         11    1    3    3    0    0  0.68723731515E+01 -0.30381990609E+02 -0.27083666212E+02  0.41277352651E+02  0.51100000000E-03 0. -1.
        -11    1    3    3    0    0 -0.10424458156E+01 -0.33908280885E+01 -0.13443348813E+01  0.37936321564E+01  0.51100000000E-03 0.  1.
         12    1    3    3    0    0  0.99346539686E+00 -0.21104319217E+00 -0.34094025618E+00  0.10713323397E+01  0.00000000000E+00 0. -1.
</event>
<event>
 7    1  0.3910495E-008  0.4614232E+02  0.7816164E-02  0.1320468E+00
        -11   -1    0    0    0    0  0.00000000000E+00  0.00000000000E+00  0.45593999997E+02  0.45594000000E+02  0.51100000000E-03 0. -1.
         11   -1    0    0    0    0 -0.00000000000E+00 -0.00000000000E+00 -0.45593999997E+02  0.45594000000E+02  0.51100000000E-03 0.  1.
    9900012    2    1    2    0    0 -0.12543371174E+02  0.14030354928E+02  0.40925865560E+02  0.46142317725E+02  0.99999996694E+01 0.  0.
        -12    1    1    2    0    0  0.12543371174E+02 -0.14030354928E+02 -0.40925865560E+02  0.45045682275E+02  0.00000000000E+00 0.  1.
         11    1    3    3    0    0 -0.41760926342E+01  0.10197537392E+02  0.26223420650E+02  0.28444635863E+02  0.51100000000E-03 0. -1.
        -11    1    3    3    0    0 -0.67787983973E+00  0.15145529379E+01  0.14602509332E+01  0.22103675550E+01  0.51100000000E-03 0.  1.
        -12    1    3    3    0    0 -0.76893987002E+01  0.23182645981E+01  0.13242193976E+02  0.15487314307E+02  0.00000000000E+00 0.  1.
</event>
<event>
 7    1  0.3910495E-008  0.4614232E+02  0.7816164E-02  0.1320468E+00
        -11   -1    0    0    0    0  0.00000000000E+00  0.00000000000E+00  0.45593999997E+02  0.45594000000E+02  0.51100000000E-03 0. -1.
         11   -1    0    0    0    0 -0.00000000000E+00 -0.00000000000E+00 -0.45593999997E+02  0.45594000000E+02  0.51100000000E-03 0.  1.
    9900012    2    1    2    0    0 -0.37072320687E+01  0.42343964336E+02  0.14911693583E+02  0.46142317734E+02  0.99999997558E+01 0.  0.
        -12    1    1    2    0    0  0.37072320687E+01 -0.42343964336E+02 -0.14911693583E+02  0.45045682266E+02  0.00000000000E+00 0.  1.
         11    1    3    3    0    0 -0.22032123621E+01  0.19035823685E+02  0.55222433118E+01  0.19942715450E+02  0.51100000000E-03 0. -1.
        -11    1    3    3    0    0 -0.38421659966E-01  0.15892802866E+02  0.27298317420E+01  0.16125589625E+02  0.51100000000E-03 0.  1.
        -12    1    3    3    0    0 -0.14655980467E+01  0.74153377849E+01  0.66596185292E+01  0.10074012659E+02  0.00000000000E+00 0.  1.
</event>
<event>
 7    1  0.3910495E-008  0.4614232E+02  0.7816164E-02  0.1320468E+00
        -11   -1    0    0    0    0  0.00000000000E+00  0.00000000000E+00  0.45593999997E+02  0.45594000000E+02  0.51100000000E-03 0. -1.
         11   -1    0    0    0    0 -0.00000000000E+00 -0.00000000000E+00 -0.45593999997E+02  0.45594000000E+02  0.51100000000E-03 0.  1.
    9900012    2    1    2    0    0 -0.28275767517E+02  0.30040095216E+02 -0.18088317514E+02  0.46142316747E+02  0.99999907515E+01 0.  0.
        -12    1    1    2    0    0  0.28275767517E+02 -0.30040095216E+02  0.18088317514E+02  0.45045683253E+02  0.00000000000E+00 0.  1.
         11    1    3    3    0    0 -0.12031995749E+02  0.13182935972E+02 -0.80246725627E+01  0.19569212875E+02  0.51100000000E-03 0. -1.
        -11    1    3    3    0    0 -0.57122413761E+01  0.39526196522E+01  0.30475732621E+00  0.69531130397E+01  0.51100000000E-03 0.  1.
        -12    1    3    3    0    0 -0.10531530392E+02  0.12904539591E+02 -0.10368402278E+02  0.19619990832E+02  0.00000000000E+00 0.  1.
</event>
<event>
 7    1  0.3910495E-008  0.4614232E+02  0.7816164E-02  0.1320468E+00
        -11   -1    0    0    0    0  0.00000000000E+00  0.00000000000E+00  0.45593999997E+02  0.45594000000E+02  0.51100000000E-03 0. -1.
         11   -1    0    0    0    0 -0.00000000000E+00 -0.00000000000E+00 -0.45593999997E+02  0.45594000000E+02  0.51100000000E-03 0.  1.
    9900012    2    1    2    0    0  0.30463579298E+02  0.27876196334E+02  0.18000040821E+02  0.46142318129E+02  0.10000003352E+02 0.  0.
        -12    1    1    2    0    0 -0.30463579298E+02 -0.27876196334E+02 -0.18000040821E+02  0.45045681871E+02  0.00000000000E+00 0.  1.
         11    1    3    3    0    0  0.85436299309E+01  0.62441589933E+01  0.49730459824E+01  0.11692489920E+02  0.51100000000E-03 0. -1.
        -11    1    3    3    0    0  0.81835996211E+01  0.13383472210E+02  0.46082407607E+01  0.16350061600E+02  0.51100000000E-03 0.  1.
        -12    1    3    3    0    0  0.13736349746E+02  0.82485651306E+01  0.84187540778E+01  0.18099766608E+02  0.00000000000E+00 0.  1.
</event>
<event>
 7    1  0.3910495E-008  0.4614232E+02  0.7816164E-02  0.1320468E+00
        -11   -1    0    0    0    0  0.00000000000E+00  0.00000000000E+00  0.45593999997E+02  0.45594000000E+02  0.51100000000E-03 0.  1.
         11   -1    0    0    0    0 -0.00000000000E+00 -0.00000000000E+00 -0.45593999997E+02  0.45594000000E+02  0.51100000000E-03 0. -1.
    9900012    2    1    2    0    0 -0.15274743605E+02  0.15440768757E+02 -0.39463633956E+02  0.46142317221E+02  0.99999950743E+01 0.  0.
        -12    1    1    2    0    0  0.15274743605E+02 -0.15440768757E+02  0.39463633956E+02  0.45045682779E+02  0.00000000000E+00 0.  1.
         11    1    3    3    0    0 -0.26274524794E+01  0.90995902706E+01 -0.16173420771E+02  0.18742614260E+02  0.51100000000E-03 0. -1.
        -11    1    3    3    0    0 -0.33423744832E+01  0.30824334811E+01 -0.81478396844E+01  0.93306031496E+01  0.51100000000E-03 0.  1.
        -12    1    3    3    0    0 -0.93049166426E+01  0.32587450050E+01 -0.15142373501E+02  0.18069099811E+02  0.00000000000E+00 0.  1.
</event>
<event>
 7    1  0.3910495E-008  0.4614232E+02  0.7816164E-02  0.1320468E+00
        -11   -1    0    0    0    0  0.00000000000E+00  0.00000000000E+00  0.45593999997E+02  0.45594000000E+02  0.51100000000E-03 0. -1.
         11   -1    0    0    0    0 -0.00000000000E+00 -0.00000000000E+00 -0.45593999997E+02  0.45594000000E+02  0.51100000000E-03 0.  1.
    9900012    2    1    2    0    0 -0.38531944657E+02  0.85040343192E+01 -0.21727495717E+02  0.46142318421E+02  0.10000006019E+02 0.  0.
        -12    1    1    2    0    0  0.38531944657E+02 -0.85040343192E+01  0.21727495717E+02  0.45045681579E+02  0.00000000000E+00 0.  1.
         11    1    3    3    0    0 -0.10979939730E+02  0.71853863579E+00 -0.31747415972E+01  0.11452264349E+02  0.51100000000E-03 0. -1.
        -11    1    3    3    0    0 -0.62118899577E+01 -0.50938044851E+00 -0.24408193075E+01  0.66936271513E+01  0.51100000000E-03 0.  1.
         12    1    3    3    0    0 -0.21340114970E+02  0.82948761320E+01 -0.16111934812E+02  0.27996426921E+02  0.00000000000E+00 0. -1.
</event>
<event>
 7    1  0.3910495E-008  0.4614232E+02  0.7816164E-02  0.1320468E+00
        -11   -1    0    0    0    0  0.00000000000E+00  0.00000000000E+00  0.45593999997E+02  0.45594000000E+02  0.51100000000E-03 0.  1.
         11   -1    0    0    0    0 -0.00000000000E+00 -0.00000000000E+00 -0.45593999997E+02  0.45594000000E+02  0.51100000000E-03 0. -1.
    9900012    2    1    2    0    0 -0.21458626395E+02 -0.19720122220E+01 -0.39556946963E+02  0.46142317277E+02  0.99999955828E+01 0.  0.
        -12    1    1    2    0    0  0.21458626395E+02  0.19720122220E+01  0.39556946963E+02  0.45045682723E+02  0.00000000000E+00 0.  1.
         11    1    3    3    0    0 -0.12890707182E+02  0.12978648400E+01 -0.19209887655E+02  0.23170553916E+02  0.51100000000E-03 0. -1.
        -11    1    3    3    0    0 -0.65004115278E+01 -0.32353146410E+00 -0.92855847844E+01  0.11339405085E+02  0.51100000000E-03 0.  1.
        -12    1    3    3    0    0 -0.20675076853E+01 -0.29463455979E+01 -0.11061474523E+02  0.11632358275E+02  0.00000000000E+00 0.  1.
</event>
<event>
 7    1  0.3910495E-008  0.4614232E+02  0.7816164E-02  0.1320468E+00
        -11   -1    0    0    0    0  0.00000000000E+00  0.00000000000E+00  0.45593999997E+02  0.45594000000E+02  0.51100000000E-03 0.  1.
         11   -1    0    0    0    0 -0.00000000000E+00 -0.00000000000E+00 -0.45593999997E+02  0.45594000000E+02  0.51100000000E-03 0. -1.
    9900012    2    1    2    0    0  0.27699434066E+02  0.29659585866E+02 -0.19549011746E+02  0.46142317171E+02  0.99999946166E+01 0.  0.
        -12    1    1    2    0    0 -0.27699434066E+02 -0.29659585866E+02  0.19549011746E+02  0.45045682829E+02  0.00000000000E+00 0.  1.
         11    1    3    3    0    0  0.15174575348E+01  0.16938415291E+01 -0.35878401281E+01  0.42478669402E+01  0.51100000000E-03 0.  1.
        -11    1    3    3    0    0  0.26413785469E+01  0.39837486501E+01 -0.39720141185E+01  0.62148234371E+01  0.51100000000E-03 0. -1.
         12    1    3    3    0    0  0.23540597984E+02  0.23981995687E+02 -0.11989157499E+02  0.35679626793E+02  0.00000000000E+00 0. -1.
</event>
<event>
 7    1  0.3910495E-008  0.4614232E+02  0.7816164E-02  0.1320468E+00
        -11   -1    0    0    0    0  0.00000000000E+00  0.00000000000E+00  0.45593999997E+02  0.45594000000E+02  0.51100000000E-03 0. -1.
         11   -1    0    0    0    0 -0.00000000000E+00 -0.00000000000E+00 -0.45593999997E+02  0.45594000000E+02  0.51100000000E-03 0.  1.
    9900012    2    1    2    0    0  0.25456262997E+02 -0.37155077301E+02 -0.76967526391E+00  0.46142317687E+02  0.99999993236E+01 0.  0.
        -12    1    1    2    0    0 -0.25456262997E+02  0.37155077301E+02  0.76967526391E+00  0.45045682313E+02  0.00000000000E+00 0.  1.
         11    1    3    3    0    0  0.11018262644E+02 -0.15991229489E+02 -0.32462741699E+01  0.19689078915E+02  0.51100000000E-03 0. -1.
        -11    1    3    3    0    0  0.98935566676E+01 -0.18594428839E+02  0.26571354809E+01  0.21229592945E+02  0.51100000000E-03 0.  1.
        -12    1    3    3    0    0  0.45444436859E+01 -0.25694189727E+01 -0.18053657486E+00  0.52236458270E+01  0.00000000000E+00 0.  1.
</event>
<event>
 7    1  0.3910495E-008  0.4614232E+02  0.7816164E-02  0.1320468E+00
        -11   -1    0    0    0    0  0.00000000000E+00  0.00000000000E+00  0.45593999997E+02  0.45594000000E+02  0.51100000000E-03 0.  1.
         11   -1    0    0    0    0 -0.00000000000E+00 -0.00000000000E+00 -0.45593999997E+02  0.45594000000E+02  0.51100000000E-03 0. -1.
    9900012    2    1    2    0    0  0.71663422808E+01  0.40096483077E+02 -0.19236140210E+02  0.46142317554E+02  0.99999981149E+01 0.  0.
        -12    1    1    2    0    0 -0.71663422808E+01 -0.40096483077E+02  0.19236140210E+02  0.45045682446E+02  0.00000000000E+00 0.  1.
         11    1    3    3    0    0  0.58418720730E+01  0.27754492686E+02 -0.15352554210E+02  0.32251205475E+02  0.51100000000E-03 0. -1.
        -11    1    3    3    0    0  0.10604246851E+00  0.71368061836E+01 -0.46088108570E+01  0.84962571339E+01  0.51100000000E-03 0.  1.
         12    1    3    3    0    0  0.12184277393E+01  0.52051842071E+01  0.72522485721E+00  0.53948549452E+01  0.00000000000E+00 0. -1.
</event>
<event>
 7    1  0.3910495E-008  0.4614232E+02  0.7816164E-02  0.1320468E+00
        -11   -1    0    0    0    0  0.00000000000E+00  0.00000000000E+00  0.45593999997E+02  0.45594000000E+02  0.51100000000E-03 0. -1.
         11   -1    0    0    0    0 -0.00000000000E+00 -0.00000000000E+00 -0.45593999997E+02  0.45594000000E+02  0.51100000000E-03 0.  1.
    9900012    2    1    2    0    0  0.20300137762E+02 -0.16853484217E+02  0.36509970209E+02  0.46142318208E+02  0.10000004077E+02 0.  0.
        -12    1    1    2    0    0 -0.20300137762E+02  0.16853484217E+02 -0.36509970209E+02  0.45045681792E+02  0.00000000000E+00 0.  1.
         11    1    3    3    0    0  0.71534099919E+01 -0.71801558416E+01  0.16459169535E+02  0.19329515629E+02  0.51100000000E-03 0. -1.
        -11    1    3    3    0    0  0.70076925923E+01 -0.92609950651E+01  0.12294103759E+02  0.16912089539E+02  0.51100000000E-03 0.  1.
        -12    1    3    3    0    0  0.61390351773E+01 -0.41233331039E+00  0.77566969155E+01  0.99007130403E+01  0.00000000000E+00 0.  1.
</event>
<event>
 7    1  0.3910495E-008  0.4614232E+02  0.7816164E-02  0.1320468E+00
        -11   -1    0    0    0    0  0.00000000000E+00  0.00000000000E+00  0.45593999997E+02  0.45594000000E+02  0.51100000000E-03 0. -1.
         11   -1    0    0    0    0 -0.00000000000E+00 -0.00000000000E+00 -0.45593999997E+02  0.45594000000E+02  0.51100000000E-03 0.  1.
    9900012    2    1    2    0    0 -0.27880351769E+02  0.61484352620E+01  0.34842448187E+02  0.46142318002E+02  0.10000002199E+02 0.  0.
        -12    1    1    2    0    0  0.27880351769E+02 -0.61484352620E+01 -0.34842448187E+02  0.45045681998E+02  0.00000000000E+00 0.  1.
         11    1    3    3    0    0 -0.26738536415E+02  0.45454418628E+01  0.31466076871E+02  0.41541838732E+02  0.51100000000E-03 0. -1.
        -11    1    3    3    0    0  0.20884366372E+00 -0.20730939820E+00  0.18527650202E+01  0.18759880980E+01  0.51100000000E-03 0.  1.
        -12    1    3    3    0    0 -0.13506590184E+01  0.18103027974E+01  0.15236062962E+01  0.27244911724E+01  0.00000000000E+00 0.  1.
</event>
<event>
 7    1  0.3910495E-008  0.4614232E+02  0.7816164E-02  0.1320468E+00
        -11   -1    0    0    0    0  0.00000000000E+00  0.00000000000E+00  0.45593999997E+02  0.45594000000E+02  0.51100000000E-03 0. -1.
         11   -1    0    0    0    0 -0.00000000000E+00 -0.00000000000E+00 -0.45593999997E+02  0.45594000000E+02  0.51100000000E-03 0.  1.
    9900012    2    1    2    0    0 -0.14163094328E+02  0.40990566524E+02  0.12177586360E+02  0.46142318803E+02  0.10000009504E+02 0.  0.
        -12    1    1    2    0    0  0.14163094328E+02 -0.40990566524E+02 -0.12177586360E+02  0.45045681197E+02  0.00000000000E+00 0.  1.
         11    1    3    3    0    0 -0.24875596456E+01  0.35392167430E+01  0.90477431527E+00  0.44195729394E+01  0.51100000000E-03 0. -1.
        -11    1    3    3    0    0 -0.80033240845E+01  0.16648088977E+02  0.87764524335E+01  0.20450872367E+02  0.51100000000E-03 0.  1.
        -12    1    3    3    0    0 -0.36722105979E+01  0.20803260804E+02  0.24963596108E+01  0.21271873497E+02  0.00000000000E+00 0.  1.
</event>
<event>
 7    1  0.3916130E-008  0.4614231E+02  0.7816164E-02  0.1320468E+00
        -11   -1    0    0    0    0  0.00000000000E+00  0.00000000000E+00  0.45593999997E+02  0.45594000000E+02  0.51100000000E-03 0. -1.
         11   -1    0    0    0    0 -0.00000000000E+00 -0.00000000000E+00 -0.45593999997E+02  0.45594000000E+02  0.51100000000E-03 0.  1.
    9900012    2    1    2    0    0 -0.39320516103E+02  0.21948826027E+02  0.11225268598E+01  0.46142311892E+02  0.99999464802E+01 0.  0.
        -12    1    1    2    0    0  0.39320516103E+02 -0.21948826027E+02 -0.11225268598E+01  0.45045688108E+02  0.00000000000E+00 0.  1.
         11    1    3    3    0    0 -0.23255682022E+02  0.10480572495E+02  0.40269463084E+01  0.25824125212E+02  0.51100000000E-03 0.  1.
        -11    1    3    3    0    0 -0.39118910492E+01  0.10966872409E+01 -0.12763555845E+01  0.42584854496E+01  0.51100000000E-03 0. -1.
         12    1    3    3    0    0 -0.12152943032E+02  0.10371566291E+02 -0.16280638641E+01  0.16059701231E+02  0.00000000000E+00 0. -1.
</event>
<event>
 7    1  0.3910495E-008  0.4614232E+02  0.7816164E-02  0.1320468E+00
        -11   -1    0    0    0    0  0.00000000000E+00  0.00000000000E+00  0.45593999997E+02  0.45594000000E+02  0.51100000000E-03 0.  1.
         11   -1    0    0    0    0 -0.00000000000E+00 -0.00000000000E+00 -0.45593999997E+02  0.45594000000E+02  0.51100000000E-03 0. -1.
    9900012    2    1    2    0    0 -0.32228210224E+02 -0.15907876349E+02 -0.27155026624E+02  0.46142317242E+02  0.99999952645E+01 0.  0.
        -12    1    1    2    0    0  0.32228210224E+02  0.15907876349E+02  0.27155026624E+02  0.45045682758E+02  0.00000000000E+00 0.  1.
         11    1    3    3    0    0 -0.12660443989E+02 -0.57983104808E+01 -0.65413247661E+01  0.15384933422E+02  0.51100000000E-03 0. -1.
        -11    1    3    3    0    0 -0.10882913558E+02 -0.88971077611E+01 -0.12524731577E+02  0.18827247153E+02  0.51100000000E-03 0.  1.
         12    1    3    3    0    0 -0.86848526772E+01 -0.12124581069E+01 -0.80889702813E+01  0.11930136667E+02  0.00000000000E+00 0. -1.
</event>
<event>
 7    1  0.3910495E-008  0.4614232E+02  0.7816164E-02  0.1320468E+00
        -11   -1    0    0    0    0  0.00000000000E+00  0.00000000000E+00  0.45593999997E+02  0.45594000000E+02  0.51100000000E-03 0.  1.
         11   -1    0    0    0    0 -0.00000000000E+00 -0.00000000000E+00 -0.45593999997E+02  0.45594000000E+02  0.51100000000E-03 0. -1.
    9900012    2    1    2    0    0  0.26089607299E+02  0.28292165364E+02 -0.23409385984E+02  0.46142316720E+02  0.99999905084E+01 0.  0.
        -12    1    1    2    0    0 -0.26089607299E+02 -0.28292165364E+02  0.23409385984E+02  0.45045683280E+02  0.00000000000E+00 0.  1.
         11    1    3    3    0    0  0.46896321227E+01  0.67764692780E+01 -0.24608573426E+01  0.86005234982E+01  0.51100000000E-03 0. -1.
        -11    1    3    3    0    0  0.12163912849E+01  0.27656451325E+01 -0.46113496695E+01  0.55129798469E+01  0.51100000000E-03 0.  1.
         12    1    3    3    0    0  0.20183583891E+02  0.18750050953E+02 -0.16337178972E+02  0.32028813375E+02  0.00000000000E+00 0. -1.
</event>
<event>
 7    1  0.3910495E-008  0.4614232E+02  0.7816164E-02  0.1320468E+00
        -11   -1    0    0    0    0  0.00000000000E+00  0.00000000000E+00  0.45593999997E+02  0.45594000000E+02  0.51100000000E-03 0. -1.
         11   -1    0    0    0    0 -0.00000000000E+00 -0.00000000000E+00 -0.45593999997E+02  0.45594000000E+02  0.51100000000E-03 0.  1.
    9900012    2    1    2    0    0 -0.23203314234E+02 -0.53853889389E+01  0.38232412001E+02  0.46142317267E+02  0.99999954930E+01 0.  0.
        -12    1    1    2    0    0  0.23203314234E+02  0.53853889389E+01 -0.38232412001E+02  0.45045682733E+02  0.00000000000E+00 0.  1.
         11    1    3    3    0    0 -0.26569161104E+01  0.29148257610E+00  0.10094955018E+01  0.28571396079E+01  0.51100000000E-03 0. -1.
        -11    1    3    3    0    0 -0.43426875412E+01 -0.33116556459E+01  0.66703838483E+01  0.86209059352E+01  0.51100000000E-03 0.  1.
         12    1    3    3    0    0 -0.16203710583E+02 -0.23652158691E+01  0.30552532651E+02  0.34664271724E+02  0.00000000000E+00 0. -1.
</event>
<event>
 7    1  0.3910495E-008  0.4614232E+02  0.7816164E-02  0.1320468E+00
        -11   -1    0    0    0    0  0.00000000000E+00  0.00000000000E+00  0.45593999997E+02  0.45594000000E+02  0.51100000000E-03 0.  1.
         11   -1    0    0    0    0 -0.00000000000E+00 -0.00000000000E+00 -0.45593999997E+02  0.45594000000E+02  0.51100000000E-03 0. -1.
    9900012    2    1    2    0    0 -0.23500177407E+02 -0.81556690699E+01 -0.37554499186E+02  0.46142315576E+02  0.99999800699E+01 0.  0.
        -12    1    1    2    0    0  0.23500177407E+02  0.81556690699E+01  0.37554499186E+02  0.45045684424E+02  0.00000000000E+00 0.  1.
         11    1    3    3    0    0 -0.17391376374E+02 -0.63345771262E+01 -0.27542050007E+02  0.33183600745E+02  0.51100000000E-03 0. -1.
        -11    1    3    3    0    0 -0.52270727626E+01 -0.33834489146E+01 -0.64215823039E+01  0.89446484431E+01  0.51100000000E-03 0.  1.
        -12    1    3    3    0    0 -0.88172827072E+00  0.15623569709E+01 -0.35908668749E+01  0.40140663873E+01  0.00000000000E+00 0.  1.
</event>
<event>
 7    1  0.3910495E-008  0.4614232E+02  0.7816164E-02  0.1320468E+00
        -11   -1    0    0    0    0  0.00000000000E+00  0.00000000000E+00  0.45593999997E+02  0.45594000000E+02  0.51100000000E-03 0.  1.
         11   -1    0    0    0    0 -0.00000000000E+00 -0.00000000000E+00 -0.45593999997E+02  0.45594000000E+02  0.51100000000E-03 0. -1.
    9900012    2    1    2    0    0 -0.30655087656E+01  0.21723056680E+02 -0.39342406340E+02  0.46142317941E+02  0.10000001644E+02 0.  0.
        -12    1    1    2    0    0  0.30655087656E+01 -0.21723056680E+02  0.39342406340E+02  0.45045682059E+02  0.00000000000E+00 0.  1.
         11    1    3    3    0    0 -0.35761737444E+01  0.76401624611E+01 -0.16952826505E+02  0.18935665498E+02  0.51100000000E-03 0. -1.
        -11    1    3    3    0    0  0.15409528503E+01  0.67596617159E+01 -0.15984008659E+02  0.17422861282E+02  0.51100000000E-03 0.  1.
        -12    1    3    3    0    0 -0.10302878715E+01  0.73232325026E+01 -0.64055711761E+01  0.97837911607E+01  0.00000000000E+00 0.  1.
</event>
<event>
 7    1  0.3910495E-008  0.4614232E+02  0.7816164E-02  0.1320468E+00
        -11   -1    0    0    0    0  0.00000000000E+00  0.00000000000E+00  0.45593999997E+02  0.45594000000E+02  0.51100000000E-03 0.  1.
         11   -1    0    0    0    0 -0.00000000000E+00 -0.00000000000E+00 -0.45593999997E+02  0.45594000000E+02  0.51100000000E-03 0. -1.
    9900012    2    1    2    0    0  0.24626394096E+02  0.15770270478E+02 -0.34262994365E+02  0.46142317632E+02  0.99999988226E+01 0.  0.
        -12    1    1    2    0    0 -0.24626394096E+02 -0.15770270478E+02  0.34262994365E+02  0.45045682368E+02  0.00000000000E+00 0.  1.
         11    1    3    3    0    0  0.34271965321E+01  0.23759509798E+01 -0.16792288073E+01  0.44956232913E+01  0.51100000000E-03 0. -1.
        -11    1    3    3    0    0  0.12591217425E+02  0.11109383062E+02 -0.18508586656E+02  0.24990496764E+02  0.51100000000E-03 0.  1.
         12    1    3    3    0    0  0.86079801388E+01  0.22849364366E+01 -0.14075178902E+02  0.16656197576E+02  0.00000000000E+00 0. -1.
</event>
<event>
 7    1  0.3910495E-008  0.4614232E+02  0.7816164E-02  0.1320468E+00
        -11   -1    0    0    0    0  0.00000000000E+00  0.00000000000E+00  0.45593999997E+02  0.45594000000E+02  0.51100000000E-03 0.  1.
         11   -1    0    0    0    0 -0.00000000000E+00 -0.00000000000E+00 -0.45593999997E+02  0.45594000000E+02  0.51100000000E-03 0. -1.
    9900012    2    1    2    0    0 -0.28189783054E+02 -0.32782598278E+02  0.12639252896E+02  0.46142319494E+02  0.10000015800E+02 0.  0.
        -12    1    1    2    0    0  0.28189783054E+02  0.32782598278E+02 -0.12639252896E+02  0.45045680506E+02  0.00000000000E+00 0.  1.
         11    1    3    3    0    0 -0.46898054786E+00 -0.88302899577E+00 -0.75714375891E+00  0.12541729922E+01  0.51100000000E-03 0. -1.
        -11    1    3    3    0    0 -0.14598300971E+02 -0.17716248780E+02  0.36424154637E+01  0.23243129151E+02  0.51100000000E-03 0.  1.
        -12    1    3    3    0    0 -0.13122501535E+02 -0.14183320502E+02  0.97539811909E+01  0.21645017350E+02  0.00000000000E+00 0.  1.
</event>
<event>
 7    1  0.3910495E-008  0.4614232E+02  0.7816164E-02  0.1320468E+00
        -11   -1    0    0    0    0  0.00000000000E+00  0.00000000000E+00  0.45593999997E+02  0.45594000000E+02  0.51100000000E-03 0.  1.
         11   -1    0    0    0    0 -0.00000000000E+00 -0.00000000000E+00 -0.45593999997E+02  0.45594000000E+02  0.51100000000E-03 0. -1.
    9900012    2    1    2    0    0 -0.33045606055E+02 -0.30409388978E+02  0.35171654265E+01  0.46142317963E+02  0.10000001839E+02 0.  0.
        -12    1    1    2    0    0  0.33045606055E+02  0.30409388978E+02 -0.35171654265E+01  0.45045682037E+02  0.00000000000E+00 0.  1.
         11    1    3    3    0    0 -0.20496786824E+02 -0.16660976770E+02  0.14715551966E+01  0.26455091986E+02  0.51100000000E-03 0. -1.
        -11    1    3    3    0    0 -0.92857565958E+01 -0.11497065019E+02  0.39380850660E+01  0.15294322275E+02  0.51100000000E-03 0.  1.
        -12    1    3    3    0    0 -0.32630626348E+01 -0.22513471896E+01 -0.18924748361E+01  0.43929037017E+01  0.00000000000E+00 0.  1.
</event>
<event>
 7    1  0.3910495E-008  0.4614232E+02  0.7816164E-02  0.1320468E+00
        -11   -1    0    0    0    0  0.00000000000E+00  0.00000000000E+00  0.45593999997E+02  0.45594000000E+02  0.51100000000E-03 0. -1.
         11   -1    0    0    0    0 -0.00000000000E+00 -0.00000000000E+00 -0.45593999997E+02  0.45594000000E+02  0.51100000000E-03 0.  1.
    9900012    2    1    2    0    0  0.28250116520E+02 -0.22227264015E+02  0.27147616502E+02  0.46142318401E+02  0.10000005832E+02 0.  0.
        -12    1    1    2    0    0 -0.28250116520E+02  0.22227264015E+02 -0.27147616502E+02  0.45045681599E+02  0.00000000000E+00 0.  1.
         11    1    3    3    0    0  0.13635189520E+02 -0.15299455807E+02  0.16450828891E+02  0.26279678703E+02  0.51100000000E-03 0. -1.
        -11    1    3    3    0    0  0.42279861129E+00 -0.10616732708E+01  0.17492447158E+01  0.20894415848E+01  0.51100000000E-03 0.  1.
        -12    1    3    3    0    0  0.14192128389E+02 -0.58661349371E+01  0.89475428949E+01  0.17773198113E+02  0.00000000000E+00 0.  1.
</event>
<event>
 7    1  0.3910495E-008  0.4614232E+02  0.7816164E-02  0.1320468E+00
        -11   -1    0    0    0    0  0.00000000000E+00  0.00000000000E+00  0.45593999997E+02  0.45594000000E+02  0.51100000000E-03 0.  1.
         11   -1    0    0    0    0 -0.00000000000E+00 -0.00000000000E+00 -0.45593999997E+02  0.45594000000E+02  0.51100000000E-03 0. -1.
    9900012    2    1    2    0    0  0.33246313750E+02 -0.29352376593E+02  0.78888601924E+01  0.46142317579E+02  0.99999983417E+01 0.  0.
        -12    1    1    2    0    0 -0.33246313750E+02  0.29352376593E+02 -0.78888601924E+01  0.45045682421E+02  0.00000000000E+00 0.  1.
         11    1    3    3    0    0  0.26041862006E+01 -0.39361622837E+01 -0.29419755386E+00  0.47288171622E+01  0.51100000000E-03 0. -1.
        -11    1    3    3    0    0  0.12627722175E+02 -0.15586877658E+02  0.34773559480E+01  0.20359325311E+02  0.51100000000E-03 0.  1.
         12    1    3    3    0    0  0.18014405374E+02 -0.98293366508E+01  0.47057017983E+01  0.21054175106E+02  0.00000000000E+00 0. -1.
</event>
<event>
 7    1  0.3910495E-008  0.4614232E+02  0.7816164E-02  0.1320468E+00
        -11   -1    0    0    0    0  0.00000000000E+00  0.00000000000E+00  0.45593999997E+02  0.45594000000E+02  0.51100000000E-03 0. -1.
         11   -1    0    0    0    0 -0.00000000000E+00 -0.00000000000E+00 -0.45593999997E+02  0.45594000000E+02  0.51100000000E-03 0.  1.
    9900012    2    1    2    0    0 -0.47418495123E+01  0.17465943486E+02  0.41250080612E+02  0.46142317974E+02  0.10000001944E+02 0.  0.
        -12    1    1    2    0    0  0.47418495123E+01 -0.17465943486E+02 -0.41250080612E+02  0.45045682026E+02  0.00000000000E+00 0.  1.
         11    1    3    3    0    0 -0.26129646363E+01  0.80145967713E+01  0.13275219237E+02  0.15725545830E+02  0.51100000000E-03 0. -1.
        -11    1    3    3    0    0 -0.36749954341E-01  0.44128084203E-01  0.10178056127E+02  0.10178218146E+02  0.51100000000E-03 0.  1.
        -12    1    3    3    0    0 -0.20921349217E+01  0.94072186300E+01  0.17796805249E+02  0.20238553998E+02  0.00000000000E+00 0.  1.
</event>
<event>
 7    1  0.3910495E-008  0.4614232E+02  0.7816164E-02  0.1320468E+00
        -11   -1    0    0    0    0  0.00000000000E+00  0.00000000000E+00  0.45593999997E+02  0.45594000000E+02  0.51100000000E-03 0. -1.
         11   -1    0    0    0    0 -0.00000000000E+00 -0.00000000000E+00 -0.45593999997E+02  0.45594000000E+02  0.51100000000E-03 0.  1.
    9900012    2    1    2    0    0 -0.26586466394E+02  0.29191661132E+02  0.21682253093E+02  0.46142319029E+02  0.10000011559E+02 0.  0.
        -12    1    1    2    0    0  0.26586466394E+02 -0.29191661132E+02 -0.21682253093E+02  0.45045680971E+02  0.00000000000E+00 0.  1.
         11    1    3    3    0    0 -0.14632456634E+02  0.19386130523E+02  0.13749638750E+02  0.27910274270E+02  0.51100000000E-03 0. -1.
        -11    1    3    3    0    0 -0.11107911226E+02  0.10510273932E+02  0.71504291048E+01  0.16881356183E+02  0.51100000000E-03 0.  1.
        -12    1    3    3    0    0 -0.84609853415E+00 -0.70474332352E+00  0.78218523870E+00  0.13506885759E+01  0.00000000000E+00 0.  1.
</event>
<event>
 7    1  0.3910495E-008  0.4614232E+02  0.7816164E-02  0.1320468E+00
        -11   -1    0    0    0    0  0.00000000000E+00  0.00000000000E+00  0.45593999997E+02  0.45594000000E+02  0.51100000000E-03 0.  1.
         11   -1    0    0    0    0 -0.00000000000E+00 -0.00000000000E+00 -0.45593999997E+02  0.45594000000E+02  0.51100000000E-03 0. -1.
    9900012    2    1    2    0    0 -0.28153322188E+02  0.33183099586E+02 -0.11635541194E+02  0.46142317995E+02  0.10000002135E+02 0.  0.
        -12    1    1    2    0    0  0.28153322188E+02 -0.33183099586E+02  0.11635541194E+02  0.45045682005E+02  0.00000000000E+00 0.  1.
         11    1    3    3    0    0 -0.71420961935E+01  0.73495899847E+01 -0.33236011581E+01  0.10773687201E+02  0.51100000000E-03 0. -1.
        -11    1    3    3    0    0 -0.21880183148E+00  0.41435216583E+01 -0.22386155905E+01  0.47146628720E+01  0.51100000000E-03 0.  1.
         12    1    3    3    0    0 -0.20792424163E+02  0.21689987944E+02 -0.60733244456E+01  0.30653967922E+02  0.00000000000E+00 0. -1.
</event>
<event>
 7    1  0.3910495E-008  0.4614232E+02  0.7816164E-02  0.1320468E+00
        -11   -1    0    0    0    0  0.00000000000E+00  0.00000000000E+00  0.45593999997E+02  0.45594000000E+02  0.51100000000E-03 0.  1.
         11   -1    0    0    0    0 -0.00000000000E+00 -0.00000000000E+00 -0.45593999997E+02  0.45594000000E+02  0.51100000000E-03 0. -1.
    9900012    2    1    2    0    0  0.41959092283E+01 -0.33811279256E+01 -0.44722206939E+02  0.46142317923E+02  0.10000001475E+02 0.  0.
        -12    1    1    2    0    0 -0.41959092283E+01  0.33811279256E+01  0.44722206939E+02  0.45045682077E+02  0.00000000000E+00 0.  1.
         11    1    3    3    0    0  0.47811193032E+01 -0.11097423815E+01 -0.17454857704E+02  0.18131814241E+02  0.51100000000E-03 0.  1.
        -11    1    3    3    0    0 -0.10979749142E+00 -0.10484801863E+01 -0.26436472652E+02  0.26457483870E+02  0.51100000000E-03 0. -1.
        -12    1    3    3    0    0 -0.47541258358E+00 -0.12229053578E+01 -0.83087658258E+00  0.15530198113E+01  0.00000000000E+00 0.  1.
</event>
<event>
 7    1  0.3910495E-008  0.4614232E+02  0.7816164E-02  0.1320468E+00
        -11   -1    0    0    0    0  0.00000000000E+00  0.00000000000E+00  0.45593999997E+02  0.45594000000E+02  0.51100000000E-03 0.  1.
         11   -1    0    0    0    0 -0.00000000000E+00 -0.00000000000E+00 -0.45593999997E+02  0.45594000000E+02  0.51100000000E-03 0. -1.
    9900012    2    1    2    0    0 -0.39598794329E+02 -0.56962607227E+01 -0.20702696250E+02  0.46142317292E+02  0.99999957262E+01 0.  0.
        -12    1    1    2    0    0  0.39598794329E+02  0.56962607227E+01  0.20702696250E+02  0.45045682708E+02  0.00000000000E+00 0.  1.
         11    1    3    3    0    0 -0.89028313524E+01 -0.40217147203E+01 -0.72407909966E+01  0.12159919815E+02  0.51100000000E-03 0. -1.
        -11    1    3    3    0    0 -0.37731826388E+01  0.15555936316E+01 -0.19703287798E+01  0.45319945426E+01  0.51100000000E-03 0.  1.
        -12    1    3    3    0    0 -0.26922780338E+02 -0.32301396340E+01 -0.11491576474E+02  0.29450402935E+02  0.00000000000E+00 0.  1.
</event>
<event>
 7    1  0.3910495E-008  0.4614232E+02  0.7816164E-02  0.1320468E+00
        -11   -1    0    0    0    0  0.00000000000E+00  0.00000000000E+00  0.45593999997E+02  0.45594000000E+02  0.51100000000E-03 0.  1.
         11   -1    0    0    0    0 -0.00000000000E+00 -0.00000000000E+00 -0.45593999997E+02  0.45594000000E+02  0.51100000000E-03 0. -1.
    9900012    2    1    2    0    0  0.17667956275E+02 -0.10935881862E+02 -0.39967026657E+02  0.46142318622E+02  0.10000007851E+02 0.  0.
        -12    1    1    2    0    0 -0.17667956275E+02  0.10935881862E+02  0.39967026657E+02  0.45045681378E+02  0.00000000000E+00 0.  1.
         11    1    3    3    0    0  0.11640983371E+01 -0.61721937315E+00 -0.11591598451E+01  0.17549178045E+01  0.51100000000E-03 0. -1.
        -11    1    3    3    0    0  0.64576028485E+01 -0.68924996142E+01 -0.10336488116E+02  0.14001791754E+02  0.51100000000E-03 0.  1.
        -12    1    3    3    0    0  0.10046255089E+02 -0.34261628748E+01 -0.28471378695E+02  0.30385609064E+02  0.00000000000E+00 0.  1.
</event>
<event>
 7    1  0.3910495E-008  0.4614232E+02  0.7816164E-02  0.1320468E+00
        -11   -1    0    0    0    0  0.00000000000E+00  0.00000000000E+00  0.45593999997E+02  0.45594000000E+02  0.51100000000E-03 0.  1.
         11   -1    0    0    0    0 -0.00000000000E+00 -0.00000000000E+00 -0.45593999997E+02  0.45594000000E+02  0.51100000000E-03 0. -1.
    9900012    2    1    2    0    0  0.58007413294E+01  0.37131810224E+02  0.24833316056E+02  0.46142317446E+02  0.99999971240E+01 0.  0.
        -12    1    1    2    0    0 -0.58007413294E+01 -0.37131810224E+02 -0.24833316056E+02  0.45045682554E+02  0.00000000000E+00 0.  1.
         11    1    3    3    0    0  0.48747756037E+01  0.19697331364E+02  0.13638327740E+02  0.24448973064E+02  0.51100000000E-03 0. -1.
        -11    1    3    3    0    0 -0.24828508927E+01  0.41808512477E+01  0.23671434979E+01  0.54080897100E+01  0.51100000000E-03 0.  1.
        -12    1    3    3    0    0  0.34088166184E+01  0.13253627611E+02  0.88278448180E+01  0.16285254672E+02  0.00000000000E+00 0.  1.
</event>
<event>
 7    1  0.3910495E-008  0.4614231E+02  0.7816164E-02  0.1320468E+00
        -11   -1    0    0    0    0  0.00000000000E+00  0.00000000000E+00  0.45593999997E+02  0.45594000000E+02  0.51100000000E-03 0. -1.
         11   -1    0    0    0    0 -0.00000000000E+00 -0.00000000000E+00 -0.45593999997E+02  0.45594000000E+02  0.51100000000E-03 0.  1.
    9900012    2    1    2    0    0 -0.20138132684E+02  0.37750786085E+02 -0.14087146826E+02  0.46142312707E+02  0.99999539106E+01 0.  0.
        -12    1    1    2    0    0  0.20138132684E+02 -0.37750786085E+02  0.14087146826E+02  0.45045687293E+02  0.00000000000E+00 0.  1.
         11    1    3    3    0    0 -0.11788304038E+02  0.15920649152E+02 -0.46052933634E+01  0.20338139264E+02  0.51100000000E-03 0. -1.
        -11    1    3    3    0    0 -0.12717722400E+01  0.10742175181E+02 -0.48911665925E+01  0.11871615019E+02  0.51100000000E-03 0.  1.
        -12    1    3    3    0    0 -0.70780564063E+01  0.11087961751E+02 -0.45906868706E+01  0.13932558424E+02  0.00000000000E+00 0.  1.
</event>
<event>
 7    1  0.3910495E-008  0.4614232E+02  0.7816164E-02  0.1320468E+00
        -11   -1    0    0    0    0  0.00000000000E+00  0.00000000000E+00  0.45593999997E+02  0.45594000000E+02  0.51100000000E-03 0.  1.
         11   -1    0    0    0    0 -0.00000000000E+00 -0.00000000000E+00 -0.45593999997E+02  0.45594000000E+02  0.51100000000E-03 0. -1.
    9900012    2    1    2    0    0 -0.34046344119E+02 -0.32094804139E+01 -0.29319944887E+02  0.46142317848E+02  0.10000000794E+02 0.  0.
        -12    1    1    2    0    0  0.34046344119E+02  0.32094804139E+01  0.29319944887E+02  0.45045682152E+02  0.00000000000E+00 0.  1.
         11    1    3    3    0    0 -0.13973634645E+01 -0.15032280196E+01 -0.30597254789E+01  0.36843234654E+01  0.51100000000E-03 0. -1.
        -11    1    3    3    0    0 -0.50186195294E+00 -0.10999819824E+01 -0.10135816729E+01  0.15777115864E+01  0.51100000000E-03 0.  1.
        -12    1    3    3    0    0 -0.32147118701E+02 -0.60627041193E+00 -0.25246637735E+02  0.40880282796E+02  0.00000000000E+00 0.  1.
</event>
<event>
 7    1  0.3910495E-008  0.4614232E+02  0.7816164E-02  0.1320468E+00
        -11   -1    0    0    0    0  0.00000000000E+00  0.00000000000E+00  0.45593999997E+02  0.45594000000E+02  0.51100000000E-03 0.  1.
         11   -1    0    0    0    0 -0.00000000000E+00 -0.00000000000E+00 -0.45593999997E+02  0.45594000000E+02  0.51100000000E-03 0. -1.
    9900012    2    1    2    0    0 -0.57543487766E+01 -0.44124768573E+02 -0.70004110131E+01  0.46142317789E+02  0.10000000259E+02 0.  0.
        -12    1    1    2    0    0  0.57543487766E+01  0.44124768573E+02  0.70004110131E+01  0.45045682211E+02  0.00000000000E+00 0.  1.
         11    1    3    3    0    0 -0.31030469089E+01 -0.12158324839E+02 -0.15083063351E+01  0.12638384045E+02  0.51100000000E-03 0. -1.
        -11    1    3    3    0    0 -0.26589173313E+01 -0.55279182334E+01  0.11565780183E+01  0.62422267136E+01  0.51100000000E-03 0.  1.
        -12    1    3    3    0    0  0.76154636073E-02 -0.26438525500E+02 -0.66486826963E+01  0.27261707031E+02  0.00000000000E+00 0.  1.
</event>
<event>
 7    1  0.3910495E-008  0.4614232E+02  0.7816164E-02  0.1320468E+00
        -11   -1    0    0    0    0  0.00000000000E+00  0.00000000000E+00  0.45593999997E+02  0.45594000000E+02  0.51100000000E-03 0.  1.
         11   -1    0    0    0    0 -0.00000000000E+00 -0.00000000000E+00 -0.45593999997E+02  0.45594000000E+02  0.51100000000E-03 0. -1.
    9900012    2    1    2    0    0  0.38465939188E+02 -0.72317068688E+01 -0.22297694754E+02  0.46142320372E+02  0.10000023808E+02 0.  0.
        -12    1    1    2    0    0 -0.38465939188E+02  0.72317068688E+01  0.22297694754E+02  0.45045679628E+02  0.00000000000E+00 0.  1.
         11    1    3    3    0    0  0.69294024170E+01 -0.12924480077E+01 -0.12755192256E+01  0.71633783417E+01  0.51100000000E-03 0.  1.
        -11    1    3    3    0    0  0.19908430521E+02 -0.53867179915E+01 -0.16782381240E+02  0.26589671997E+02  0.51100000000E-03 0. -1.
         12    1    3    3    0    0  0.11628106250E+02 -0.55254086955E+00 -0.42397942879E+01  0.12389270034E+02  0.00000000000E+00 0. -1.
</event>
<event>
 7    1  0.3910495E-008  0.4614232E+02  0.7816164E-02  0.1320468E+00
        -11   -1    0    0    0    0  0.00000000000E+00  0.00000000000E+00  0.45593999997E+02  0.45594000000E+02  0.51100000000E-03 0.  1.
         11   -1    0    0    0    0 -0.00000000000E+00 -0.00000000000E+00 -0.45593999997E+02  0.45594000000E+02  0.51100000000E-03 0. -1.
    9900012    2    1    2    0    0 -0.19402768467E+02  0.37385307941E+02  0.15968245559E+02  0.46142317185E+02  0.99999947479E+01 0.  0.
        -12    1    1    2    0    0  0.19402768467E+02 -0.37385307941E+02 -0.15968245559E+02  0.45045682815E+02  0.00000000000E+00 0.  1.
         11    1    3    3    0    0 -0.49904770857E+01  0.65387449627E+01  0.57897266489E+01  0.10058875790E+02  0.51100000000E-03 0. -1.
        -11    1    3    3    0    0 -0.50044547758E+01  0.14766611011E+02  0.73604817041E+01  0.17241637380E+02  0.51100000000E-03 0.  1.
         12    1    3    3    0    0 -0.94078366051E+01  0.16079951967E+02  0.28180372063E+01  0.18841804015E+02  0.00000000000E+00 0. -1.
</event>
<event>
 7    1  0.3910495E-008  0.4614232E+02  0.7816164E-02  0.1320468E+00
        -11   -1    0    0    0    0  0.00000000000E+00  0.00000000000E+00  0.45593999997E+02  0.45594000000E+02  0.51100000000E-03 0.  1.
         11   -1    0    0    0    0 -0.00000000000E+00 -0.00000000000E+00 -0.45593999997E+02  0.45594000000E+02  0.51100000000E-03 0. -1.
    9900012    2    1    2    0    0 -0.33937918534E+02 -0.20264686150E+02 -0.21602633432E+02  0.46142316629E+02  0.99999896773E+01 0.  0.
        -12    1    1    2    0    0  0.33937918534E+02  0.20264686150E+02  0.21602633432E+02  0.45045683371E+02  0.00000000000E+00 0.  1.
         11    1    3    3    0    0 -0.75704546815E+01 -0.29380478817E+01 -0.26088793490E+01  0.85293705018E+01  0.51100000000E-03 0. -1.
        -11    1    3    3    0    0 -0.52868762297E+01 -0.25619048447E+00 -0.23758053901E+01  0.58018225883E+01  0.51100000000E-03 0.  1.
         12    1    3    3    0    0 -0.21080587622E+02 -0.17070447784E+02 -0.16617948693E+02  0.31811123539E+02  0.00000000000E+00 0. -1.
</event>
<event>
 7    1  0.3910495E-008  0.4614232E+02  0.7816164E-02  0.1320468E+00
        -11   -1    0    0    0    0  0.00000000000E+00  0.00000000000E+00  0.45593999997E+02  0.45594000000E+02  0.51100000000E-03 0.  1.
         11   -1    0    0    0    0 -0.00000000000E+00 -0.00000000000E+00 -0.45593999997E+02  0.45594000000E+02  0.51100000000E-03 0. -1.
    9900012    2    1    2    0    0 -0.30918181165E+02  0.18263064116E+02 -0.27196325345E+02  0.46142317080E+02  0.99999937888E+01 0.  0.
        -12    1    1    2    0    0  0.30918181165E+02 -0.18263064116E+02  0.27196325345E+02  0.45045682920E+02  0.00000000000E+00 0.  1.
         11    1    3    3    0    0 -0.45507624162E+01  0.51942498012E+01 -0.82862883018E+01  0.10786669720E+02  0.51100000000E-03 0. -1.
        -11    1    3    3    0    0 -0.15463752798E+01  0.22076868220E+01 -0.25234579834E+01  0.36922890008E+01  0.51100000000E-03 0.  1.
         12    1    3    3    0    0 -0.24821043469E+02  0.10861127493E+02 -0.16386579060E+02  0.31663358359E+02  0.00000000000E+00 0. -1.
</event>
<event>
 7    1  0.3910495E-008  0.4614232E+02  0.7816164E-02  0.1320468E+00
        -11   -1    0    0    0    0  0.00000000000E+00  0.00000000000E+00  0.45593999997E+02  0.45594000000E+02  0.51100000000E-03 0. -1.
         11   -1    0    0    0    0 -0.00000000000E+00 -0.00000000000E+00 -0.45593999997E+02  0.45594000000E+02  0.51100000000E-03 0.  1.
    9900012    2    1    2    0    0 -0.14804189235E+02  0.39887500583E+02  0.14796498872E+02  0.46142322066E+02  0.10000039252E+02 0.  0.
        -12    1    1    2    0    0  0.14804189235E+02 -0.39887500583E+02 -0.14796498872E+02  0.45045677934E+02  0.00000000000E+00 0.  1.
         11    1    3    3    0    0 -0.31101747778E+01  0.12194269987E+02  0.65129743316E+01  0.14170117944E+02  0.51100000000E-03 0. -1.
        -11    1    3    3    0    0 -0.28056985349E+01  0.15715310921E+02  0.41429229856E+01  0.16492627223E+02  0.51100000000E-03 0.  1.
         12    1    3    3    0    0 -0.88883159223E+01  0.11977919676E+02  0.41406015547E+01  0.15479576898E+02  0.00000000000E+00 0. -1.
</event>
<event>
 7    1  0.3910495E-008  0.4614232E+02  0.7816164E-02  0.1320468E+00
        -11   -1    0    0    0    0  0.00000000000E+00  0.00000000000E+00  0.45593999997E+02  0.45594000000E+02  0.51100000000E-03 0.  1.
         11   -1    0    0    0    0 -0.00000000000E+00 -0.00000000000E+00 -0.45593999997E+02  0.45594000000E+02  0.51100000000E-03 0. -1.
    9900012    2    1    2    0    0 -0.44607223588E+02 -0.61793826203E+01 -0.10603853460E+01  0.46142316712E+02  0.99999904331E+01 0.  0.
        -12    1    1    2    0    0  0.44607223588E+02  0.61793826203E+01  0.10603853460E+01  0.45045683288E+02  0.00000000000E+00 0.  1.
         11    1    3    3    0    0 -0.37728426102E+02 -0.51892314448E+01 -0.16389044578E+01  0.38118870224E+02  0.51100000000E-03 0. -1.
        -11    1    3    3    0    0 -0.60839519473E+01  0.11271090928E+00  0.16360595778E+01  0.63011003999E+01  0.51100000000E-03 0.  1.
         12    1    3    3    0    0 -0.79484553920E+00 -0.11028620848E+01 -0.10575404660E+01  0.17223460879E+01  0.00000000000E+00 0. -1.
</event>
<event>
 7    1  0.3910495E-008  0.4614232E+02  0.7816164E-02  0.1320468E+00
        -11   -1    0    0    0    0  0.00000000000E+00  0.00000000000E+00  0.45593999997E+02  0.45594000000E+02  0.51100000000E-03 0.  1.
         11   -1    0    0    0    0 -0.00000000000E+00 -0.00000000000E+00 -0.45593999997E+02  0.45594000000E+02  0.51100000000E-03 0. -1.
    9900012    2    1    2    0    0  0.41833172616E+02  0.10951808031E+02 -0.12615747636E+02  0.46142317424E+02  0.99999969299E+01 0.  0.
        -12    1    1    2    0    0 -0.41833172616E+02 -0.10951808031E+02  0.12615747636E+02  0.45045682576E+02  0.00000000000E+00 0.  1.
         11    1    3    3    0    0  0.16547723639E+00 -0.62691366357E+00 -0.32765874712E+00  0.72647365611E+00  0.51100000000E-03 0.  1.
        -11    1    3    3    0    0  0.17388061508E+02  0.44565627615E+01 -0.83921227020E+01  0.19814978132E+02  0.51100000000E-03 0. -1.
         12    1    3    3    0    0  0.24279633872E+02  0.71221589335E+01 -0.38959661870E+01  0.25600865637E+02  0.00000000000E+00 0. -1.
</event>
<event>
 7    1  0.3910495E-008  0.4614232E+02  0.7816164E-02  0.1320468E+00
        -11   -1    0    0    0    0  0.00000000000E+00  0.00000000000E+00  0.45593999997E+02  0.45594000000E+02  0.51100000000E-03 0.  1.
         11   -1    0    0    0    0 -0.00000000000E+00 -0.00000000000E+00 -0.45593999997E+02  0.45594000000E+02  0.51100000000E-03 0. -1.
    9900012    2    1    2    0    0 -0.25313734156E+02 -0.33672631775E+02 -0.15952500264E+02  0.46142317274E+02  0.99999955549E+01 0.  0.
        -12    1    1    2    0    0  0.25313734156E+02  0.33672631775E+02  0.15952500264E+02  0.45045682726E+02  0.00000000000E+00 0.  1.
         11    1    3    3    0    0 -0.19911506969E+02 -0.24031267087E+02 -0.10041393722E+02  0.32784134817E+02  0.51100000000E-03 0. -1.
        -11    1    3    3    0    0 -0.15323090173E+01 -0.98992199663E+00  0.52924761960E+00  0.18994788200E+01  0.51100000000E-03 0.  1.
        -12    1    3    3    0    0 -0.38699181699E+01 -0.86514426917E+01 -0.64403541625E+01  0.11458703636E+02  0.00000000000E+00 0.  1.
</event>
<event>
 7    1  0.3910495E-008  0.4614232E+02  0.7816164E-02  0.1320468E+00
        -11   -1    0    0    0    0  0.00000000000E+00  0.00000000000E+00  0.45593999997E+02  0.45594000000E+02  0.51100000000E-03 0.  1.
         11   -1    0    0    0    0 -0.00000000000E+00 -0.00000000000E+00 -0.45593999997E+02  0.45594000000E+02  0.51100000000E-03 0. -1.
    9900012    2    1    2    0    0  0.27866957984E+02 -0.76075948591E+01 -0.34564009182E+02  0.46142316772E+02  0.99999909767E+01 0.  0.
        -12    1    1    2    0    0 -0.27866957984E+02  0.76075948591E+01  0.34564009182E+02  0.45045683228E+02  0.00000000000E+00 0.  1.
         11    1    3    3    0    0  0.50705996044E+01 -0.25145930099E+01 -0.72467671307E+01  0.91950961094E+01  0.51100000000E-03 0. -1.
        -11    1    3    3    0    0  0.45744422466E+01 -0.45596124450E+01 -0.92446103781E+01  0.11277340503E+02  0.51100000000E-03 0.  1.
        -12    1    3    3    0    0  0.18221916133E+02 -0.53338940416E+00 -0.18072631673E+02  0.25669880159E+02  0.00000000000E+00 0.  1.
</event>
<event>
 7    1  0.3910495E-008  0.4614232E+02  0.7816164E-02  0.1320468E+00
        -11   -1    0    0    0    0  0.00000000000E+00  0.00000000000E+00  0.45593999997E+02  0.45594000000E+02  0.51100000000E-03 0. -1.
         11   -1    0    0    0    0 -0.00000000000E+00 -0.00000000000E+00 -0.45593999997E+02  0.45594000000E+02  0.51100000000E-03 0.  1.
    9900012    2    1    2    0    0 -0.16707649624E+02 -0.28614647687E+02  0.30515075490E+02  0.46142318183E+02  0.10000003845E+02 0.  0.
        -12    1    1    2    0    0  0.16707649624E+02  0.28614647687E+02 -0.30515075490E+02  0.45045681817E+02  0.00000000000E+00 0.  1.
         11    1    3    3    0    0 -0.15507097353E+02 -0.22880049965E+02  0.23364829032E+02  0.36192291868E+02  0.51100000000E-03 0. -1.
        -11    1    3    3    0    0 -0.49873511005E+00 -0.49474041181E+01  0.33241993729E+01  0.59812913279E+01  0.51100000000E-03 0.  1.
         12    1    3    3    0    0 -0.70181716108E+00 -0.78719360431E+00  0.38260470853E+01  0.39687349870E+01  0.00000000000E+00 0. -1.
</event>
<event>
 7    1  0.3910495E-008  0.4614232E+02  0.7816164E-02  0.1320468E+00
        -11   -1    0    0    0    0  0.00000000000E+00  0.00000000000E+00  0.45593999997E+02  0.45594000000E+02  0.51100000000E-03 0. -1.
         11   -1    0    0    0    0 -0.00000000000E+00 -0.00000000000E+00 -0.45593999997E+02  0.45594000000E+02  0.51100000000E-03 0.  1.
    9900012    2    1    2    0    0 -0.23231078274E+02  0.20169650659E+02  0.32903125814E+02  0.46142317700E+02  0.99999994470E+01 0.  0.
        -12    1    1    2    0    0  0.23231078274E+02 -0.20169650659E+02 -0.32903125814E+02  0.45045682300E+02  0.00000000000E+00 0.  1.
         11    1    3    3    0    0 -0.16385220534E+01  0.26604913205E+01  0.42774988634E+01  0.52971657869E+01  0.51100000000E-03 0. -1.
        -11    1    3    3    0    0 -0.14227898675E+02  0.16055578618E+02  0.23093036787E+02  0.31519883468E+02  0.51100000000E-03 0.  1.
         12    1    3    3    0    0 -0.73646575458E+01  0.14535807200E+01  0.55325901633E+01  0.93252684461E+01  0.00000000000E+00 0. -1.
</event>
<event>
 7    1  0.3910495E-008  0.4614231E+02  0.7816164E-02  0.1320468E+00
        -11   -1    0    0    0    0  0.00000000000E+00  0.00000000000E+00  0.45593999997E+02  0.45594000000E+02  0.51100000000E-03 0.  1.
         11   -1    0    0    0    0 -0.00000000000E+00 -0.00000000000E+00 -0.45593999997E+02  0.45594000000E+02  0.51100000000E-03 0. -1.
    9900012    2    1    2    0    0  0.73278544345E+01 -0.42981462404E+02  0.11314172745E+02  0.46142311350E+02  0.99999415422E+01 0.  0.
        -12    1    1    2    0    0 -0.73278544345E+01  0.42981462404E+02 -0.11314172745E+02  0.45045688650E+02  0.00000000000E+00 0.  1.
         11    1    3    3    0    0  0.53635933471E+01 -0.24001394188E+02  0.71331289907E+01  0.25606963623E+02  0.51100000000E-03 0. -1.
        -11    1    3    3    0    0 -0.20165152429E+01 -0.10556629231E+02  0.28927850926E+01  0.11130002709E+02  0.51100000000E-03 0.  1.
         12    1    3    3    0    0  0.39807763303E+01 -0.84234389849E+01  0.12882586616E+01  0.94053450178E+01  0.00000000000E+00 0. -1.
</event>
<event>
 7    1  0.3910495E-008  0.4614232E+02  0.7816164E-02  0.1320468E+00
        -11   -1    0    0    0    0  0.00000000000E+00  0.00000000000E+00  0.45593999997E+02  0.45594000000E+02  0.51100000000E-03 0.  1.
         11   -1    0    0    0    0 -0.00000000000E+00 -0.00000000000E+00 -0.45593999997E+02  0.45594000000E+02  0.51100000000E-03 0. -1.
    9900012    2    1    2    0    0  0.29126139194E+02  0.11854007826E+02 -0.32253121960E+02  0.46142319163E+02  0.10000012786E+02 0.  0.
        -12    1    1    2    0    0 -0.29126139194E+02 -0.11854007826E+02  0.32253121960E+02  0.45045680837E+02  0.00000000000E+00 0.  1.
         11    1    3    3    0    0  0.66057075630E+01  0.36972921672E+01 -0.61387651023E+01  0.97462700054E+01  0.51100000000E-03 0. -1.
        -11    1    3    3    0    0 -0.50011093032E+00  0.22469654547E+00  0.16302279261E+00  0.57199315748E+00  0.51100000000E-03 0.  1.
         12    1    3    3    0    0  0.23020542561E+02  0.79320191136E+01 -0.26277379650E+02  0.35824056000E+02  0.00000000000E+00 0. -1.
</event>
<event>
 7    1  0.3910495E-008  0.4614232E+02  0.7816164E-02  0.1320468E+00
        -11   -1    0    0    0    0  0.00000000000E+00  0.00000000000E+00  0.45593999997E+02  0.45594000000E+02  0.51100000000E-03 0.  1.
         11   -1    0    0    0    0 -0.00000000000E+00 -0.00000000000E+00 -0.45593999997E+02  0.45594000000E+02  0.51100000000E-03 0. -1.
    9900012    2    1    2    0    0 -0.12339046149E+02 -0.18961276447E+02 -0.38952938408E+02  0.46142317909E+02  0.10000001351E+02 0.  0.
        -12    1    1    2    0    0  0.12339046149E+02  0.18961276447E+02  0.38952938408E+02  0.45045682091E+02  0.00000000000E+00 0.  1.
         11    1    3    3    0    0 -0.27720991091E+01 -0.25147807928E+01 -0.12331850525E+02  0.12887326857E+02  0.51100000000E-03 0. -1.
        -11    1    3    3    0    0 -0.86195870345E+00 -0.31239269889E+01 -0.87195025567E+01  0.93022372436E+01  0.51100000000E-03 0.  1.
        -12    1    3    3    0    0 -0.87049883367E+01 -0.13322568665E+02 -0.17901585327E+02  0.23952753808E+02  0.00000000000E+00 0.  1.
</event>
<event>
 7    1  0.3910495E-008  0.4614232E+02  0.7816164E-02  0.1320468E+00
        -11   -1    0    0    0    0  0.00000000000E+00  0.00000000000E+00  0.45593999997E+02  0.45594000000E+02  0.51100000000E-03 0.  1.
         11   -1    0    0    0    0 -0.00000000000E+00 -0.00000000000E+00 -0.45593999997E+02  0.45594000000E+02  0.51100000000E-03 0. -1.
    9900012    2    1    2    0    0  0.72875824924E+01  0.44322845519E+02 -0.33896831557E+01  0.46142318238E+02  0.10000004347E+02 0.  0.
        -12    1    1    2    0    0 -0.72875824924E+01 -0.44322845519E+02  0.33896831557E+01  0.45045681762E+02  0.00000000000E+00 0.  1.
         11    1    3    3    0    0  0.54826598319E+01  0.21031561953E+02 -0.27327051709E+01  0.21905566298E+02  0.51100000000E-03 0. -1.
        -11    1    3    3    0    0  0.15439193922E+00  0.20216925593E+02 -0.23584685438E+01  0.20354613517E+02  0.51100000000E-03 0.  1.
        -12    1    3    3    0    0  0.16505307213E+01  0.30743579727E+01  0.17014905590E+01  0.38821384221E+01  0.00000000000E+00 0.  1.
</event>
<event>
 7    1  0.3910495E-008  0.4614232E+02  0.7816164E-02  0.1320468E+00
        -11   -1    0    0    0    0  0.00000000000E+00  0.00000000000E+00  0.45593999997E+02  0.45594000000E+02  0.51100000000E-03 0.  1.
         11   -1    0    0    0    0 -0.00000000000E+00 -0.00000000000E+00 -0.45593999997E+02  0.45594000000E+02  0.51100000000E-03 0. -1.
    9900012    2    1    2    0    0 -0.29643946050E+02 -0.70730621513E+01 -0.33171098080E+02  0.46142317705E+02  0.99999994838E+01 0.  0.
        -12    1    1    2    0    0  0.29643946050E+02  0.70730621513E+01  0.33171098080E+02  0.45045682295E+02  0.00000000000E+00 0.  1.
         11    1    3    3    0    0 -0.17238108586E+02 -0.81114214850E+00 -0.21622402073E+02  0.27664753945E+02  0.51100000000E-03 0. -1.
        -11    1    3    3    0    0 -0.91532423300E+01 -0.59854588156E+01 -0.10168724504E+02  0.14933536778E+02  0.51100000000E-03 0.  1.
        -12    1    3    3    0    0 -0.32525951342E+01 -0.27646118722E+00 -0.13799715032E+01  0.35440269814E+01  0.00000000000E+00 0.  1.
</event>
<event>
 7    1  0.3910495E-008  0.4614232E+02  0.7816164E-02  0.1320468E+00
        -11   -1    0    0    0    0  0.00000000000E+00  0.00000000000E+00  0.45593999997E+02  0.45594000000E+02  0.51100000000E-03 0.  1.
         11   -1    0    0    0    0 -0.00000000000E+00 -0.00000000000E+00 -0.45593999997E+02  0.45594000000E+02  0.51100000000E-03 0. -1.
    9900012    2    1    2    0    0 -0.28849662872E+02 -0.34054135148E+02 -0.60931115025E+01  0.46142321225E+02  0.10000031590E+02 0.  0.
        -12    1    1    2    0    0  0.28849662872E+02  0.34054135148E+02  0.60931115025E+01  0.45045678775E+02  0.00000000000E+00 0.  1.
         11    1    3    3    0    0 -0.64145161148E+01 -0.11925102485E+02  0.73685912378E+00  0.13560864570E+02  0.51100000000E-03 0. -1.
        -11    1    3    3    0    0 -0.11844851384E+00 -0.69377677037E+00  0.39292169153E+00  0.80606697882E+00  0.51100000000E-03 0.  1.
         12    1    3    3    0    0 -0.22316698243E+02 -0.21435255893E+02 -0.72228923178E+01  0.31775389677E+02  0.00000000000E+00 0. -1.
</event>
<event>
 7    1  0.3910495E-008  0.4614232E+02  0.7816164E-02  0.1320468E+00
        -11   -1    0    0    0    0  0.00000000000E+00  0.00000000000E+00  0.45593999997E+02  0.45594000000E+02  0.51100000000E-03 0. -1.
         11   -1    0    0    0    0 -0.00000000000E+00 -0.00000000000E+00 -0.45593999997E+02  0.45594000000E+02  0.51100000000E-03 0.  1.
    9900012    2    1    2    0    0  0.78407788833E+01 -0.26635135467E+02  0.35471189826E+02  0.46142316938E+02  0.99999924942E+01 0.  0.
        -12    1    1    2    0    0 -0.78407788833E+01  0.26635135467E+02 -0.35471189826E+02  0.45045683062E+02  0.00000000000E+00 0.  1.
         11    1    3    3    0    0  0.38335440198E+01 -0.11563630349E+02  0.87030277310E+01  0.14971850205E+02  0.51100000000E-03 0. -1.
        -11    1    3    3    0    0 -0.37357671757E-01 -0.64233896876E+01  0.10795903584E+02  0.12562359059E+02  0.51100000000E-03 0.  1.
         12    1    3    3    0    0  0.40445925353E+01 -0.86481154306E+01  0.15972258511E+02  0.18608107674E+02  0.00000000000E+00 0. -1.
</event>
<event>
 7    1  0.3910495E-008  0.4614232E+02  0.7816164E-02  0.1320468E+00
        -11   -1    0    0    0    0  0.00000000000E+00  0.00000000000E+00  0.45593999997E+02  0.45594000000E+02  0.51100000000E-03 0.  1.
         11   -1    0    0    0    0 -0.00000000000E+00 -0.00000000000E+00 -0.45593999997E+02  0.45594000000E+02  0.51100000000E-03 0. -1.
    9900012    2    1    2    0    0 -0.95497639923E+00 -0.30833075574E+02 -0.32825644075E+02  0.46142318318E+02  0.10000005075E+02 0.  0.
        -12    1    1    2    0    0  0.95497639923E+00  0.30833075574E+02  0.32825644075E+02  0.45045681682E+02  0.00000000000E+00 0.  1.
         11    1    3    3    0    0  0.65882087259E+00 -0.88264007550E+00 -0.20541078826E+01  0.23307633727E+01  0.51100000000E-03 0. -1.
        -11    1    3    3    0    0 -0.12409981755E+00 -0.21845960263E+02 -0.16674208007E+02  0.27482550709E+02  0.51100000000E-03 0.  1.
         12    1    3    3    0    0 -0.14896974543E+01 -0.81044752358E+01 -0.14097328186E+02  0.16329004236E+02  0.00000000000E+00 0. -1.
</event>
<event>
 7    1  0.3910495E-008  0.4614232E+02  0.7816164E-02  0.1320468E+00
        -11   -1    0    0    0    0  0.00000000000E+00  0.00000000000E+00  0.45593999997E+02  0.45594000000E+02  0.51100000000E-03 0. -1.
         11   -1    0    0    0    0 -0.00000000000E+00 -0.00000000000E+00 -0.45593999997E+02  0.45594000000E+02  0.51100000000E-03 0.  1.
    9900012    2    1    2    0    0  0.36045044869E+02  0.27008667138E+02  0.63256497644E+00  0.46142317647E+02  0.99999989606E+01 0.  0.
        -12    1    1    2    0    0 -0.36045044869E+02 -0.27008667138E+02 -0.63256497644E+00  0.45045682353E+02  0.00000000000E+00 0.  1.
         11    1    3    3    0    0  0.80163194178E+01  0.38142792161E+01  0.13149427637E+01  0.89743622437E+01  0.51100000000E-03 0. -1.
        -11    1    3    3    0    0  0.11549065511E+02  0.13583042071E+02  0.18416457301E+01  0.17924051031E+02  0.51100000000E-03 0.  1.
         12    1    3    3    0    0  0.16479659940E+02  0.96113458510E+01 -0.25240235173E+01  0.19243904373E+02  0.00000000000E+00 0. -1.
</event>
<event>
 7    1  0.4904254E-008  0.4614232E+02  0.7816164E-02  0.1320468E+00
        -11   -1    0    0    0    0  0.00000000000E+00  0.00000000000E+00  0.45593999997E+02  0.45594000000E+02  0.51100000000E-03 0. -1.
         11   -1    0    0    0    0 -0.00000000000E+00 -0.00000000000E+00 -0.45593999997E+02  0.45594000000E+02  0.51100000000E-03 0.  1.
    9900012    2    1    2    0    0 -0.35285563025E+02 -0.27157832745E+02  0.68187001451E+01  0.46142317531E+02  0.99999979015E+01 0.  0.
        -12    1    1    2    0    0  0.35285563025E+02  0.27157832745E+02 -0.68187001451E+01  0.45045682469E+02  0.00000000000E+00 0.  1.
         11    1    3    3    0    0 -0.15623302503E+02 -0.10120796087E+02  0.13996540500E+01  0.18667542052E+02  0.51100000000E-03 0. -1.
        -11    1    3    3    0    0 -0.16812578035E+02 -0.11156735113E+02  0.25494486006E+01  0.20338023675E+02  0.51100000000E-03 0.  1.
        -12    1    3    3    0    0 -0.28496824877E+01 -0.58803015450E+01  0.28695974945E+01  0.71367518046E+01  0.00000000000E+00 0.  1.
</event>
<event>
 7    1  0.3910495E-008  0.4614232E+02  0.7816164E-02  0.1320468E+00
        -11   -1    0    0    0    0  0.00000000000E+00  0.00000000000E+00  0.45593999997E+02  0.45594000000E+02  0.51100000000E-03 0. -1.
         11   -1    0    0    0    0 -0.00000000000E+00 -0.00000000000E+00 -0.45593999997E+02  0.45594000000E+02  0.51100000000E-03 0.  1.
    9900012    2    1    2    0    0  0.15267874222E+02 -0.62899153810E+01  0.41909932945E+02  0.46142317652E+02  0.99999990064E+01 0.  0.
        -12    1    1    2    0    0 -0.15267874222E+02  0.62899153810E+01 -0.41909932945E+02  0.45045682348E+02  0.00000000000E+00 0.  1.
         11    1    3    3    0    0  0.63220803666E+01 -0.37948741963E+01  0.20974465775E+02  0.22232813253E+02  0.51100000000E-03 0. -1.
        -11    1    3    3    0    0  0.88171734697E+01 -0.29505662253E+01  0.13124350415E+02  0.16084059286E+02  0.51100000000E-03 0.  1.
        -12    1    3    3    0    0  0.12862038606E+00  0.45552504059E+00  0.78111167541E+01  0.78254451127E+01  0.00000000000E+00 0.  1.
</event>
<event>
 7    1  0.3910495E-008  0.4614232E+02  0.7816164E-02  0.1320468E+00
        -11   -1    0    0    0    0  0.00000000000E+00  0.00000000000E+00  0.45593999997E+02  0.45594000000E+02  0.51100000000E-03 0.  1.
         11   -1    0    0    0    0 -0.00000000000E+00 -0.00000000000E+00 -0.45593999997E+02  0.45594000000E+02  0.51100000000E-03 0. -1.
    9900012    2    1    2    0    0  0.40459026897E+02 -0.18591704800E+02 -0.68212282774E+01  0.46142317632E+02  0.99999988203E+01 0.  0.
        -12    1    1    2    0    0 -0.40459026897E+02  0.18591704800E+02  0.68212282774E+01  0.45045682368E+02  0.00000000000E+00 0.  1.
         11    1    3    3    0    0  0.76002017257E+01 -0.49953573489E+01  0.18777236276E+01  0.92866844243E+01  0.51100000000E-03 0. -1.
        -11    1    3    3    0    0  0.19946905083E+01  0.13838382618E+00 -0.13061945417E+00  0.20037469926E+01  0.51100000000E-03 0.  1.
         12    1    3    3    0    0  0.30864134663E+02 -0.13734731277E+02 -0.85683324508E+01  0.34851886215E+02  0.00000000000E+00 0. -1.
</event>
<event>
 7    1  0.3910495E-008  0.4614232E+02  0.7816164E-02  0.1320468E+00
        -11   -1    0    0    0    0  0.00000000000E+00  0.00000000000E+00  0.45593999997E+02  0.45594000000E+02  0.51100000000E-03 0.  1.
         11   -1    0    0    0    0 -0.00000000000E+00 -0.00000000000E+00 -0.45593999997E+02  0.45594000000E+02  0.51100000000E-03 0. -1.
    9900012    2    1    2    0    0  0.38934335945E+02 -0.77822436739E+01 -0.21275987348E+02  0.46142317968E+02  0.10000001884E+02 0.  0.
        -12    1    1    2    0    0 -0.38934335945E+02  0.77822436739E+01  0.21275987348E+02  0.45045682032E+02  0.00000000000E+00 0.  1.
         11    1    3    3    0    0  0.74527625694E+01 -0.55270377057E+00 -0.64207348852E+01  0.98526640104E+01  0.51100000000E-03 0. -1.
        -11    1    3    3    0    0  0.10954962044E+02 -0.60528031728E+01 -0.64177719428E+01  0.14065397847E+02  0.51100000000E-03 0.  1.
         12    1    3    3    0    0  0.20526611332E+02 -0.11767367305E+01 -0.84374805204E+01  0.22224256110E+02  0.00000000000E+00 0. -1.
</event>
<event>
 7    1  0.3910495E-008  0.4614232E+02  0.7816164E-02  0.1320468E+00
        -11   -1    0    0    0    0  0.00000000000E+00  0.00000000000E+00  0.45593999997E+02  0.45594000000E+02  0.51100000000E-03 0.  1.
         11   -1    0    0    0    0 -0.00000000000E+00 -0.00000000000E+00 -0.45593999997E+02  0.45594000000E+02  0.51100000000E-03 0. -1.
    9900012    2    1    2    0    0 -0.35846792661E+02  0.27122708691E+02 -0.29119794920E+01  0.46142317683E+02  0.99999992897E+01 0.  0.
        -12    1    1    2    0    0  0.35846792661E+02 -0.27122708691E+02  0.29119794920E+01  0.45045682317E+02  0.00000000000E+00 0.  1.
         11    1    3    3    0    0 -0.17027074639E+02  0.11739728251E+02 -0.13810616609E+01  0.20727996086E+02  0.51100000000E-03 0. -1.
        -11    1    3    3    0    0 -0.96555200552E+01  0.12400338849E+02 -0.13681038761E+01  0.15775588090E+02  0.51100000000E-03 0.  1.
        -12    1    3    3    0    0 -0.91641979674E+01  0.29826415906E+01 -0.16281395498E+00  0.96387335075E+01  0.00000000000E+00 0.  1.
</event>
<event>
 7    1  0.3910495E-008  0.4614232E+02  0.7816164E-02  0.1320468E+00
        -11   -1    0    0    0    0  0.00000000000E+00  0.00000000000E+00  0.45593999997E+02  0.45594000000E+02  0.51100000000E-03 0. -1.
         11   -1    0    0    0    0 -0.00000000000E+00 -0.00000000000E+00 -0.45593999997E+02  0.45594000000E+02  0.51100000000E-03 0.  1.
    9900012    2    1    2    0    0  0.69452562381E+01 -0.61861183107E+01  0.44075037593E+02  0.46142316713E+02  0.99999904455E+01 0.  0.
        -12    1    1    2    0    0 -0.69452562381E+01  0.61861183107E+01 -0.44075037593E+02  0.45045683287E+02  0.00000000000E+00 0.  1.
         11    1    3    3    0    0 -0.56691979632E+00 -0.23633644339E+00  0.11390219961E+02  0.11406768341E+02  0.51100000000E-03 0. -1.
        -11    1    3    3    0    0  0.32166984146E+01 -0.64456360756E+01  0.16946730338E+02  0.18414261932E+02  0.51100000000E-03 0.  1.
         12    1    3    3    0    0  0.42954776198E+01  0.49585420830E+00  0.15738087294E+02  0.16321286440E+02  0.00000000000E+00 0. -1.
</event>
<event>
 7    1  0.3910495E-008  0.4614232E+02  0.7816164E-02  0.1320468E+00
        -11   -1    0    0    0    0  0.00000000000E+00  0.00000000000E+00  0.45593999997E+02  0.45594000000E+02  0.51100000000E-03 0.  1.
         11   -1    0    0    0    0 -0.00000000000E+00 -0.00000000000E+00 -0.45593999997E+02  0.45594000000E+02  0.51100000000E-03 0. -1.
    9900012    2    1    2    0    0  0.23947883275E+02 -0.36535507905E+02 -0.10989497103E+02  0.46142317656E+02  0.99999990446E+01 0.  0.
        -12    1    1    2    0    0 -0.23947883275E+02  0.36535507905E+02  0.10989497103E+02  0.45045682344E+02  0.00000000000E+00 0.  1.
         11    1    3    3    0    0  0.94502769869E+01 -0.17633655966E+02 -0.42182846615E+01  0.20446209517E+02  0.51100000000E-03 0. -1.
        -11    1    3    3    0    0  0.59133412672E+01 -0.13235669424E+02 -0.36899979440E+01  0.14958831342E+02  0.51100000000E-03 0.  1.
        -12    1    3    3    0    0  0.85842650209E+01 -0.56661825155E+01 -0.30812144973E+01  0.10737276798E+02  0.00000000000E+00 0.  1.
</event>
<event>
 7    1  0.3910495E-008  0.4614232E+02  0.7816164E-02  0.1320468E+00
        -11   -1    0    0    0    0  0.00000000000E+00  0.00000000000E+00  0.45593999997E+02  0.45594000000E+02  0.51100000000E-03 0.  1.
         11   -1    0    0    0    0 -0.00000000000E+00 -0.00000000000E+00 -0.45593999997E+02  0.45594000000E+02  0.51100000000E-03 0. -1.
    9900012    2    1    2    0    0 -0.37755145769E+02  0.23492345889E+02 -0.71952903286E+01  0.46142317073E+02  0.99999937283E+01 0.  0.
        -12    1    1    2    0    0  0.37755145769E+02 -0.23492345889E+02  0.71952903286E+01  0.45045682927E+02  0.00000000000E+00 0.  1.
         11    1    3    3    0    0 -0.78429314518E+01  0.80373126099E+01 -0.14371669602E+01  0.11321458249E+02  0.51100000000E-03 0. -1.
        -11    1    3    3    0    0 -0.49304593829E+01  0.25764324994E+01 -0.36125536159E+01  0.66330971680E+01  0.51100000000E-03 0.  1.
        -12    1    3    3    0    0 -0.24981754934E+02  0.12878600780E+02 -0.21455697524E+01  0.28187761657E+02  0.00000000000E+00 0.  1.
</event>
<event>
 7    1  0.3910495E-008  0.4614232E+02  0.7816164E-02  0.1320468E+00
        -11   -1    0    0    0    0  0.00000000000E+00  0.00000000000E+00  0.45593999997E+02  0.45594000000E+02  0.51100000000E-03 0.  1.
         11   -1    0    0    0    0 -0.00000000000E+00 -0.00000000000E+00 -0.45593999997E+02  0.45594000000E+02  0.51100000000E-03 0. -1.
    9900012    2    1    2    0    0  0.32901396789E+02  0.32572143729E+01 -0.30594153522E+02  0.46142316679E+02  0.99999901288E+01 0.  0.
        -12    1    1    2    0    0 -0.32901396789E+02 -0.32572143729E+01  0.30594153522E+02  0.45045683321E+02  0.00000000000E+00 0.  1.
         11    1    3    3    0    0  0.40684192004E+01 -0.62475906428E+00 -0.70600329182E+01  0.81722961122E+01  0.51100000000E-03 0. -1.
        -11    1    3    3    0    0  0.40644953372E+01 -0.86338807217E+00 -0.13124267247E+01  0.43575251552E+01  0.51100000000E-03 0.  1.
         12    1    3    3    0    0  0.24768482251E+02  0.47453615094E+01 -0.22221693880E+02  0.33612495411E+02  0.00000000000E+00 0. -1.
</event>
<event>
 7    1  0.3910495E-008  0.4614232E+02  0.7816164E-02  0.1320468E+00
        -11   -1    0    0    0    0  0.00000000000E+00  0.00000000000E+00  0.45593999997E+02  0.45594000000E+02  0.51100000000E-03 0.  1.
         11   -1    0    0    0    0 -0.00000000000E+00 -0.00000000000E+00 -0.45593999997E+02  0.45594000000E+02  0.51100000000E-03 0. -1.
    9900012    2    1    2    0    0  0.23997290569E+02 -0.11866449623E+02 -0.36227490288E+02  0.46142316146E+02  0.99999852736E+01 0.  0.
        -12    1    1    2    0    0 -0.23997290569E+02  0.11866449623E+02  0.36227490288E+02  0.45045683854E+02  0.00000000000E+00 0.  1.
         11    1    3    3    0    0  0.55032518358E+01 -0.39882986285E+01 -0.54478986729E+01  0.87104481475E+01  0.51100000000E-03 0. -1.
        -11    1    3    3    0    0  0.80154871302E+01 -0.70862100155E+01 -0.13765450748E+02  0.17434163039E+02  0.51100000000E-03 0.  1.
        -12    1    3    3    0    0  0.10478551603E+02 -0.79194097885E+00 -0.17014140866E+02  0.19997704959E+02  0.00000000000E+00 0.  1.
</event>
<event>
 7    1  0.3910495E-008  0.4614232E+02  0.7816164E-02  0.1320468E+00
        -11   -1    0    0    0    0  0.00000000000E+00  0.00000000000E+00  0.45593999997E+02  0.45594000000E+02  0.51100000000E-03 0. -1.
         11   -1    0    0    0    0 -0.00000000000E+00 -0.00000000000E+00 -0.45593999997E+02  0.45594000000E+02  0.51100000000E-03 0.  1.
    9900012    2    1    2    0    0  0.17007812777E+02 -0.19948357515E+02  0.36632101259E+02  0.46142317570E+02  0.99999982547E+01 0.  0.
        -12    1    1    2    0    0 -0.17007812777E+02  0.19948357515E+02 -0.36632101259E+02  0.45045682430E+02  0.00000000000E+00 0.  1.
         11    1    3    3    0    0  0.15690688060E+01 -0.44668474679E+00  0.76646361623E+01  0.78363353643E+01  0.51100000000E-03 0. -1.
        -11    1    3    3    0    0  0.12609936625E+02 -0.13792384651E+02  0.21267480847E+02  0.28311589816E+02  0.51100000000E-03 0.  1.
         12    1    3    3    0    0  0.28288073463E+01 -0.57092881169E+01  0.76999842489E+01  0.99943923896E+01  0.00000000000E+00 0. -1.
</event>
<event>
 7    1  0.3910495E-008  0.4614232E+02  0.7816164E-02  0.1320468E+00
        -11   -1    0    0    0    0  0.00000000000E+00  0.00000000000E+00  0.45593999997E+02  0.45594000000E+02  0.51100000000E-03 0.  1.
         11   -1    0    0    0    0 -0.00000000000E+00 -0.00000000000E+00 -0.45593999997E+02  0.45594000000E+02  0.51100000000E-03 0. -1.
    9900012    2    1    2    0    0  0.44304107658E+02  0.81251540918E+01  0.49138726404E+00  0.46142317124E+02  0.99999941875E+01 0.  0.
        -12    1    1    2    0    0 -0.44304107658E+02 -0.81251540918E+01 -0.49138726404E+00  0.45045682876E+02  0.00000000000E+00 0.  1.
         11    1    3    3    0    0  0.25818284215E+02  0.49077197589E+01  0.30145885096E+01  0.26452925305E+02  0.51100000000E-03 0. -1.
        -11    1    3    3    0    0  0.13400406823E+02  0.47170264500E+01 -0.22202971586E+01  0.14378837271E+02  0.51100000000E-03 0.  1.
        -12    1    3    3    0    0  0.50854166195E+01 -0.14995921172E+01 -0.30290408700E+00  0.53105545471E+01  0.00000000000E+00 0.  1.
</event>
<event>
 7    1  0.3910495E-008  0.4614232E+02  0.7816164E-02  0.1320468E+00
        -11   -1    0    0    0    0  0.00000000000E+00  0.00000000000E+00  0.45593999997E+02  0.45594000000E+02  0.51100000000E-03 0.  1.
         11   -1    0    0    0    0 -0.00000000000E+00 -0.00000000000E+00 -0.45593999997E+02  0.45594000000E+02  0.51100000000E-03 0. -1.
    9900012    2    1    2    0    0 -0.72863645977E+01  0.16043292686E+02 -0.41456418806E+02  0.46142323077E+02  0.10000048475E+02 0.  0.
        -12    1    1    2    0    0  0.72863645977E+01 -0.16043292686E+02  0.41456418806E+02  0.45045676923E+02  0.00000000000E+00 0.  1.
         11    1    3    3    0    0 -0.10604682196E+01  0.12406630165E+02 -0.30537825975E+02  0.32978900534E+02  0.51100000000E-03 0. -1.
        -11    1    3    3    0    0 -0.41250135817E+01  0.28019311333E+01 -0.84850733044E+01  0.98419014610E+01  0.51100000000E-03 0.  1.
         12    1    3    3    0    0 -0.21008827964E+01  0.83473138806E+00 -0.24335195261E+01  0.33215210821E+01  0.00000000000E+00 0. -1.
</event>
<event>
 7    1  0.3910495E-008  0.4614232E+02  0.7816164E-02  0.1320468E+00
        -11   -1    0    0    0    0  0.00000000000E+00  0.00000000000E+00  0.45593999997E+02  0.45594000000E+02  0.51100000000E-03 0. -1.
         11   -1    0    0    0    0 -0.00000000000E+00 -0.00000000000E+00 -0.45593999997E+02  0.45594000000E+02  0.51100000000E-03 0.  1.
    9900012    2    1    2    0    0  0.12719596753E+02 -0.42457738621E+02 -0.80415064510E+01  0.46142317228E+02  0.99999951393E+01 0.  0.
        -12    1    1    2    0    0 -0.12719596753E+02  0.42457738621E+02  0.80415064510E+01  0.45045682772E+02  0.00000000000E+00 0.  1.
         11    1    3    3    0    0  0.14190103703E+01 -0.11186227598E+01 -0.14857369906E+01  0.23392994627E+01  0.51100000000E-03 0. -1.
        -11    1    3    3    0    0  0.19365750605E+00 -0.13957723120E+01  0.90987722858E+00  0.16773671061E+01  0.51100000000E-03 0.  1.
         12    1    3    3    0    0  0.11106928877E+02 -0.39943343549E+02 -0.74656466890E+01  0.42125650659E+02  0.00000000000E+00 0. -1.
</event>
<event>
 7    1  0.3910495E-008  0.4614232E+02  0.7816164E-02  0.1320468E+00
        -11   -1    0    0    0    0  0.00000000000E+00  0.00000000000E+00  0.45593999997E+02  0.45594000000E+02  0.51100000000E-03 0.  1.
         11   -1    0    0    0    0 -0.00000000000E+00 -0.00000000000E+00 -0.45593999997E+02  0.45594000000E+02  0.51100000000E-03 0. -1.
    9900012    2    1    2    0    0 -0.68929049433E+01 -0.12361142215E+02 -0.42764511453E+02  0.46142318573E+02  0.10000007406E+02 0.  0.
        -12    1    1    2    0    0  0.68929049433E+01  0.12361142215E+02  0.42764511453E+02  0.45045681427E+02  0.00000000000E+00 0.  1.
         11    1    3    3    0    0 -0.93468558254E+00 -0.87451819212E+00 -0.32945575411E+01  0.35344771692E+01  0.51100000000E-03 0. -1.
        -11    1    3    3    0    0 -0.26912759209E+01 -0.83023214026E+01 -0.12443719331E+02  0.15199265042E+02  0.51100000000E-03 0.  1.
        -12    1    3    3    0    0 -0.32669434398E+01 -0.31843026201E+01 -0.27026234581E+02  0.27408576363E+02  0.00000000000E+00 0.  1.
</event>
<event>
 7    1  0.3910495E-008  0.4614232E+02  0.7816164E-02  0.1320468E+00
        -11   -1    0    0    0    0  0.00000000000E+00  0.00000000000E+00  0.45593999997E+02  0.45594000000E+02  0.51100000000E-03 0. -1.
         11   -1    0    0    0    0 -0.00000000000E+00 -0.00000000000E+00 -0.45593999997E+02  0.45594000000E+02  0.51100000000E-03 0.  1.
    9900012    2    1    2    0    0 -0.44185797209E+02  0.50996281518E+01 -0.71219769562E+01  0.46142318319E+02  0.10000005089E+02 0.  0.
        -12    1    1    2    0    0  0.44185797209E+02 -0.50996281518E+01  0.71219769562E+01  0.45045681681E+02  0.00000000000E+00 0.  1.
         11    1    3    3    0    0 -0.15513872939E+02  0.41234882875E+01 -0.49813042414E+01  0.16807641162E+02  0.51100000000E-03 0. -1.
        -11    1    3    3    0    0 -0.10775538924E+02  0.21428661191E+01  0.13326137567E+01  0.11067067091E+02  0.51100000000E-03 0.  1.
        -12    1    3    3    0    0 -0.17896385346E+02 -0.11667262549E+01 -0.34732864714E+01  0.18267610066E+02  0.00000000000E+00 0.  1.
</event>
<event>
 7    1  0.3910495E-008  0.4614232E+02  0.7816164E-02  0.1320468E+00
        -11   -1    0    0    0    0  0.00000000000E+00  0.00000000000E+00  0.45593999997E+02  0.45594000000E+02  0.51100000000E-03 0. -1.
         11   -1    0    0    0    0 -0.00000000000E+00 -0.00000000000E+00 -0.45593999997E+02  0.45594000000E+02  0.51100000000E-03 0.  1.
    9900012    2    1    2    0    0  0.27211668723E+02  0.28189052658E+02  0.22226469353E+02  0.46142317140E+02  0.99999943356E+01 0.  0.
        -12    1    1    2    0    0 -0.27211668723E+02 -0.28189052658E+02 -0.22226469353E+02  0.45045682860E+02  0.00000000000E+00 0.  1.
         11    1    3    3    0    0  0.19074472591E+02  0.17017194483E+02  0.10294181627E+02  0.27557042445E+02  0.51100000000E-03 0. -1.
        -11    1    3    3    0    0  0.51835296334E+01  0.85716501674E+01  0.67535702451E+01  0.12081095868E+02  0.51100000000E-03 0.  1.
         12    1    3    3    0    0  0.29536664990E+01  0.26002080077E+01  0.51787174809E+01  0.65041788273E+01  0.00000000000E+00 0. -1.
</event>
<event>
 7    1  0.3910495E-008  0.4614232E+02  0.7816164E-02  0.1320468E+00
        -11   -1    0    0    0    0  0.00000000000E+00  0.00000000000E+00  0.45593999997E+02  0.45594000000E+02  0.51100000000E-03 0.  1.
         11   -1    0    0    0    0 -0.00000000000E+00 -0.00000000000E+00 -0.45593999997E+02  0.45594000000E+02  0.51100000000E-03 0. -1.
    9900012    2    1    2    0    0  0.26411098826E+02  0.11176858421E+02 -0.34736800398E+02  0.46142316441E+02  0.99999879659E+01 0.  0.
        -12    1    1    2    0    0 -0.26411098826E+02 -0.11176858421E+02  0.34736800398E+02  0.45045683559E+02  0.00000000000E+00 0.  1.
         11    1    3    3    0    0  0.19558920670E+02  0.87599917330E+01 -0.28123641755E+02  0.35358564150E+02  0.51100000000E-03 0. -1.
        -11    1    3    3    0    0  0.16156826503E+01  0.25431769069E+01 -0.37626504651E+01  0.48203441776E+01  0.51100000000E-03 0.  1.
        -12    1    3    3    0    0  0.52364955063E+01 -0.12631021885E+00 -0.28505081774E+01  0.59634081135E+01  0.00000000000E+00 0.  1.
</event>
<event>
 7    1  0.3910495E-008  0.4614232E+02  0.7816164E-02  0.1320468E+00
        -11   -1    0    0    0    0  0.00000000000E+00  0.00000000000E+00  0.45593999997E+02  0.45594000000E+02  0.51100000000E-03 0.  1.
         11   -1    0    0    0    0 -0.00000000000E+00 -0.00000000000E+00 -0.45593999997E+02  0.45594000000E+02  0.51100000000E-03 0. -1.
    9900012    2    1    2    0    0 -0.18691389893E+02  0.34747926542E+02 -0.21733091474E+02  0.46142315189E+02  0.99999765440E+01 0.  0.
        -12    1    1    2    0    0  0.18691389893E+02 -0.34747926542E+02  0.21733091474E+02  0.45045684811E+02  0.00000000000E+00 0.  1.
         11    1    3    3    0    0 -0.32622960727E+01  0.14167131938E+02 -0.10171296986E+02  0.17742758682E+02  0.51100000000E-03 0. -1.
        -11    1    3    3    0    0 -0.29025054789E+01  0.27623619942E+01 -0.72621620125E+00  0.40721704378E+01  0.51100000000E-03 0.  1.
         12    1    3    3    0    0 -0.12526588341E+02  0.17818432610E+02 -0.10835578287E+02  0.24327386069E+02  0.00000000000E+00 0. -1.
</event>
<event>
 7    1  0.3910495E-008  0.4614232E+02  0.7816164E-02  0.1320468E+00
        -11   -1    0    0    0    0  0.00000000000E+00  0.00000000000E+00  0.45593999997E+02  0.45594000000E+02  0.51100000000E-03 0.  1.
         11   -1    0    0    0    0 -0.00000000000E+00 -0.00000000000E+00 -0.45593999997E+02  0.45594000000E+02  0.51100000000E-03 0. -1.
    9900012    2    1    2    0    0  0.24672834948E+01  0.43150129542E+02 -0.12692218015E+02  0.46142316905E+02  0.99999921928E+01 0.  0.
        -12    1    1    2    0    0 -0.24672834948E+01 -0.43150129542E+02  0.12692218015E+02  0.45045683095E+02  0.00000000000E+00 0.  1.
         11    1    3    3    0    0  0.14926474238E+01  0.13743165540E+02 -0.76231024809E+01  0.15786522324E+02  0.51100000000E-03 0. -1.
        -11    1    3    3    0    0  0.23774780341E+01  0.13955036222E+02 -0.43399894988E+00  0.14162760787E+02  0.51100000000E-03 0.  1.
         12    1    3    3    0    0 -0.14028419631E+01  0.15451927780E+02 -0.46351165846E+01  0.16193033794E+02  0.00000000000E+00 0. -1.
</event>
<event>
 7    1  0.3910495E-008  0.4614232E+02  0.7816164E-02  0.1320468E+00
        -11   -1    0    0    0    0  0.00000000000E+00  0.00000000000E+00  0.45593999997E+02  0.45594000000E+02  0.51100000000E-03 0. -1.
         11   -1    0    0    0    0 -0.00000000000E+00 -0.00000000000E+00 -0.45593999997E+02  0.45594000000E+02  0.51100000000E-03 0.  1.
    9900012    2    1    2    0    0 -0.85683243688E+01  0.32734124636E+02  0.29735071196E+02  0.46142316997E+02  0.99999930339E+01 0.  0.
        -12    1    1    2    0    0  0.85683243688E+01 -0.32734124636E+02 -0.29735071196E+02  0.45045683003E+02  0.00000000000E+00 0.  1.
         11    1    3    3    0    0 -0.17801327435E+01  0.15795659626E+02  0.14303681809E+02  0.21383803430E+02  0.51100000000E-03 0. -1.
        -11    1    3    3    0    0 -0.71043435925E+01  0.15159730999E+02  0.11159262985E+02  0.20120096731E+02  0.51100000000E-03 0.  1.
        -12    1    3    3    0    0  0.31615196720E+00  0.17787340114E+01  0.42721264016E+01  0.46384168356E+01  0.00000000000E+00 0.  1.
</event>
<event>
 7    1  0.3910495E-008  0.4614232E+02  0.7816164E-02  0.1320468E+00
        -11   -1    0    0    0    0  0.00000000000E+00  0.00000000000E+00  0.45593999997E+02  0.45594000000E+02  0.51100000000E-03 0.  1.
         11   -1    0    0    0    0 -0.00000000000E+00 -0.00000000000E+00 -0.45593999997E+02  0.45594000000E+02  0.51100000000E-03 0. -1.
    9900012    2    1    2    0    0  0.44650625402E+02  0.57817653693E+01  0.14164947573E+01  0.46142316333E+02  0.99999869812E+01 0.  0.
        -12    1    1    2    0    0 -0.44650625402E+02 -0.57817653693E+01 -0.14164947573E+01  0.45045683667E+02  0.00000000000E+00 0.  1.
         11    1    3    3    0    0  0.12027079263E+02  0.40307894267E-01  0.13938249610E+01  0.12107642570E+02  0.51100000000E-03 0. -1.
        -11    1    3    3    0    0  0.57761259079E+00  0.11693303195E+01  0.10093787626E+01  0.16491862990E+01  0.51100000000E-03 0.  1.
         12    1    3    3    0    0  0.32045933548E+02  0.45721271555E+01 -0.98670896629E+00  0.32385487464E+02  0.00000000000E+00 0. -1.
</event>
<event>
 7    1  0.3910495E-008  0.4614232E+02  0.7816164E-02  0.1320468E+00
        -11   -1    0    0    0    0  0.00000000000E+00  0.00000000000E+00  0.45593999997E+02  0.45594000000E+02  0.51100000000E-03 0.  1.
         11   -1    0    0    0    0 -0.00000000000E+00 -0.00000000000E+00 -0.45593999997E+02  0.45594000000E+02  0.51100000000E-03 0. -1.
    9900012    2    1    2    0    0  0.22698903952E+02 -0.38454892064E+02 -0.59240430934E+01  0.46142320398E+02  0.10000024044E+02 0.  0.
        -12    1    1    2    0    0 -0.22698903952E+02  0.38454892064E+02  0.59240430934E+01  0.45045679602E+02  0.00000000000E+00 0.  1.
         11    1    3    3    0    0  0.75866515881E+01 -0.19373010752E+02 -0.95340555899E+00  0.20827381265E+02  0.51100000000E-03 0. -1.
        -11    1    3    3    0    0  0.72052609638E+01 -0.83851166404E+01  0.16294238098E+00  0.11056786021E+02  0.51100000000E-03 0.  1.
        -12    1    3    3    0    0  0.79069914002E+01 -0.10696764671E+02 -0.51335799154E+01  0.14258153113E+02  0.00000000000E+00 0.  1.
</event>
<event>
 7    1  0.3910495E-008  0.4614232E+02  0.7816164E-02  0.1320468E+00
        -11   -1    0    0    0    0  0.00000000000E+00  0.00000000000E+00  0.45593999997E+02  0.45594000000E+02  0.51100000000E-03 0.  1.
         11   -1    0    0    0    0 -0.00000000000E+00 -0.00000000000E+00 -0.45593999997E+02  0.45594000000E+02  0.51100000000E-03 0. -1.
    9900012    2    1    2    0    0 -0.42341868774E+02  0.11832488681E+02 -0.98118162197E+01  0.46142318995E+02  0.10000011255E+02 0.  0.
        -12    1    1    2    0    0  0.42341868774E+02 -0.11832488681E+02  0.98118162197E+01  0.45045681005E+02  0.00000000000E+00 0.  1.
         11    1    3    3    0    0 -0.11063192806E+02  0.28383520968E+01  0.20805369240E+00  0.11423386726E+02  0.51100000000E-03 0.  1.
        -11    1    3    3    0    0 -0.47294019305E+01  0.38283001374E+01 -0.29551708790E+01  0.67643299555E+01  0.51100000000E-03 0. -1.
         12    1    3    3    0    0 -0.26549274037E+02  0.51658364469E+01 -0.70646990331E+01  0.27954602314E+02  0.00000000000E+00 0. -1.
</event>
<event>
 7    1  0.3910495E-008  0.4614232E+02  0.7816164E-02  0.1320468E+00
        -11   -1    0    0    0    0  0.00000000000E+00  0.00000000000E+00  0.45593999997E+02  0.45594000000E+02  0.51100000000E-03 0.  1.
         11   -1    0    0    0    0 -0.00000000000E+00 -0.00000000000E+00 -0.45593999997E+02  0.45594000000E+02  0.51100000000E-03 0. -1.
    9900012    2    1    2    0    0  0.92313357209E+00 -0.21210630976E+02 -0.39728710859E+02  0.46142317537E+02  0.99999979603E+01 0.  0.
        -12    1    1    2    0    0 -0.92313357209E+00  0.21210630976E+02  0.39728710859E+02  0.45045682463E+02  0.00000000000E+00 0.  1.
         11    1    3    3    0    0  0.29449186510E+01 -0.49973719511E+01 -0.81076513810E+01  0.99689660174E+01  0.51100000000E-03 0. -1.
        -11    1    3    3    0    0 -0.31844409664E+01 -0.52846504817E+01 -0.78491783199E+01  0.99838767792E+01  0.51100000000E-03 0.  1.
        -12    1    3    3    0    0  0.11626558875E+01 -0.10928608543E+02 -0.23771881158E+02  0.26189474741E+02  0.00000000000E+00 0.  1.
</event>
<event>
 7    1  0.3910495E-008  0.4614232E+02  0.7816164E-02  0.1320468E+00
        -11   -1    0    0    0    0  0.00000000000E+00  0.00000000000E+00  0.45593999997E+02  0.45594000000E+02  0.51100000000E-03 0.  1.
         11   -1    0    0    0    0 -0.00000000000E+00 -0.00000000000E+00 -0.45593999997E+02  0.45594000000E+02  0.51100000000E-03 0. -1.
    9900012    2    1    2    0    0  0.38672593908E+02  0.14538736367E+02 -0.17949069848E+02  0.46142317819E+02  0.10000000531E+02 0.  0.
        -12    1    1    2    0    0 -0.38672593908E+02 -0.14538736367E+02  0.17949069848E+02  0.45045682181E+02  0.00000000000E+00 0.  1.
         11    1    3    3    0    0  0.27889563939E+01  0.15349350794E+01 -0.11934565400E+01  0.33998003234E+01  0.51100000000E-03 0. -1.
        -11    1    3    3    0    0  0.17732562041E+01  0.26049516481E+01 -0.34711819159E+01  0.46882101925E+01  0.51100000000E-03 0.  1.
         12    1    3    3    0    0  0.34110381310E+02  0.10398849639E+02 -0.13284431392E+02  0.38054307303E+02  0.00000000000E+00 0. -1.
</event>
<event>
 7    1  0.3910495E-008  0.4614232E+02  0.7816164E-02  0.1320468E+00
        -11   -1    0    0    0    0  0.00000000000E+00  0.00000000000E+00  0.45593999997E+02  0.45594000000E+02  0.51100000000E-03 0.  1.
         11   -1    0    0    0    0 -0.00000000000E+00 -0.00000000000E+00 -0.45593999997E+02  0.45594000000E+02  0.51100000000E-03 0. -1.
    9900012    2    1    2    0    0  0.43198902351E+02 -0.12055943183E+02 -0.41979290594E+01  0.46142317201E+02  0.99999948966E+01 0.  0.
        -12    1    1    2    0    0 -0.43198902351E+02  0.12055943183E+02  0.41979290594E+01  0.45045682799E+02  0.00000000000E+00 0.  1.
         11    1    3    3    0    0  0.19674982321E+02 -0.72151901541E+01 -0.13573998079E+01  0.21000153162E+02  0.51100000000E-03 0. -1.
        -11    1    3    3    0    0  0.12918055515E+02 -0.22416091989E+01 -0.49613497756E+01  0.14018415101E+02  0.51100000000E-03 0.  1.
        -12    1    3    3    0    0  0.10605864515E+02 -0.25991438301E+01  0.21208205240E+01  0.11123748939E+02  0.00000000000E+00 0.  1.
</event>
<event>
 7    1  0.3910495E-008  0.4614232E+02  0.7816164E-02  0.1320468E+00
        -11   -1    0    0    0    0  0.00000000000E+00  0.00000000000E+00  0.45593999997E+02  0.45594000000E+02  0.51100000000E-03 0. -1.
         11   -1    0    0    0    0 -0.00000000000E+00 -0.00000000000E+00 -0.45593999997E+02  0.45594000000E+02  0.51100000000E-03 0.  1.
    9900012    2    1    2    0    0  0.12606216331E+02 -0.10812945330E+02  0.41872152214E+02  0.46142316434E+02  0.99999878996E+01 0.  0.
        -12    1    1    2    0    0 -0.12606216331E+02  0.10812945330E+02 -0.41872152214E+02  0.45045683566E+02  0.00000000000E+00 0.  1.
         11    1    3    3    0    0  0.90162273165E+00 -0.18822804801E+01  0.16912644518E+01  0.26863132847E+01  0.51100000000E-03 0. -1.
        -11    1    3    3    0    0  0.24112916839E+01  0.10972715737E+01  0.42068809830E+01  0.49715370216E+01  0.51100000000E-03 0.  1.
         12    1    3    3    0    0  0.92933019154E+01 -0.10027936423E+02  0.35974006779E+02  0.38484466128E+02  0.00000000000E+00 0. -1.
</event>
<event>
 7    1  0.3910495E-008  0.4614232E+02  0.7816164E-02  0.1320468E+00
        -11   -1    0    0    0    0  0.00000000000E+00  0.00000000000E+00  0.45593999997E+02  0.45594000000E+02  0.51100000000E-03 0. -1.
         11   -1    0    0    0    0 -0.00000000000E+00 -0.00000000000E+00 -0.45593999997E+02  0.45594000000E+02  0.51100000000E-03 0.  1.
    9900012    2    1    2    0    0  0.39904074236E+02 -0.68622206917E+00 -0.20887976846E+02  0.46142316322E+02  0.99999868726E+01 0.  0.
        -12    1    1    2    0    0 -0.39904074236E+02  0.68622206917E+00  0.20887976846E+02  0.45045683678E+02  0.00000000000E+00 0.  1.
         11    1    3    3    0    0  0.79479754328E+01 -0.17797795474E+01 -0.58954571527E+01  0.10054568316E+02  0.51100000000E-03 0. -1.
        -11    1    3    3    0    0  0.95462676172E+01 -0.25412199463E+01 -0.66136833626E+01  0.11888222412E+02  0.51100000000E-03 0.  1.
         12    1    3    3    0    0  0.22409831186E+02  0.36347774245E+01 -0.83788363303E+01  0.24199525594E+02  0.00000000000E+00 0. -1.
</event>
<event>
 7    1  0.3910495E-008  0.4614232E+02  0.7816164E-02  0.1320468E+00
        -11   -1    0    0    0    0  0.00000000000E+00  0.00000000000E+00  0.45593999997E+02  0.45594000000E+02  0.51100000000E-03 0. -1.
         11   -1    0    0    0    0 -0.00000000000E+00 -0.00000000000E+00 -0.45593999997E+02  0.45594000000E+02  0.51100000000E-03 0.  1.
    9900012    2    1    2    0    0  0.30291649833E+02 -0.22268938588E+02  0.24811765479E+02  0.46142318946E+02  0.10000010805E+02 0.  0.
        -12    1    1    2    0    0 -0.30291649833E+02  0.22268938588E+02 -0.24811765479E+02  0.45045681054E+02  0.00000000000E+00 0.  1.
         11    1    3    3    0    0  0.24051020224E+02 -0.12909237973E+02  0.16979326601E+02  0.32146501069E+02  0.51100000000E-03 0. -1.
        -11    1    3    3    0    0 -0.22010761264E+00 -0.79774998339E+00  0.26495071993E+00  0.86893701858E+00  0.51100000000E-03 0.  1.
         12    1    3    3    0    0  0.64607372210E+01 -0.85619506315E+01  0.75674881577E+01  0.13126880858E+02  0.00000000000E+00 0. -1.
</event>
<event>
 7    1  0.3910495E-008  0.4614232E+02  0.7816164E-02  0.1320468E+00
        -11   -1    0    0    0    0  0.00000000000E+00  0.00000000000E+00  0.45593999997E+02  0.45594000000E+02  0.51100000000E-03 0.  1.
         11   -1    0    0    0    0 -0.00000000000E+00 -0.00000000000E+00 -0.45593999997E+02  0.45594000000E+02  0.51100000000E-03 0. -1.
    9900012    2    1    2    0    0  0.12096935259E+02 -0.34173172939E+02 -0.26738957675E+02  0.46142318199E+02  0.10000003993E+02 0.  0.
        -12    1    1    2    0    0 -0.12096935259E+02  0.34173172939E+02  0.26738957675E+02  0.45045681801E+02  0.00000000000E+00 0.  1.
         11    1    3    3    0    0  0.36695399041E+01 -0.12422953692E+02 -0.62748855592E+01  0.14393383570E+02  0.51100000000E-03 0. -1.
        -11    1    3    3    0    0  0.53912319299E+01 -0.13469803585E+02 -0.82712697064E+01  0.16700745288E+02  0.51100000000E-03 0.  1.
        -12    1    3    3    0    0  0.30361634247E+01 -0.82804156622E+01 -0.12192802409E+02  0.15048189342E+02  0.00000000000E+00 0.  1.
</event>
<event>
 7    1  0.3910495E-008  0.4614232E+02  0.7816164E-02  0.1320468E+00
        -11   -1    0    0    0    0  0.00000000000E+00  0.00000000000E+00  0.45593999997E+02  0.45594000000E+02  0.51100000000E-03 0.  1.
         11   -1    0    0    0    0 -0.00000000000E+00 -0.00000000000E+00 -0.45593999997E+02  0.45594000000E+02  0.51100000000E-03 0. -1.
    9900012    2    1    2    0    0  0.82732994473E+01  0.25124481555E+01 -0.44208071359E+02  0.46142318156E+02  0.10000003601E+02 0.  0.
        -12    1    1    2    0    0 -0.82732994473E+01 -0.25124481555E+01  0.44208071359E+02  0.45045681844E+02  0.00000000000E+00 0.  1.
         11    1    3    3    0    0  0.30096931295E+01 -0.98874860403E+00 -0.28241217787E+02  0.28418343704E+02  0.51100000000E-03 0. -1.
        -11    1    3    3    0    0 -0.58638736978E+00  0.60075776052E+00 -0.40442952859E+01  0.41305065858E+01  0.51100000000E-03 0.  1.
        -12    1    3    3    0    0  0.58499936876E+01  0.29004389990E+01 -0.11922558286E+02  0.13593467866E+02  0.00000000000E+00 0.  1.
</event>
<event>
 7    1  0.3910495E-008  0.4614232E+02  0.7816164E-02  0.1320468E+00
        -11   -1    0    0    0    0  0.00000000000E+00  0.00000000000E+00  0.45593999997E+02  0.45594000000E+02  0.51100000000E-03 0.  1.
         11   -1    0    0    0    0 -0.00000000000E+00 -0.00000000000E+00 -0.45593999997E+02  0.45594000000E+02  0.51100000000E-03 0. -1.
    9900012    2    1    2    0    0 -0.15563852099E+02  0.22361503033E+02 -0.35872596148E+02  0.46142318027E+02  0.10000002423E+02 0.  0.
        -12    1    1    2    0    0  0.15563852099E+02 -0.22361503033E+02  0.35872596148E+02  0.45045681973E+02  0.00000000000E+00 0.  1.
         11    1    3    3    0    0 -0.61927046416E+01  0.10933005226E+02 -0.13768439801E+02  0.18640014186E+02  0.51100000000E-03 0. -1.
        -11    1    3    3    0    0 -0.27117795641E+01  0.30788278913E+01 -0.16391874533E+01  0.44181291693E+01  0.51100000000E-03 0.  1.
        -12    1    3    3    0    0 -0.66593678929E+01  0.83496699157E+01 -0.20464968893E+02  0.23084174671E+02  0.00000000000E+00 0.  1.
</event>
<event>
 7    1  0.3910495E-008  0.4614232E+02  0.7816164E-02  0.1320468E+00
        -11   -1    0    0    0    0  0.00000000000E+00  0.00000000000E+00  0.45593999997E+02  0.45594000000E+02  0.51100000000E-03 0.  1.
         11   -1    0    0    0    0 -0.00000000000E+00 -0.00000000000E+00 -0.45593999997E+02  0.45594000000E+02  0.51100000000E-03 0. -1.
    9900012    2    1    2    0    0  0.11770972862E+02 -0.12524869119E+02 -0.41637548047E+02  0.46142317011E+02  0.99999931599E+01 0.  0.
        -12    1    1    2    0    0 -0.11770972862E+02  0.12524869119E+02  0.41637548047E+02  0.45045682989E+02  0.00000000000E+00 0.  1.
         11    1    3    3    0    0 -0.95700747794E+00 -0.10332548142E+01 -0.16141008735E+01  0.21421486211E+01  0.51100000000E-03 0.  1.
        -11    1    3    3    0    0  0.41183107059E+00 -0.79641087991E-01 -0.64364913757E+01  0.64501448840E+01  0.51100000000E-03 0. -1.
         12    1    3    3    0    0  0.12316149269E+02 -0.11411973216E+02 -0.33586955798E+02  0.37550023506E+02  0.00000000000E+00 0. -1.
</event>
<event>
 7    1  0.3910495E-008  0.4614232E+02  0.7816164E-02  0.1320468E+00
        -11   -1    0    0    0    0  0.00000000000E+00  0.00000000000E+00  0.45593999997E+02  0.45594000000E+02  0.51100000000E-03 0.  1.
         11   -1    0    0    0    0 -0.00000000000E+00 -0.00000000000E+00 -0.45593999997E+02  0.45594000000E+02  0.51100000000E-03 0. -1.
    9900012    2    1    2    0    0 -0.21126747575E+02  0.32947999532E+02 -0.22298056736E+02  0.46142317960E+02  0.10000001809E+02 0.  0.
        -12    1    1    2    0    0  0.21126747575E+02 -0.32947999532E+02  0.22298056736E+02  0.45045682040E+02  0.00000000000E+00 0.  1.
         11    1    3    3    0    0 -0.44476527368E+00 -0.49298250227E+00  0.12509059130E+00  0.67564473902E+00  0.51100000000E-03 0. -1.
        -11    1    3    3    0    0 -0.11056983182E+01  0.43387285066E+01 -0.26665921633E+01  0.52113192046E+01  0.51100000000E-03 0.  1.
         12    1    3    3    0    0 -0.19576283983E+02  0.29102253528E+02 -0.19756555164E+02  0.40255354016E+02  0.00000000000E+00 0. -1.
</event>
<event>
 7    1  0.3910495E-008  0.4614232E+02  0.7816164E-02  0.1320468E+00
        -11   -1    0    0    0    0  0.00000000000E+00  0.00000000000E+00  0.45593999997E+02  0.45594000000E+02  0.51100000000E-03 0.  1.
         11   -1    0    0    0    0 -0.00000000000E+00 -0.00000000000E+00 -0.45593999997E+02  0.45594000000E+02  0.51100000000E-03 0. -1.
    9900012    2    1    2    0    0 -0.67243320133E+01 -0.42381603818E+02 -0.13700236624E+02  0.46142318000E+02  0.10000002183E+02 0.  0.
        -12    1    1    2    0    0  0.67243320133E+01  0.42381603818E+02  0.13700236624E+02  0.45045682000E+02  0.00000000000E+00 0.  1.
         11    1    3    3    0    0 -0.30784317084E+01 -0.11257452094E+02 -0.49090398225E+01  0.12661186424E+02  0.51100000000E-03 0. -1.
        -11    1    3    3    0    0 -0.52641286648E+01 -0.13974419919E+02 -0.24916475833E+01  0.15139477224E+02  0.51100000000E-03 0.  1.
        -12    1    3    3    0    0  0.16182283600E+01 -0.17149731806E+02 -0.62995492182E+01  0.18341654352E+02  0.00000000000E+00 0.  1.
</event>
<event>
 7    1  0.3910495E-008  0.4614232E+02  0.7816164E-02  0.1320468E+00
        -11   -1    0    0    0    0  0.00000000000E+00  0.00000000000E+00  0.45593999997E+02  0.45594000000E+02  0.51100000000E-03 0.  1.
         11   -1    0    0    0    0 -0.00000000000E+00 -0.00000000000E+00 -0.45593999997E+02  0.45594000000E+02  0.51100000000E-03 0. -1.
    9900012    2    1    2    0    0  0.72008999884E+01  0.23865868680E+02 -0.37519073820E+02  0.46142317090E+02  0.99999938811E+01 0.  0.
        -12    1    1    2    0    0 -0.72008999884E+01 -0.23865868680E+02  0.37519073820E+02  0.45045682910E+02  0.00000000000E+00 0.  1.
         11    1    3    3    0    0  0.39218870375E+01  0.12516791781E+02 -0.16274855518E+02  0.20902683962E+02  0.51100000000E-03 0. -1.
        -11    1    3    3    0    0  0.22759499830E+01  0.12139425251E+02 -0.19270961111E+02  0.22889201300E+02  0.51100000000E-03 0.  1.
        -12    1    3    3    0    0  0.10030629679E+01 -0.79034835210E+00 -0.19732571912E+01  0.23504318280E+01  0.00000000000E+00 0.  1.
</event>
<event>
 7    1  0.3910495E-008  0.4614232E+02  0.7816164E-02  0.1320468E+00
        -11   -1    0    0    0    0  0.00000000000E+00  0.00000000000E+00  0.45593999997E+02  0.45594000000E+02  0.51100000000E-03 0.  1.
         11   -1    0    0    0    0 -0.00000000000E+00 -0.00000000000E+00 -0.45593999997E+02  0.45594000000E+02  0.51100000000E-03 0. -1.
    9900012    2    1    2    0    0  0.42829613532E+01  0.42539011587E+02 -0.14184578148E+02  0.46142317388E+02  0.99999966006E+01 0.  0.
        -12    1    1    2    0    0 -0.42829613532E+01 -0.42539011587E+02  0.14184578148E+02  0.45045682612E+02  0.00000000000E+00 0.  1.
         11    1    3    3    0    0  0.40748025436E+00  0.16382465675E+02 -0.39134835147E+01  0.16848340430E+02  0.51100000000E-03 0. -1.
        -11    1    3    3    0    0  0.55907860365E+01  0.16984817905E+02 -0.49551948001E+01  0.18555184816E+02  0.51100000000E-03 0.  1.
        -12    1    3    3    0    0 -0.17153049376E+01  0.91717280060E+01 -0.53158998334E+01  0.10738792143E+02  0.00000000000E+00 0.  1.
</event>
<event>
 7    1  0.3910495E-008  0.4614232E+02  0.7816164E-02  0.1320468E+00
        -11   -1    0    0    0    0  0.00000000000E+00  0.00000000000E+00  0.45593999997E+02  0.45594000000E+02  0.51100000000E-03 0.  1.
         11   -1    0    0    0    0 -0.00000000000E+00 -0.00000000000E+00 -0.45593999997E+02  0.45594000000E+02  0.51100000000E-03 0. -1.
    9900012    2    1    2    0    0  0.21453536053E+02 -0.10709299511E+02 -0.38133582853E+02  0.46142318227E+02  0.10000004246E+02 0.  0.
        -12    1    1    2    0    0 -0.21453536053E+02  0.10709299511E+02  0.38133582853E+02  0.45045681773E+02  0.00000000000E+00 0.  1.
         11    1    3    3    0    0  0.18123539221E+00 -0.21613537254E+01 -0.37873966283E+01  0.43644781675E+01  0.51100000000E-03 0. -1.
        -11    1    3    3    0    0  0.11891268159E+02 -0.27822942734E+01 -0.13514024040E+02  0.18214616819E+02  0.51100000000E-03 0.  1.
        -12    1    3    3    0    0  0.93810325017E+01 -0.57656515119E+01 -0.20832162185E+02  0.23563223240E+02  0.00000000000E+00 0.  1.
</event>
<event>
 7    1  0.3910495E-008  0.4614232E+02  0.7816164E-02  0.1320468E+00
        -11   -1    0    0    0    0  0.00000000000E+00  0.00000000000E+00  0.45593999997E+02  0.45594000000E+02  0.51100000000E-03 0.  1.
         11   -1    0    0    0    0 -0.00000000000E+00 -0.00000000000E+00 -0.45593999997E+02  0.45594000000E+02  0.51100000000E-03 0. -1.
    9900012    2    1    2    0    0 -0.25484379365E+02 -0.27803854283E+02 -0.24629363391E+02  0.46142318235E+02  0.10000004325E+02 0.  0.
        -12    1    1    2    0    0  0.25484379365E+02  0.27803854283E+02  0.24629363391E+02  0.45045681765E+02  0.00000000000E+00 0.  1.
         11    1    3    3    0    0 -0.15598708964E+01 -0.37784933942E+01 -0.12075913716E+01  0.42624507886E+01  0.51100000000E-03 0. -1.
        -11    1    3    3    0    0 -0.14219501730E+02 -0.94101832632E+01 -0.97855715226E+01  0.19659684351E+02  0.51100000000E-03 0.  1.
         12    1    3    3    0    0 -0.97050067381E+01 -0.14615177626E+02 -0.13636200497E+02  0.22220183096E+02  0.00000000000E+00 0. -1.
</event>
<event>
 7    1  0.3910495E-008  0.4614232E+02  0.7816164E-02  0.1320468E+00
        -11   -1    0    0    0    0  0.00000000000E+00  0.00000000000E+00  0.45593999997E+02  0.45594000000E+02  0.51100000000E-03 0.  1.
         11   -1    0    0    0    0 -0.00000000000E+00 -0.00000000000E+00 -0.45593999997E+02  0.45594000000E+02  0.51100000000E-03 0. -1.
    9900012    2    1    2    0    0  0.27637235602E+02 -0.56900398536E+01 -0.35112962653E+02  0.46142317726E+02  0.99999996785E+01 0.  0.
        -12    1    1    2    0    0 -0.27637235602E+02  0.56900398536E+01  0.35112962653E+02  0.45045682274E+02  0.00000000000E+00 0.  1.
         11    1    3    3    0    0  0.67443031219E+01 -0.12496690510E+01 -0.31426649579E+01  0.75447757181E+01  0.51100000000E-03 0. -1.
        -11    1    3    3    0    0  0.12072884278E+02 -0.32791798630E+01 -0.15927105471E+02  0.20252907058E+02  0.51100000000E-03 0.  1.
         12    1    3    3    0    0  0.88200482023E+01 -0.11611909397E+01 -0.16043192225E+02  0.18344634950E+02  0.00000000000E+00 0. -1.
</event>
<event>
 7    1  0.3910495E-008  0.4614232E+02  0.7816164E-02  0.1320468E+00
        -11   -1    0    0    0    0  0.00000000000E+00  0.00000000000E+00  0.45593999997E+02  0.45594000000E+02  0.51100000000E-03 0.  1.
         11   -1    0    0    0    0 -0.00000000000E+00 -0.00000000000E+00 -0.45593999997E+02  0.45594000000E+02  0.51100000000E-03 0. -1.
    9900012    2    1    2    0    0  0.11527371204E+02  0.41062001592E+02 -0.14496387779E+02  0.46142317407E+02  0.99999967702E+01 0.  0.
        -12    1    1    2    0    0 -0.11527371204E+02 -0.41062001592E+02  0.14496387779E+02  0.45045682593E+02  0.00000000000E+00 0.  1.
         11    1    3    3    0    0  0.15463656556E+01  0.13996538746E+01 -0.10716012668E+01  0.23449109249E+01  0.51100000000E-03 0.  1.
        -11    1    3    3    0    0  0.50734939481E+01  0.30834887170E+02 -0.12494506036E+02  0.33654766215E+02  0.51100000000E-03 0. -1.
         12    1    3    3    0    0  0.49075116002E+01  0.88274605479E+01 -0.93028047636E+00  0.10142640267E+02  0.00000000000E+00 0. -1.
</event>
<event>
 7    1  0.3910495E-008  0.4614232E+02  0.7816164E-02  0.1320468E+00
        -11   -1    0    0    0    0  0.00000000000E+00  0.00000000000E+00  0.45593999997E+02  0.45594000000E+02  0.51100000000E-03 0.  1.
         11   -1    0    0    0    0 -0.00000000000E+00 -0.00000000000E+00 -0.45593999997E+02  0.45594000000E+02  0.51100000000E-03 0. -1.
    9900012    2    1    2    0    0  0.29963554275E+02  0.27172098024E+02 -0.19823620336E+02  0.46142318530E+02  0.10000007011E+02 0.  0.
        -12    1    1    2    0    0 -0.29963554275E+02 -0.27172098024E+02  0.19823620336E+02  0.45045681470E+02  0.00000000000E+00 0.  1.
         11    1    3    3    0    0  0.17819378727E+02  0.20540773436E+02 -0.15235355827E+02  0.31170012817E+02  0.51100000000E-03 0. -1.
        -11    1    3    3    0    0  0.59567757779E+01  0.51824286937E+01 -0.26516997786E+01  0.83290009491E+01  0.51100000000E-03 0.  1.
         12    1    3    3    0    0  0.61873997705E+01  0.14488958953E+01 -0.19365647304E+01  0.66433047642E+01  0.00000000000E+00 0. -1.
</event>
<event>
 7    1  0.3910495E-008  0.4614232E+02  0.7816164E-02  0.1320468E+00
        -11   -1    0    0    0    0  0.00000000000E+00  0.00000000000E+00  0.45593999997E+02  0.45594000000E+02  0.51100000000E-03 0.  1.
         11   -1    0    0    0    0 -0.00000000000E+00 -0.00000000000E+00 -0.45593999997E+02  0.45594000000E+02  0.51100000000E-03 0. -1.
    9900012    2    1    2    0    0  0.15641861924E+01  0.29586200094E+02 -0.33931161024E+02  0.46142316490E+02  0.99999884105E+01 0.  0.
        -12    1    1    2    0    0 -0.15641861924E+01 -0.29586200094E+02  0.33931161024E+02  0.45045683510E+02  0.00000000000E+00 0.  1.
         11    1    3    3    0    0 -0.19770384744E+01  0.65651450747E+01 -0.98528936612E+01  0.12003721287E+02  0.51100000000E-03 0. -1.
        -11    1    3    3    0    0  0.13996736772E+01  0.10659979867E+01 -0.45504332036E+00  0.18172789535E+01  0.51100000000E-03 0.  1.
         12    1    3    3    0    0  0.21415509896E+01  0.21955057033E+02 -0.23623224042E+02  0.32321316249E+02  0.00000000000E+00 0. -1.
</event>
<event>
 7    1  0.3910495E-008  0.4614232E+02  0.7816164E-02  0.1320468E+00
        -11   -1    0    0    0    0  0.00000000000E+00  0.00000000000E+00  0.45593999997E+02  0.45594000000E+02  0.51100000000E-03 0.  1.
         11   -1    0    0    0    0 -0.00000000000E+00 -0.00000000000E+00 -0.45593999997E+02  0.45594000000E+02  0.51100000000E-03 0. -1.
    9900012    2    1    2    0    0  0.32151189053E+02  0.17926204342E+02 -0.25962774199E+02  0.46142318700E+02  0.10000008561E+02 0.  0.
        -12    1    1    2    0    0 -0.32151189053E+02 -0.17926204342E+02  0.25962774199E+02  0.45045681300E+02  0.00000000000E+00 0.  1.
         11    1    3    3    0    0  0.19330970609E+02  0.11222357699E+02 -0.17934941276E+02  0.28658155137E+02  0.51100000000E-03 0. -1.
        -11    1    3    3    0    0  0.12587873625E+02  0.66535424321E+01 -0.60136628627E+01  0.15456012764E+02  0.51100000000E-03 0.  1.
         12    1    3    3    0    0  0.23234481961E+00  0.50304211021E-01 -0.20141700607E+01  0.20281507987E+01  0.00000000000E+00 0. -1.
</event>
<event>
 7    1  0.3910495E-008  0.4614232E+02  0.7816164E-02  0.1320468E+00
        -11   -1    0    0    0    0  0.00000000000E+00  0.00000000000E+00  0.45593999997E+02  0.45594000000E+02  0.51100000000E-03 0.  1.
         11   -1    0    0    0    0 -0.00000000000E+00 -0.00000000000E+00 -0.45593999997E+02  0.45594000000E+02  0.51100000000E-03 0. -1.
    9900012    2    1    2    0    0 -0.18240215925E+02 -0.18600649718E+02 -0.36748113414E+02  0.46142317783E+02  0.10000000197E+02 0.  0.
        -12    1    1    2    0    0  0.18240215925E+02  0.18600649718E+02  0.36748113414E+02  0.45045682217E+02  0.00000000000E+00 0.  1.
         11    1    3    3    0    0 -0.11532617699E+02 -0.13026046781E+02 -0.25081816980E+02  0.30525017756E+02  0.51100000000E-03 0. -1.
        -11    1    3    3    0    0  0.70319198394E-01 -0.25938999909E+01 -0.13677374830E+01  0.29332521262E+01  0.51100000000E-03 0.  1.
         12    1    3    3    0    0 -0.67779174245E+01 -0.29807029455E+01 -0.10298558952E+02  0.12684047900E+02  0.00000000000E+00 0. -1.
</event>
<event>
 7    1  0.3910495E-008  0.4614232E+02  0.7816164E-02  0.1320468E+00
        -11   -1    0    0    0    0  0.00000000000E+00  0.00000000000E+00  0.45593999997E+02  0.45594000000E+02  0.51100000000E-03 0.  1.
         11   -1    0    0    0    0 -0.00000000000E+00 -0.00000000000E+00 -0.45593999997E+02  0.45594000000E+02  0.51100000000E-03 0. -1.
    9900012    2    1    2    0    0  0.17745904163E+01  0.14469280443E+02 -0.42621641053E+02  0.46142317258E+02  0.99999954122E+01 0.  0.
        -12    1    1    2    0    0 -0.17745904163E+01 -0.14469280443E+02  0.42621641053E+02  0.45045682742E+02  0.00000000000E+00 0.  1.
         11    1    3    3    0    0 -0.67786547789E+00  0.55506432597E+01 -0.12431076261E+02  0.13630876695E+02  0.51100000000E-03 0. -1.
        -11    1    3    3    0    0  0.30808628898E+01  0.86703477163E+01 -0.17227961105E+02  0.19531238818E+02  0.51100000000E-03 0.  1.
        -12    1    3    3    0    0 -0.62840699559E+00  0.24828946695E+00 -0.12962603686E+02  0.12980201745E+02  0.00000000000E+00 0.  1.
</event>
<event>
 7    1  0.3910495E-008  0.4614232E+02  0.7816164E-02  0.1320468E+00
        -11   -1    0    0    0    0  0.00000000000E+00  0.00000000000E+00  0.45593999997E+02  0.45594000000E+02  0.51100000000E-03 0. -1.
         11   -1    0    0    0    0 -0.00000000000E+00 -0.00000000000E+00 -0.45593999997E+02  0.45594000000E+02  0.51100000000E-03 0.  1.
    9900012    2    1    2    0    0  0.31755011888E+02  0.52286580187E+01 -0.31518149443E+02  0.46142318864E+02  0.10000010053E+02 0.  0.
        -12    1    1    2    0    0 -0.31755011888E+02 -0.52286580187E+01  0.31518149443E+02  0.45045681136E+02  0.00000000000E+00 0.  1.
         11    1    3    3    0    0  0.11493376609E+02  0.42400724236E+01 -0.77974479843E+01  0.14521574136E+02  0.51100000000E-03 0. -1.
        -11    1    3    3    0    0 -0.24380877158E-01 -0.31353645136E+00 -0.13827533792E+01  0.14180644211E+01  0.51100000000E-03 0.  1.
         12    1    3    3    0    0  0.20286016156E+02  0.13021220464E+01 -0.22337948080E+02  0.30202680307E+02  0.00000000000E+00 0. -1.
</event>
<event>
 7    1  0.3910495E-008  0.4614232E+02  0.7816164E-02  0.1320468E+00
        -11   -1    0    0    0    0  0.00000000000E+00  0.00000000000E+00  0.45593999997E+02  0.45594000000E+02  0.51100000000E-03 0.  1.
         11   -1    0    0    0    0 -0.00000000000E+00 -0.00000000000E+00 -0.45593999997E+02  0.45594000000E+02  0.51100000000E-03 0. -1.
    9900012    2    1    2    0    0 -0.15448793436E+02  0.80221952013E+01 -0.41546272167E+02  0.46142316906E+02  0.99999921983E+01 0.  0.
        -12    1    1    2    0    0  0.15448793436E+02 -0.80221952013E+01  0.41546272167E+02  0.45045683094E+02  0.00000000000E+00 0.  1.
         11    1    3    3    0    0 -0.80795251688E+00  0.11113206575E+01 -0.40673298157E+01  0.42931332339E+01  0.51100000000E-03 0. -1.
        -11    1    3    3    0    0 -0.82577086282E+01  0.55005074722E+00 -0.25818435384E+02  0.27112430978E+02  0.51100000000E-03 0.  1.
         12    1    3    3    0    0 -0.63831322909E+01  0.63608237965E+01 -0.11660506968E+02  0.14736752694E+02  0.00000000000E+00 0. -1.
</event>
<event>
 7    1  0.3910495E-008  0.4614232E+02  0.7816164E-02  0.1320468E+00
        -11   -1    0    0    0    0  0.00000000000E+00  0.00000000000E+00  0.45593999997E+02  0.45594000000E+02  0.51100000000E-03 0. -1.
         11   -1    0    0    0    0 -0.00000000000E+00 -0.00000000000E+00 -0.45593999997E+02  0.45594000000E+02  0.51100000000E-03 0.  1.
    9900012    2    1    2    0    0  0.36987212452E+02  0.45976776939E+01  0.25296656569E+02  0.46142319200E+02  0.10000013125E+02 0.  0.
        -12    1    1    2    0    0 -0.36987212452E+02 -0.45976776939E+01 -0.25296656569E+02  0.45045680800E+02  0.00000000000E+00 0.  1.
         11    1    3    3    0    0  0.29847570584E+02  0.33636769471E+01  0.24287863843E+02  0.38627608296E+02  0.51100000000E-03 0. -1.
        -11    1    3    3    0    0  0.12749577306E+00  0.35770438873E+00  0.37767883689E-01  0.38162059172E+00  0.51100000000E-03 0.  1.
         12    1    3    3    0    0  0.70121460948E+01  0.87629635803E+00  0.97102484228E+00  0.71330903125E+01  0.00000000000E+00 0. -1.
</event>
<event>
 7    1  0.3910495E-008  0.4614232E+02  0.7816164E-02  0.1320468E+00
        -11   -1    0    0    0    0  0.00000000000E+00  0.00000000000E+00  0.45593999997E+02  0.45594000000E+02  0.51100000000E-03 0.  1.
         11   -1    0    0    0    0 -0.00000000000E+00 -0.00000000000E+00 -0.45593999997E+02  0.45594000000E+02  0.51100000000E-03 0. -1.
    9900012    2    1    2    0    0  0.19646557239E+00 -0.28543982337E+02 -0.34847036963E+02  0.46142317505E+02  0.99999976651E+01 0.  0.
        -12    1    1    2    0    0 -0.19646557239E+00  0.28543982337E+02  0.34847036963E+02  0.45045682495E+02  0.00000000000E+00 0.  1.
         11    1    3    3    0    0  0.65282989000E+00 -0.10543716611E+01 -0.70373056051E-01  0.12421107411E+01  0.51100000000E-03 0. -1.
        -11    1    3    3    0    0  0.21273150224E+01 -0.87515479101E+01 -0.75754725558E+01  0.11768723156E+02  0.51100000000E-03 0.  1.
         12    1    3    3    0    0 -0.25836793400E+01 -0.18738062765E+02 -0.27201191351E+02  0.33131483608E+02  0.00000000000E+00 0. -1.
</event>
<event>
 7    1  0.3910495E-008  0.4614232E+02  0.7816164E-02  0.1320468E+00
        -11   -1    0    0    0    0  0.00000000000E+00  0.00000000000E+00  0.45593999997E+02  0.45594000000E+02  0.51100000000E-03 0. -1.
         11   -1    0    0    0    0 -0.00000000000E+00 -0.00000000000E+00 -0.45593999997E+02  0.45594000000E+02  0.51100000000E-03 0.  1.
    9900012    2    1    2    0    0  0.12993954150E+02  0.28661129164E+02  0.32230580642E+02  0.46142317655E+02  0.99999990317E+01 0.  0.
        -12    1    1    2    0    0 -0.12993954150E+02 -0.28661129164E+02 -0.32230580642E+02  0.45045682345E+02  0.00000000000E+00 0.  1.
         11    1    3    3    0    0  0.14495880602E+01  0.92466243979E+01  0.10539355529E+02  0.14095367449E+02  0.51100000000E-03 0. -1.
        -11    1    3    3    0    0  0.33120284566E+01  0.42549294901E+01  0.94990237689E+01  0.10922701602E+02  0.51100000000E-03 0.  1.
        -12    1    3    3    0    0  0.82323376331E+01  0.15159575276E+02  0.12192201344E+02  0.21124248604E+02  0.00000000000E+00 0.  1.
</event>
<event>
 7    1  0.3910495E-008  0.4614232E+02  0.7816164E-02  0.1320468E+00
        -11   -1    0    0    0    0  0.00000000000E+00  0.00000000000E+00  0.45593999997E+02  0.45594000000E+02  0.51100000000E-03 0.  1.
         11   -1    0    0    0    0 -0.00000000000E+00 -0.00000000000E+00 -0.45593999997E+02  0.45594000000E+02  0.51100000000E-03 0. -1.
    9900012    2    1    2    0    0  0.10548766646E+02  0.17460380246E+02 -0.40161824516E+02  0.46142317582E+02  0.99999983640E+01 0.  0.
        -12    1    1    2    0    0 -0.10548766646E+02 -0.17460380246E+02  0.40161824516E+02  0.45045682418E+02  0.00000000000E+00 0.  1.
         11    1    3    3    0    0  0.66496946570E+01  0.71145218631E+01 -0.10849206153E+02  0.14578756284E+02  0.51100000000E-03 0.  1.
        -11    1    3    3    0    0  0.38082859304E+01  0.69765927212E+01 -0.16493935583E+02  0.18309172537E+02  0.51100000000E-03 0. -1.
        -12    1    3    3    0    0  0.90786058886E-01  0.33692656618E+01 -0.12818682780E+02  0.13254388761E+02  0.00000000000E+00 0.  1.
</event>
<event>
 7    1  0.3910495E-008  0.4614232E+02  0.7816164E-02  0.1320468E+00
        -11   -1    0    0    0    0  0.00000000000E+00  0.00000000000E+00  0.45593999997E+02  0.45594000000E+02  0.51100000000E-03 0.  1.
         11   -1    0    0    0    0 -0.00000000000E+00 -0.00000000000E+00 -0.45593999997E+02  0.45594000000E+02  0.51100000000E-03 0. -1.
    9900012    2    1    2    0    0 -0.83373236138E+01  0.43744857065E+02 -0.67815920189E+01  0.46142317910E+02  0.10000001354E+02 0.  0.
        -12    1    1    2    0    0  0.83373236138E+01 -0.43744857065E+02  0.67815920189E+01  0.45045682090E+02  0.00000000000E+00 0.  1.
         11    1    3    3    0    0 -0.67130195004E+01  0.22378432617E+02 -0.66329759405E+01  0.24286935733E+02  0.51100000000E-03 0. -1.
        -11    1    3    3    0    0 -0.11046628523E+00  0.12299939709E+02 -0.20464462240E+01  0.12469509294E+02  0.51100000000E-03 0.  1.
         12    1    3    3    0    0 -0.15138378282E+01  0.90664847392E+01  0.18978301455E+01  0.93858728820E+01  0.00000000000E+00 0. -1.
</event>
<event>
 7    1  0.3910495E-008  0.4614232E+02  0.7816164E-02  0.1320468E+00
        -11   -1    0    0    0    0  0.00000000000E+00  0.00000000000E+00  0.45593999997E+02  0.45594000000E+02  0.51100000000E-03 0.  1.
         11   -1    0    0    0    0 -0.00000000000E+00 -0.00000000000E+00 -0.45593999997E+02  0.45594000000E+02  0.51100000000E-03 0. -1.
    9900012    2    1    2    0    0 -0.26901721372E+02  0.55320802018E+01 -0.35704439404E+02  0.46142317440E+02  0.99999970728E+01 0.  0.
        -12    1    1    2    0    0  0.26901721372E+02 -0.55320802018E+01  0.35704439404E+02  0.45045682560E+02  0.00000000000E+00 0.  1.
         11    1    3    3    0    0 -0.57243605548E+01  0.29833609285E+01 -0.72397946893E+01  0.96996584267E+01  0.51100000000E-03 0. -1.
        -11    1    3    3    0    0 -0.20873868490E+01 -0.19995269868E+01 -0.20847882321E+01  0.35639352214E+01  0.51100000000E-03 0.  1.
        -12    1    3    3    0    0 -0.19089973968E+02  0.45482462601E+01 -0.26379856483E+02  0.32878723792E+02  0.00000000000E+00 0.  1.
</event>
<event>
 7    1  0.3910495E-008  0.4614232E+02  0.7816164E-02  0.1320468E+00
        -11   -1    0    0    0    0  0.00000000000E+00  0.00000000000E+00  0.45593999997E+02  0.45594000000E+02  0.51100000000E-03 0.  1.
         11   -1    0    0    0    0 -0.00000000000E+00 -0.00000000000E+00 -0.45593999997E+02  0.45594000000E+02  0.51100000000E-03 0. -1.
    9900012    2    1    2    0    0 -0.20039935692E+00 -0.36289502466E+02 -0.26686051574E+02  0.46142317657E+02  0.99999990521E+01 0.  0.
        -12    1    1    2    0    0  0.20039935692E+00  0.36289502466E+02  0.26686051574E+02  0.45045682343E+02  0.00000000000E+00 0.  1.
         11    1    3    3    0    0 -0.57821581900E+00 -0.84271498534E+01 -0.10367232350E+02  0.13372759440E+02  0.51100000000E-03 0.  1.
        -11    1    3    3    0    0  0.21481447841E+01 -0.62163038671E+01 -0.51135748943E+01  0.83310028353E+01  0.51100000000E-03 0. -1.
         12    1    3    3    0    0 -0.17703283220E+01 -0.21646048745E+02 -0.11205244330E+02  0.24438555381E+02  0.00000000000E+00 0. -1.
</event>
<event>
 7    1  0.3910495E-008  0.4614232E+02  0.7816164E-02  0.1320468E+00
        -11   -1    0    0    0    0  0.00000000000E+00  0.00000000000E+00  0.45593999997E+02  0.45594000000E+02  0.51100000000E-03 0.  1.
         11   -1    0    0    0    0 -0.00000000000E+00 -0.00000000000E+00 -0.45593999997E+02  0.45594000000E+02  0.51100000000E-03 0. -1.
    9900012    2    1    2    0    0  0.10798131241E+02 -0.32266426191E+01 -0.43613101523E+02  0.46142317794E+02  0.10000000303E+02 0.  0.
        -12    1    1    2    0    0 -0.10798131241E+02  0.32266426191E+01  0.43613101523E+02  0.45045682206E+02  0.00000000000E+00 0.  1.
         11    1    3    3    0    0  0.11092401521E+01 -0.44462035425E+00 -0.72818045882E+01  0.73792126475E+01  0.51100000000E-03 0. -1.
        -11    1    3    3    0    0  0.91345213865E+01 -0.30432662496E+01 -0.17929582296E+02  0.20351188466E+02  0.51100000000E-03 0.  1.
        -12    1    3    3    0    0  0.55436970202E+00  0.26124398469E+00 -0.18401714639E+02  0.18411916680E+02  0.00000000000E+00 0.  1.
</event>
<event>
 7    1  0.3910495E-008  0.4614232E+02  0.7816164E-02  0.1320468E+00
        -11   -1    0    0    0    0  0.00000000000E+00  0.00000000000E+00  0.45593999997E+02  0.45594000000E+02  0.51100000000E-03 0.  1.
         11   -1    0    0    0    0 -0.00000000000E+00 -0.00000000000E+00 -0.45593999997E+02  0.45594000000E+02  0.51100000000E-03 0. -1.
    9900012    2    1    2    0    0  0.26867361215E+02  0.20735544049E+02 -0.29619177728E+02  0.46142316800E+02  0.99999912336E+01 0.  0.
        -12    1    1    2    0    0 -0.26867361215E+02 -0.20735544049E+02  0.29619177728E+02  0.45045683200E+02  0.00000000000E+00 0.  1.
         11    1    3    3    0    0  0.18605359378E+02  0.15058562694E+02 -0.23282468330E+02  0.33391511493E+02  0.51100000000E-03 0. -1.
        -11    1    3    3    0    0  0.32742012471E+01 -0.59681094535E-01 -0.30280700495E+01  0.44601753469E+01  0.51100000000E-03 0.  1.
        -12    1    3    3    0    0  0.49878005901E+01  0.57366624498E+01 -0.33086393484E+01  0.82906299596E+01  0.00000000000E+00 0.  1.
</event>
<event>
 7    1  0.3910495E-008  0.4614231E+02  0.7816164E-02  0.1320468E+00
        -11   -1    0    0    0    0  0.00000000000E+00  0.00000000000E+00  0.45593999997E+02  0.45594000000E+02  0.51100000000E-03 0.  1.
         11   -1    0    0    0    0 -0.00000000000E+00 -0.00000000000E+00 -0.45593999997E+02  0.45594000000E+02  0.51100000000E-03 0. -1.
    9900012    2    1    2    0    0 -0.58833977695E+01 -0.29918526198E+02 -0.33156919771E+02  0.46142313105E+02  0.99999575392E+01 0.  0.
        -12    1    1    2    0    0  0.58833977695E+01  0.29918526198E+02  0.33156919771E+02  0.45045686895E+02  0.00000000000E+00 0.  1.
         11    1    3    3    0    0 -0.47402856872E+01 -0.27887275611E+02 -0.29541772555E+02  0.40900938563E+02  0.51100000000E-03 0. -1.
        -11    1    3    3    0    0  0.85426191707E+00 -0.41431633431E+00 -0.20492983782E+00  0.97129704385E+00  0.51100000000E-03 0.  1.
         12    1    3    3    0    0 -0.19973739994E+01 -0.16169342529E+01 -0.34102173775E+01  0.42700774974E+01  0.00000000000E+00 0. -1.
</event>
<event>
 7    1  0.3910495E-008  0.4614232E+02  0.7816164E-02  0.1320468E+00
        -11   -1    0    0    0    0  0.00000000000E+00  0.00000000000E+00  0.45593999997E+02  0.45594000000E+02  0.51100000000E-03 0.  1.
         11   -1    0    0    0    0 -0.00000000000E+00 -0.00000000000E+00 -0.45593999997E+02  0.45594000000E+02  0.51100000000E-03 0. -1.
    9900012    2    1    2    0    0  0.33583855949E+02  0.24736339232E+02 -0.17010337983E+02  0.46142318106E+02  0.10000003148E+02 0.  0.
        -12    1    1    2    0    0 -0.33583855949E+02 -0.24736339232E+02  0.17010337983E+02  0.45045681894E+02  0.00000000000E+00 0.  1.
         11    1    3    3    0    0  0.18399051067E+02  0.10809309405E+02 -0.71039049955E+01  0.22490702889E+02  0.51100000000E-03 0. -1.
        -11    1    3    3    0    0  0.14032412949E+02  0.13009497697E+02 -0.69675748342E+01  0.20364251590E+02  0.51100000000E-03 0.  1.
        -12    1    3    3    0    0  0.11523919326E+01  0.91753213046E+00 -0.29388581530E+01  0.32873636277E+01  0.00000000000E+00 0.  1.
</event>
<event>
 7    1  0.3910495E-008  0.4614232E+02  0.7816164E-02  0.1320468E+00
        -11   -1    0    0    0    0  0.00000000000E+00  0.00000000000E+00  0.45593999997E+02  0.45594000000E+02  0.51100000000E-03 0.  1.
         11   -1    0    0    0    0 -0.00000000000E+00 -0.00000000000E+00 -0.45593999997E+02  0.45594000000E+02  0.51100000000E-03 0. -1.
    9900012    2    1    2    0    0  0.11552570744E+02 -0.38741283554E+02 -0.19868681332E+02  0.46142318297E+02  0.10000004890E+02 0.  0.
        -12    1    1    2    0    0 -0.11552570744E+02  0.38741283554E+02  0.19868681332E+02  0.45045681703E+02  0.00000000000E+00 0.  1.
         11    1    3    3    0    0  0.65457138264E+01 -0.26492017324E+02 -0.98962124463E+01  0.29027717314E+02  0.51100000000E-03 0. -1.
        -11    1    3    3    0    0  0.42700995671E+01 -0.12406513945E+02 -0.96856404905E+01  0.16308493816E+02  0.51100000000E-03 0.  1.
        -12    1    3    3    0    0  0.73675735010E+00  0.15724771560E+00 -0.28682839524E+00  0.80610716738E+00  0.00000000000E+00 0.  1.
</event>
<event>
 7    1  0.3910495E-008  0.4614232E+02  0.7816164E-02  0.1320468E+00
        -11   -1    0    0    0    0  0.00000000000E+00  0.00000000000E+00  0.45593999997E+02  0.45594000000E+02  0.51100000000E-03 0.  1.
         11   -1    0    0    0    0 -0.00000000000E+00 -0.00000000000E+00 -0.45593999997E+02  0.45594000000E+02  0.51100000000E-03 0. -1.
    9900012    2    1    2    0    0  0.30493232605E+02 -0.23597691823E+02 -0.23290023281E+02  0.46142317871E+02  0.10000000998E+02 0.  0.
        -12    1    1    2    0    0 -0.30493232605E+02  0.23597691823E+02  0.23290023281E+02  0.45045682129E+02  0.00000000000E+00 0.  1.
         11    1    3    3    0    0  0.49211031241E+00 -0.13162533134E+01  0.35070156919E+00  0.14483394617E+01  0.51100000000E-03 0. -1.
        -11    1    3    3    0    0  0.20080671446E+02 -0.11157868955E+02 -0.15481750408E+02  0.27702274298E+02  0.51100000000E-03 0.  1.
         12    1    3    3    0    0  0.99204508467E+01 -0.11123569554E+02 -0.81589744420E+01  0.16991704110E+02  0.00000000000E+00 0. -1.
</event>
<event>
 7    1  0.3910495E-008  0.4614232E+02  0.7816164E-02  0.1320468E+00
        -11   -1    0    0    0    0  0.00000000000E+00  0.00000000000E+00  0.45593999997E+02  0.45594000000E+02  0.51100000000E-03 0. -1.
         11   -1    0    0    0    0 -0.00000000000E+00 -0.00000000000E+00 -0.45593999997E+02  0.45594000000E+02  0.51100000000E-03 0.  1.
    9900012    2    1    2    0    0  0.27878403651E+02 -0.11857718988E+02  0.33336205672E+02  0.46142317650E+02  0.99999989897E+01 0.  0.
        -12    1    1    2    0    0 -0.27878403651E+02  0.11857718988E+02 -0.33336205672E+02  0.45045682350E+02  0.00000000000E+00 0.  1.
         11    1    3    3    0    0  0.48047344241E+01 -0.24965181676E+01  0.24278148044E+01  0.59340004072E+01  0.51100000000E-03 0.  1.
        -11    1    3    3    0    0  0.89553202378E+01 -0.63035855250E+01  0.10246942900E+02  0.14997759503E+02  0.51100000000E-03 0. -1.
        -12    1    3    3    0    0  0.14118348989E+02 -0.30576152949E+01  0.20661447967E+02  0.25210557741E+02  0.00000000000E+00 0.  1.
</event>
<event>
 7    1  0.3910495E-008  0.4614232E+02  0.7816164E-02  0.1320468E+00
        -11   -1    0    0    0    0  0.00000000000E+00  0.00000000000E+00  0.45593999997E+02  0.45594000000E+02  0.51100000000E-03 0. -1.
         11   -1    0    0    0    0 -0.00000000000E+00 -0.00000000000E+00 -0.45593999997E+02  0.45594000000E+02  0.51100000000E-03 0.  1.
    9900012    2    1    2    0    0  0.85976053790E+01  0.39951952351E+02 -0.18948251548E+02  0.46142317059E+02  0.99999935935E+01 0.  0.
        -12    1    1    2    0    0 -0.85976053790E+01 -0.39951952351E+02  0.18948251548E+02  0.45045682941E+02  0.00000000000E+00 0.  1.
         11    1    3    3    0    0  0.25461056530E+01  0.17038195609E+02 -0.66552469976E+01  0.18468218010E+02  0.51100000000E-03 0. -1.
        -11    1    3    3    0    0  0.62290573868E+01  0.17559222727E+02 -0.12284292349E+02  0.22316614831E+02  0.51100000000E-03 0.  1.
        -12    1    3    3    0    0 -0.17755766076E+00  0.53545340151E+01 -0.87122009067E-02  0.53574842178E+01  0.00000000000E+00 0.  1.
</event>
<event>
 7    1  0.3910495E-008  0.4614232E+02  0.7816164E-02  0.1320468E+00
        -11   -1    0    0    0    0  0.00000000000E+00  0.00000000000E+00  0.45593999997E+02  0.45594000000E+02  0.51100000000E-03 0.  1.
         11   -1    0    0    0    0 -0.00000000000E+00 -0.00000000000E+00 -0.45593999997E+02  0.45594000000E+02  0.51100000000E-03 0. -1.
    9900012    2    1    2    0    0  0.32194422874E+02  0.14646779603E+02 -0.27894525152E+02  0.46142317073E+02  0.99999937218E+01 0.  0.
        -12    1    1    2    0    0 -0.32194422874E+02 -0.14646779603E+02  0.27894525152E+02  0.45045682927E+02  0.00000000000E+00 0.  1.
         11    1    3    3    0    0  0.77575636822E+01  0.11063888282E+01 -0.65563152455E+01  0.10217101369E+02  0.51100000000E-03 0. -1.
        -11    1    3    3    0    0  0.48824716508E+01  0.17009546671E+01 -0.87303888156E+00  0.52434695908E+01  0.51100000000E-03 0.  1.
        -12    1    3    3    0    0  0.19554387541E+02  0.11839436107E+02 -0.20465171025E+02  0.30681746113E+02  0.00000000000E+00 0.  1.
</event>
<event>
 7    1  0.3910495E-008  0.4614232E+02  0.7816164E-02  0.1320468E+00
        -11   -1    0    0    0    0  0.00000000000E+00  0.00000000000E+00  0.45593999997E+02  0.45594000000E+02  0.51100000000E-03 0. -1.
         11   -1    0    0    0    0 -0.00000000000E+00 -0.00000000000E+00 -0.45593999997E+02  0.45594000000E+02  0.51100000000E-03 0.  1.
    9900012    2    1    2    0    0  0.30937646630E+02  0.31285470569E+02 -0.96537447626E+01  0.46142318346E+02  0.10000005331E+02 0.  0.
        -12    1    1    2    0    0 -0.30937646630E+02 -0.31285470569E+02  0.96537447626E+01  0.45045681654E+02  0.00000000000E+00 0.  1.
         11    1    3    3    0    0  0.53723151738E+00  0.12944849837E+00  0.85988229183E+00  0.10221411027E+01  0.51100000000E-03 0. -1.
        -11    1    3    3    0    0  0.60511101626E+01  0.94259737028E+01 -0.35466288861E+01  0.11749191085E+02  0.51100000000E-03 0.  1.
         12    1    3    3    0    0  0.24349304950E+02  0.21730048368E+02 -0.69669981683E+01  0.33370986157E+02  0.00000000000E+00 0. -1.
</event>
<event>
 7    1  0.3910495E-008  0.4614232E+02  0.7816164E-02  0.1320468E+00
        -11   -1    0    0    0    0  0.00000000000E+00  0.00000000000E+00  0.45593999997E+02  0.45594000000E+02  0.51100000000E-03 0. -1.
         11   -1    0    0    0    0 -0.00000000000E+00 -0.00000000000E+00 -0.45593999997E+02  0.45594000000E+02  0.51100000000E-03 0.  1.
    9900012    2    1    2    0    0 -0.26274878402E+02 -0.11604782756E+02  0.34699756899E+02  0.46142319333E+02  0.10000014335E+02 0.  0.
        -12    1    1    2    0    0  0.26274878402E+02  0.11604782756E+02 -0.34699756899E+02  0.45045680667E+02  0.00000000000E+00 0.  1.
         11    1    3    3    0    0 -0.15662045676E+02 -0.38292441407E+01  0.19865851240E+02  0.25585441783E+02  0.51100000000E-03 0. -1.
        -11    1    3    3    0    0 -0.32509925242E+01 -0.40910754387E+01  0.92026830114E+01  0.10582779668E+02  0.51100000000E-03 0.  1.
        -12    1    3    3    0    0 -0.73618402021E+01 -0.36844631765E+01  0.56312226475E+01  0.99740978823E+01  0.00000000000E+00 0.  1.
</event>
<event>
 7    1  0.3910495E-008  0.4614232E+02  0.7816164E-02  0.1320468E+00
        -11   -1    0    0    0    0  0.00000000000E+00  0.00000000000E+00  0.45593999997E+02  0.45594000000E+02  0.51100000000E-03 0.  1.
         11   -1    0    0    0    0 -0.00000000000E+00 -0.00000000000E+00 -0.45593999997E+02  0.45594000000E+02  0.51100000000E-03 0. -1.
    9900012    2    1    2    0    0  0.31038062064E+02  0.20195111728E+02 -0.25649752244E+02  0.46142316249E+02  0.99999862117E+01 0.  0.
        -12    1    1    2    0    0 -0.31038062064E+02 -0.20195111728E+02  0.25649752244E+02  0.45045683751E+02  0.00000000000E+00 0.  1.
         11    1    3    3    0    0  0.17805870244E+02  0.10962188088E+02 -0.11932214594E+02  0.24074806919E+02  0.51100000000E-03 0. -1.
        -11    1    3    3    0    0  0.10040997718E+02  0.98146841532E+01 -0.11242613437E+02  0.17987384951E+02  0.51100000000E-03 0.  1.
        -12    1    3    3    0    0  0.31911941022E+01 -0.58176051277E+00 -0.24749242129E+01  0.40801243794E+01  0.00000000000E+00 0.  1.
</event>
<event>
 7    1  0.3910495E-008  0.4614232E+02  0.7816164E-02  0.1320468E+00
        -11   -1    0    0    0    0  0.00000000000E+00  0.00000000000E+00  0.45593999997E+02  0.45594000000E+02  0.51100000000E-03 0. -1.
         11   -1    0    0    0    0 -0.00000000000E+00 -0.00000000000E+00 -0.45593999997E+02  0.45594000000E+02  0.51100000000E-03 0.  1.
    9900012    2    1    2    0    0  0.19656574937E+01 -0.43177590507E+02  0.12686425894E+02  0.46142317262E+02  0.99999954458E+01 0.  0.
        -12    1    1    2    0    0 -0.19656574937E+01  0.43177590507E+02 -0.12686425894E+02  0.45045682738E+02  0.00000000000E+00 0.  1.
         11    1    3    3    0    0  0.14625048813E+01 -0.10267048656E+02  0.58758749516E+01  0.11919610536E+02  0.51100000000E-03 0. -1.
        -11    1    3    3    0    0  0.17567847921E+00 -0.17100782893E+02  0.68149916830E+01  0.18409555953E+02  0.51100000000E-03 0.  1.
        -12    1    3    3    0    0  0.32747413316E+00 -0.15809758959E+02 -0.44407406883E-02  0.15813150773E+02  0.00000000000E+00 0.  1.
</event>
<event>
 7    1  0.3910495E-008  0.4614232E+02  0.7816164E-02  0.1320468E+00
        -11   -1    0    0    0    0  0.00000000000E+00  0.00000000000E+00  0.45593999997E+02  0.45594000000E+02  0.51100000000E-03 0.  1.
         11   -1    0    0    0    0 -0.00000000000E+00 -0.00000000000E+00 -0.45593999997E+02  0.45594000000E+02  0.51100000000E-03 0. -1.
    9900012    2    1    2    0    0 -0.99688456398E+00 -0.46880241119E+01 -0.44789978313E+02  0.46142317563E+02  0.99999981921E+01 0.  0.
        -12    1    1    2    0    0  0.99688456398E+00  0.46880241119E+01  0.44789978313E+02  0.45045682437E+02  0.00000000000E+00 0.  1.
         11    1    3    3    0    0  0.14274829123E+01  0.80818781471E+00 -0.11474007093E+02  0.11590673580E+02  0.51100000000E-03 0. -1.
        -11    1    3    3    0    0 -0.60146712371E+00  0.16259197652E+01 -0.48081081195E+01  0.51110939860E+01  0.51100000000E-03 0.  1.
        -12    1    3    3    0    0 -0.18229003526E+01 -0.71221316917E+01 -0.28507863101E+02  0.29440549997E+02  0.00000000000E+00 0.  1.
</event>
<event>
 7    1  0.3910495E-008  0.4614232E+02  0.7816164E-02  0.1320468E+00
        -11   -1    0    0    0    0  0.00000000000E+00  0.00000000000E+00  0.45593999997E+02  0.45594000000E+02  0.51100000000E-03 0.  1.
         11   -1    0    0    0    0 -0.00000000000E+00 -0.00000000000E+00 -0.45593999997E+02  0.45594000000E+02  0.51100000000E-03 0. -1.
    9900012    2    1    2    0    0  0.21476954907E+02 -0.41984743706E+01 -0.39372915385E+02  0.46142320462E+02  0.10000024630E+02 0.  0.
        -12    1    1    2    0    0 -0.21476954907E+02  0.41984743706E+01  0.39372915385E+02  0.45045679538E+02  0.00000000000E+00 0.  1.
         11    1    3    3    0    0  0.15313902286E+02 -0.36055781475E+01 -0.28973880701E+02  0.32969706704E+02  0.51100000000E-03 0. -1.
        -11    1    3    3    0    0  0.31718080697E+01  0.13924566685E+01 -0.83473670854E+01  0.90375792956E+01  0.51100000000E-03 0.  1.
        -12    1    3    3    0    0  0.29912445520E+01 -0.19853528916E+01 -0.20516675984E+01  0.41350344628E+01  0.00000000000E+00 0.  1.
</event>
<event>
 7    1  0.3910495E-008  0.4614232E+02  0.7816164E-02  0.1320468E+00
        -11   -1    0    0    0    0  0.00000000000E+00  0.00000000000E+00  0.45593999997E+02  0.45594000000E+02  0.51100000000E-03 0.  1.
         11   -1    0    0    0    0 -0.00000000000E+00 -0.00000000000E+00 -0.45593999997E+02  0.45594000000E+02  0.51100000000E-03 0. -1.
    9900012    2    1    2    0    0 -0.41130248755E+02 -0.13203515014E+02 -0.12770402884E+02  0.46142319172E+02  0.10000012869E+02 0.  0.
        -12    1    1    2    0    0  0.41130248755E+02  0.13203515014E+02  0.12770402884E+02  0.45045680828E+02  0.00000000000E+00 0.  1.
         11    1    3    3    0    0 -0.55865664391E+01 -0.29711803234E+01 -0.37795504383E+01  0.73703893296E+01  0.51100000000E-03 0. -1.
        -11    1    3    3    0    0 -0.71439492928E+01 -0.16123614779E+00 -0.41194060024E+01  0.82481218872E+01  0.51100000000E-03 0.  1.
        -12    1    3    3    0    0 -0.28399733023E+02 -0.10071098543E+02 -0.48714464436E+01  0.30523807956E+02  0.00000000000E+00 0.  1.
</event>
<event>
 7    1  0.3910495E-008  0.4614232E+02  0.7816164E-02  0.1320468E+00
        -11   -1    0    0    0    0  0.00000000000E+00  0.00000000000E+00  0.45593999997E+02  0.45594000000E+02  0.51100000000E-03 0. -1.
         11   -1    0    0    0    0 -0.00000000000E+00 -0.00000000000E+00 -0.45593999997E+02  0.45594000000E+02  0.51100000000E-03 0.  1.
    9900012    2    1    2    0    0 -0.96815100514E+01 -0.16857715624E+02  0.40634951083E+02  0.46142318048E+02  0.10000002620E+02 0.  0.
        -12    1    1    2    0    0  0.96815100514E+01  0.16857715624E+02 -0.40634951083E+02  0.45045681952E+02  0.00000000000E+00 0.  1.
         11    1    3    3    0    0 -0.58490307499E+01 -0.63898755816E+01  0.17480763401E+02  0.19509453093E+02  0.51100000000E-03 0. -1.
        -11    1    3    3    0    0 -0.49837466799E+01 -0.41434153107E+01  0.14209764482E+02  0.15618035353E+02  0.51100000000E-03 0.  1.
        -12    1    3    3    0    0  0.11512673785E+01 -0.63244247315E+01  0.89444232004E+01  0.11014829601E+02  0.00000000000E+00 0.  1.
</event>
<event>
 7    1  0.3910495E-008  0.4614232E+02  0.7816164E-02  0.1320468E+00
        -11   -1    0    0    0    0  0.00000000000E+00  0.00000000000E+00  0.45593999997E+02  0.45594000000E+02  0.51100000000E-03 0.  1.
         11   -1    0    0    0    0 -0.00000000000E+00 -0.00000000000E+00 -0.45593999997E+02  0.45594000000E+02  0.51100000000E-03 0. -1.
    9900012    2    1    2    0    0  0.25692612793E+02 -0.14913241760E+02 -0.33861456861E+02  0.46142318823E+02  0.10000009681E+02 0.  0.
        -12    1    1    2    0    0 -0.25692612793E+02  0.14913241760E+02  0.33861456861E+02  0.45045681177E+02  0.00000000000E+00 0.  1.
         11    1    3    3    0    0  0.12006262012E+02 -0.92100308466E+01 -0.21067941522E+02  0.25939027659E+02  0.51100000000E-03 0. -1.
        -11    1    3    3    0    0  0.79650722260E+01 -0.58094560299E+01 -0.89036021518E+01  0.13284061369E+02  0.51100000000E-03 0.  1.
         12    1    3    3    0    0  0.57212785551E+01  0.10624511624E+00 -0.38899131881E+01  0.69192297939E+01  0.00000000000E+00 0. -1.
</event>
<event>
 7    1  0.3910495E-008  0.4614232E+02  0.7816164E-02  0.1320468E+00
        -11   -1    0    0    0    0  0.00000000000E+00  0.00000000000E+00  0.45593999997E+02  0.45594000000E+02  0.51100000000E-03 0.  1.
         11   -1    0    0    0    0 -0.00000000000E+00 -0.00000000000E+00 -0.45593999997E+02  0.45594000000E+02  0.51100000000E-03 0. -1.
    9900012    2    1    2    0    0 -0.30851138715E+02 -0.22601161505E+02 -0.23801435162E+02  0.46142316776E+02  0.99999910164E+01 0.  0.
        -12    1    1    2    0    0  0.30851138715E+02  0.22601161505E+02  0.23801435162E+02  0.45045683224E+02  0.00000000000E+00 0.  1.
         11    1    3    3    0    0 -0.86569748153E+01 -0.47580361024E+01 -0.67034671448E+01  0.11938115116E+02  0.51100000000E-03 0. -1.
        -11    1    3    3    0    0 -0.22398980540E+02 -0.15423462107E+02 -0.15658952255E+02  0.31381527984E+02  0.51100000000E-03 0.  1.
        -12    1    3    3    0    0  0.20481664070E+00 -0.24196632949E+01 -0.14390157624E+01  0.28226736761E+01  0.00000000000E+00 0.  1.
</event>
<event>
 7    1  0.3910495E-008  0.4614232E+02  0.7816164E-02  0.1320468E+00
        -11   -1    0    0    0    0  0.00000000000E+00  0.00000000000E+00  0.45593999997E+02  0.45594000000E+02  0.51100000000E-03 0.  1.
         11   -1    0    0    0    0 -0.00000000000E+00 -0.00000000000E+00 -0.45593999997E+02  0.45594000000E+02  0.51100000000E-03 0. -1.
    9900012    2    1    2    0    0 -0.25980215542E+02 -0.13577191778E+02 -0.34202364586E+02  0.46142317860E+02  0.10000000900E+02 0.  0.
        -12    1    1    2    0    0  0.25980215542E+02  0.13577191778E+02  0.34202364586E+02  0.45045682140E+02  0.00000000000E+00 0.  1.
         11    1    3    3    0    0 -0.15111532168E+02 -0.62752798871E+01 -0.20871631511E+02  0.26520983095E+02  0.51100000000E-03 0. -1.
        -11    1    3    3    0    0 -0.83188383171E+01 -0.22295553709E+01 -0.68404586309E+01  0.10998448192E+02  0.51100000000E-03 0.  1.
         12    1    3    3    0    0 -0.25498450568E+01 -0.50723565197E+01 -0.64902744448E+01  0.86228865727E+01  0.00000000000E+00 0. -1.
</event>
<event>
 7    1  0.3910495E-008  0.4614231E+02  0.7816164E-02  0.1320468E+00
        -11   -1    0    0    0    0  0.00000000000E+00  0.00000000000E+00  0.45593999997E+02  0.45594000000E+02  0.51100000000E-03 0.  1.
         11   -1    0    0    0    0 -0.00000000000E+00 -0.00000000000E+00 -0.45593999997E+02  0.45594000000E+02  0.51100000000E-03 0. -1.
    9900012    2    1    2    0    0  0.28990048979E+02 -0.26917580416E+02 -0.21543803060E+02  0.46142306248E+02  0.99998950167E+01 0.  0.
        -12    1    1    2    0    0 -0.28990048979E+02  0.26917580416E+02  0.21543803060E+02  0.45045693752E+02  0.00000000000E+00 0.  1.
         11    1    3    3    0    0  0.68927995019E+01 -0.71751381549E+01 -0.66479264623E+01  0.11966127988E+02  0.51100000000E-03 0. -1.
        -11    1    3    3    0    0  0.62220712581E+01 -0.15320635464E+01 -0.16175154061E+01  0.66089141166E+01  0.51100000000E-03 0.  1.
        -12    1    3    3    0    0  0.15875178219E+02 -0.18210378715E+02 -0.13278361192E+02  0.27567264144E+02  0.00000000000E+00 0.  1.
</event>
<event>
 7    1  0.3910495E-008  0.4614232E+02  0.7816164E-02  0.1320468E+00
        -11   -1    0    0    0    0  0.00000000000E+00  0.00000000000E+00  0.45593999997E+02  0.45594000000E+02  0.51100000000E-03 0. -1.
         11   -1    0    0    0    0 -0.00000000000E+00 -0.00000000000E+00 -0.45593999997E+02  0.45594000000E+02  0.51100000000E-03 0.  1.
    9900012    2    1    2    0    0  0.11317411886E+02 -0.42869312266E+02  0.79531013113E+01  0.46142316894E+02  0.99999920948E+01 0.  0.
        -12    1    1    2    0    0 -0.11317411886E+02  0.42869312266E+02 -0.79531013113E+01  0.45045683106E+02  0.00000000000E+00 0.  1.
         11    1    3    3    0    0  0.21402269359E+01 -0.16064394524E+02 -0.29582545303E+00  0.16209036237E+02  0.51100000000E-03 0.  1.
        -11    1    3    3    0    0  0.83417770094E+00 -0.42029115901E+00 -0.28228277356E+00  0.97579758170E+00  0.51100000000E-03 0. -1.
         12    1    3    3    0    0  0.83430072493E+01 -0.26384626583E+02  0.85312095379E+01  0.28957483076E+02  0.00000000000E+00 0. -1.
</event>
<event>
 7    1  0.3910495E-008  0.4614231E+02  0.7816164E-02  0.1320468E+00
        -11   -1    0    0    0    0  0.00000000000E+00  0.00000000000E+00  0.45593999997E+02  0.45594000000E+02  0.51100000000E-03 0. -1.
         11   -1    0    0    0    0 -0.00000000000E+00 -0.00000000000E+00 -0.45593999997E+02  0.45594000000E+02  0.51100000000E-03 0.  1.
    9900012    2    1    2    0    0 -0.18654626310E+02 -0.14835526554E+02  0.38223369082E+02  0.46142313471E+02  0.99999608785E+01 0.  0.
        -12    1    1    2    0    0  0.18654626310E+02  0.14835526554E+02 -0.38223369082E+02  0.45045686529E+02  0.00000000000E+00 0.  1.
         11    1    3    3    0    0 -0.34564197214E+01 -0.13240705719E+00  0.45945432016E+01  0.57510169893E+01  0.51100000000E-03 0. -1.
        -11    1    3    3    0    0 -0.81995797925E+01 -0.60470431555E+01  0.22257844674E+02  0.24478796733E+02  0.51100000000E-03 0.  1.
        -12    1    3    3    0    0 -0.69986267959E+01 -0.86560763412E+01  0.11370981207E+02  0.15912499749E+02  0.00000000000E+00 0.  1.
</event>
<event>
 7    1  0.3910495E-008  0.4614232E+02  0.7816164E-02  0.1320468E+00
        -11   -1    0    0    0    0  0.00000000000E+00  0.00000000000E+00  0.45593999997E+02  0.45594000000E+02  0.51100000000E-03 0. -1.
         11   -1    0    0    0    0 -0.00000000000E+00 -0.00000000000E+00 -0.45593999997E+02  0.45594000000E+02  0.51100000000E-03 0.  1.
    9900012    2    1    2    0    0 -0.42216123187E+02 -0.25442632207E+01 -0.15506100864E+02  0.46142317673E+02  0.99999991993E+01 0.  0.
        -12    1    1    2    0    0  0.42216123187E+02  0.25442632207E+01  0.15506100864E+02  0.45045682327E+02  0.00000000000E+00 0.  1.
         11    1    3    3    0    0 -0.30550561951E+02 -0.20939465108E+01 -0.72042878567E+01  0.31458277310E+02  0.51100000000E-03 0. -1.
        -11    1    3    3    0    0 -0.10351646920E+01  0.54664419687E+00 -0.18770171779E-01  0.11707853765E+01  0.51100000000E-03 0.  1.
        -12    1    3    3    0    0 -0.10630396544E+02 -0.99696090677E+00 -0.82830428353E+01  0.13513254987E+02  0.00000000000E+00 0.  1.
</event>
<event>
 7    1  0.3910495E-008  0.4614232E+02  0.7816164E-02  0.1320468E+00
        -11   -1    0    0    0    0  0.00000000000E+00  0.00000000000E+00  0.45593999997E+02  0.45594000000E+02  0.51100000000E-03 0.  1.
         11   -1    0    0    0    0 -0.00000000000E+00 -0.00000000000E+00 -0.45593999997E+02  0.45594000000E+02  0.51100000000E-03 0. -1.
    9900012    2    1    2    0    0 -0.88699789517E+01  0.30460509065E+02 -0.31978027014E+02  0.46142319288E+02  0.10000013922E+02 0.  0.
        -12    1    1    2    0    0  0.88699789517E+01 -0.30460509065E+02  0.31978027014E+02  0.45045680712E+02  0.00000000000E+00 0.  1.
         11    1    3    3    0    0 -0.35915500507E+01  0.35061819868E+01 -0.45606727934E+01  0.67817608687E+01  0.51100000000E-03 0. -1.
        -11    1    3    3    0    0 -0.58311387889E+00 -0.38383999371E-01 -0.16455054822E+01  0.17461911923E+01  0.51100000000E-03 0.  1.
        -12    1    3    3    0    0 -0.46953150222E+01  0.26992711078E+02 -0.25771848739E+02  0.37614367227E+02  0.00000000000E+00 0.  1.
</event>
<event>
 7    1  0.3910495E-008  0.4614232E+02  0.7816164E-02  0.1320468E+00
        -11   -1    0    0    0    0  0.00000000000E+00  0.00000000000E+00  0.45593999997E+02  0.45594000000E+02  0.51100000000E-03 0.  1.
         11   -1    0    0    0    0 -0.00000000000E+00 -0.00000000000E+00 -0.45593999997E+02  0.45594000000E+02  0.51100000000E-03 0. -1.
    9900012    2    1    2    0    0  0.27243525130E+02 -0.13951306935E+02 -0.33049428606E+02  0.46142319209E+02  0.10000013207E+02 0.  0.
        -12    1    1    2    0    0 -0.27243525130E+02  0.13951306935E+02  0.33049428606E+02  0.45045680791E+02  0.00000000000E+00 0.  1.
         11    1    3    3    0    0  0.46733716893E+01 -0.23059922242E+01 -0.15877143218E+01  0.54478289358E+01  0.51100000000E-03 0. -1.
        -11    1    3    3    0    0  0.11137948785E+00  0.33662165930E+00 -0.47929021413E+00  0.59618696925E+00  0.51100000000E-03 0.  1.
         12    1    3    3    0    0  0.22458773953E+02 -0.11981936371E+02 -0.30982424070E+02  0.40098303304E+02  0.00000000000E+00 0. -1.
</event>
<event>
 7    1  0.3910495E-008  0.4614232E+02  0.7816164E-02  0.1320468E+00
        -11   -1    0    0    0    0  0.00000000000E+00  0.00000000000E+00  0.45593999997E+02  0.45594000000E+02  0.51100000000E-03 0. -1.
         11   -1    0    0    0    0 -0.00000000000E+00 -0.00000000000E+00 -0.45593999997E+02  0.45594000000E+02  0.51100000000E-03 0.  1.
    9900012    2    1    2    0    0 -0.10203823927E+02 -0.26906968399E+01  0.43792185903E+02  0.46142318538E+02  0.10000007088E+02 0.  0.
        -12    1    1    2    0    0  0.10203823927E+02  0.26906968399E+01 -0.43792185903E+02  0.45045681462E+02  0.00000000000E+00 0.  1.
         11    1    3    3    0    0 -0.16646979805E+01 -0.17990572465E-01  0.63393496913E+01  0.65543037614E+01  0.51100000000E-03 0.  1.
        -11    1    3    3    0    0 -0.72195550838E+01 -0.24727165563E+01  0.12822572292E+02  0.14921617313E+02  0.51100000000E-03 0. -1.
        -12    1    3    3    0    0 -0.13195708624E+01 -0.19998971106E+00  0.24630263919E+02  0.24666397464E+02  0.00000000000E+00 0.  1.
</event>
<event>
 7    1  0.3910495E-008  0.4614232E+02  0.7816164E-02  0.1320468E+00
        -11   -1    0    0    0    0  0.00000000000E+00  0.00000000000E+00  0.45593999997E+02  0.45594000000E+02  0.51100000000E-03 0.  1.
         11   -1    0    0    0    0 -0.00000000000E+00 -0.00000000000E+00 -0.45593999997E+02  0.45594000000E+02  0.51100000000E-03 0. -1.
    9900012    2    1    2    0    0 -0.15213084120E+02  0.13618535765E+02 -0.40152347428E+02  0.46142318200E+02  0.10000004003E+02 0.  0.
        -12    1    1    2    0    0  0.15213084120E+02 -0.13618535765E+02  0.40152347428E+02  0.45045681800E+02  0.00000000000E+00 0.  1.
         11    1    3    3    0    0 -0.53987703445E+01  0.43226901316E+01 -0.10484185641E+02  0.12559877388E+02  0.51100000000E-03 0. -1.
        -11    1    3    3    0    0  0.12719203605E+01  0.80216746058E+00 -0.14095977664E+01  0.20611210936E+01  0.51100000000E-03 0.  1.
        -12    1    3    3    0    0 -0.11086234136E+02  0.84936781729E+01 -0.28258564021E+02  0.31521319718E+02  0.00000000000E+00 0.  1.
</event>
<event>
 7    1  0.3910495E-008  0.4614232E+02  0.7816164E-02  0.1320468E+00
        -11   -1    0    0    0    0  0.00000000000E+00  0.00000000000E+00  0.45593999997E+02  0.45594000000E+02  0.51100000000E-03 0. -1.
         11   -1    0    0    0    0 -0.00000000000E+00 -0.00000000000E+00 -0.45593999997E+02  0.45594000000E+02  0.51100000000E-03 0.  1.
    9900012    2    1    2    0    0 -0.23921052254E+02  0.26961478861E+02  0.27018056595E+02  0.46142318016E+02  0.10000002323E+02 0.  0.
        -12    1    1    2    0    0  0.23921052254E+02 -0.26961478861E+02 -0.27018056595E+02  0.45045681984E+02  0.00000000000E+00 0.  1.
         11    1    3    3    0    0 -0.37044915532E+01  0.68507824369E+01  0.47146350753E+01  0.91040794054E+01  0.51100000000E-03 0. -1.
        -11    1    3    3    0    0 -0.57713745957E+00 -0.61256872648E+00  0.14716046964E+01  0.16952724664E+01  0.51100000000E-03 0.  1.
         12    1    3    3    0    0 -0.19639423241E+02  0.20723265150E+02  0.20831816823E+02  0.35342966144E+02  0.00000000000E+00 0. -1.
</event>
<event>
 7    1  0.3910495E-008  0.4614232E+02  0.7816164E-02  0.1320468E+00
        -11   -1    0    0    0    0  0.00000000000E+00  0.00000000000E+00  0.45593999997E+02  0.45594000000E+02  0.51100000000E-03 0. -1.
         11   -1    0    0    0    0 -0.00000000000E+00 -0.00000000000E+00 -0.45593999997E+02  0.45594000000E+02  0.51100000000E-03 0.  1.
    9900012    2    1    2    0    0 -0.22831037657E+02 -0.16280136875E+02  0.35253572097E+02  0.46142317823E+02  0.10000000567E+02 0.  0.
        -12    1    1    2    0    0  0.22831037657E+02  0.16280136875E+02 -0.35253572097E+02  0.45045682177E+02  0.00000000000E+00 0.  1.
         11    1    3    3    0    0 -0.10161918343E+02 -0.62022535347E+01  0.19870277590E+02  0.23163774845E+02  0.51100000000E-03 0. -1.
        -11    1    3    3    0    0 -0.54152794329E+01 -0.51068654091E+01  0.10645690416E+02  0.12989844123E+02  0.51100000000E-03 0.  1.
        -12    1    3    3    0    0 -0.72538398810E+01 -0.49710179314E+01  0.47376040908E+01  0.99886988549E+01  0.00000000000E+00 0.  1.
</event>
<event>
 7    1  0.3910495E-008  0.4614232E+02  0.7816164E-02  0.1320468E+00
        -11   -1    0    0    0    0  0.00000000000E+00  0.00000000000E+00  0.45593999997E+02  0.45594000000E+02  0.51100000000E-03 0.  1.
         11   -1    0    0    0    0 -0.00000000000E+00 -0.00000000000E+00 -0.45593999997E+02  0.45594000000E+02  0.51100000000E-03 0. -1.
    9900012    2    1    2    0    0  0.67861716640E+01  0.43708145120E+02 -0.85240540986E+01  0.46142316811E+02  0.99999913354E+01 0.  0.
        -12    1    1    2    0    0 -0.67861716640E+01 -0.43708145120E+02  0.85240540986E+01  0.45045683189E+02  0.00000000000E+00 0.  1.
         11    1    3    3    0    0  0.13272273965E+01  0.20013553269E+02 -0.20533516937E+01  0.20162343625E+02  0.51100000000E-03 0. -1.
        -11    1    3    3    0    0  0.28834951965E+01  0.27018371301E+01 -0.37689057205E+00  0.39694477185E+01  0.51100000000E-03 0.  1.
        -12    1    3    3    0    0  0.25754490710E+01  0.20992754721E+02 -0.60938118329E+01  0.22010525467E+02  0.00000000000E+00 0.  1.
</event>
<event>
 7    1  0.3910495E-008  0.4614232E+02  0.7816164E-02  0.1320468E+00
        -11   -1    0    0    0    0  0.00000000000E+00  0.00000000000E+00  0.45593999997E+02  0.45594000000E+02  0.51100000000E-03 0.  1.
         11   -1    0    0    0    0 -0.00000000000E+00 -0.00000000000E+00 -0.45593999997E+02  0.45594000000E+02  0.51100000000E-03 0. -1.
    9900012    2    1    2    0    0 -0.81155351113E+01 -0.17563928909E+02 -0.40678741049E+02  0.46142317830E+02  0.10000000625E+02 0.  0.
        -12    1    1    2    0    0  0.81155351113E+01  0.17563928909E+02  0.40678741049E+02  0.45045682170E+02  0.00000000000E+00 0.  1.
         11    1    3    3    0    0 -0.53704721323E+01 -0.11184260881E+02 -0.15457914368E+02  0.19821119526E+02  0.51100000000E-03 0.  1.
        -11    1    3    3    0    0 -0.25575172839E+01 -0.24063929548E+01 -0.10455237085E+02  0.11029215950E+02  0.51100000000E-03 0. -1.
        -12    1    3    3    0    0 -0.18754569514E+00 -0.39732750734E+01 -0.14765589596E+02  0.15291982354E+02  0.00000000000E+00 0.  1.
</event>
<event>
 7    1  0.3910495E-008  0.4614231E+02  0.7816164E-02  0.1320468E+00
        -11   -1    0    0    0    0  0.00000000000E+00  0.00000000000E+00  0.45593999997E+02  0.45594000000E+02  0.51100000000E-03 0.  1.
         11   -1    0    0    0    0 -0.00000000000E+00 -0.00000000000E+00 -0.45593999997E+02  0.45594000000E+02  0.51100000000E-03 0. -1.
    9900012    2    1    2    0    0  0.18521013775E+02  0.34807246876E+02 -0.21783970866E+02  0.46142314601E+02  0.99999711864E+01 0.  0.
        -12    1    1    2    0    0 -0.18521013775E+02 -0.34807246876E+02  0.21783970866E+02  0.45045685399E+02  0.00000000000E+00 0.  1.
         11    1    3    3    0    0  0.64271123764E+01  0.59051121624E+01 -0.53154896238E+01  0.10219224694E+02  0.51100000000E-03 0. -1.
        -11    1    3    3    0    0  0.70016490700E+01  0.12624539774E+02 -0.46257481039E+01  0.15159143775E+02  0.51100000000E-03 0.  1.
        -12    1    3    3    0    0  0.50922523288E+01  0.16277594939E+02 -0.11842733138E+02  0.20763946132E+02  0.00000000000E+00 0.  1.
</event>
<event>
 7    1  0.3910495E-008  0.4614232E+02  0.7816164E-02  0.1320468E+00
        -11   -1    0    0    0    0  0.00000000000E+00  0.00000000000E+00  0.45593999997E+02  0.45594000000E+02  0.51100000000E-03 0.  1.
         11   -1    0    0    0    0 -0.00000000000E+00 -0.00000000000E+00 -0.45593999997E+02  0.45594000000E+02  0.51100000000E-03 0. -1.
    9900012    2    1    2    0    0 -0.23610175126E+02  0.33487765651E+02 -0.18714776682E+02  0.46142315589E+02  0.99999801950E+01 0.  0.
        -12    1    1    2    0    0  0.23610175126E+02 -0.33487765651E+02  0.18714776682E+02  0.45045684411E+02  0.00000000000E+00 0.  1.
         11    1    3    3    0    0 -0.65275026980E+01  0.10789128605E+02 -0.78624622930E+01  0.14860413894E+02  0.51100000000E-03 0. -1.
        -11    1    3    3    0    0 -0.11568384675E+02  0.13313622271E+02 -0.30741915573E+01  0.17903371636E+02  0.51100000000E-03 0.  1.
        -12    1    3    3    0    0 -0.55142877536E+01  0.93850147749E+01 -0.77781228319E+01  0.13378530059E+02  0.00000000000E+00 0.  1.
</event>
<event>
 7    1  0.3910495E-008  0.4614232E+02  0.7816164E-02  0.1320468E+00
        -11   -1    0    0    0    0  0.00000000000E+00  0.00000000000E+00  0.45593999997E+02  0.45594000000E+02  0.51100000000E-03 0.  1.
         11   -1    0    0    0    0 -0.00000000000E+00 -0.00000000000E+00 -0.45593999997E+02  0.45594000000E+02  0.51100000000E-03 0. -1.
    9900012    2    1    2    0    0  0.38277339058E+02 -0.23708704261E+02 -0.13623871854E+01  0.46142318277E+02  0.10000004701E+02 0.  0.
        -12    1    1    2    0    0 -0.38277339058E+02  0.23708704261E+02  0.13623871854E+01  0.45045681723E+02  0.00000000000E+00 0.  1.
         11    1    3    3    0    0  0.16917212717E+02 -0.12645165945E+02  0.32083988125E+01  0.21363195713E+02  0.51100000000E-03 0. -1.
        -11    1    3    3    0    0  0.44377972064E+01 -0.35990942273E+01  0.54515665941E-01  0.57140612108E+01  0.51100000000E-03 0.  1.
        -12    1    3    3    0    0  0.16922329135E+02 -0.74644440885E+01 -0.46253016638E+01  0.19065061353E+02  0.00000000000E+00 0.  1.
</event>
<event>
 7    1  0.3910495E-008  0.4614232E+02  0.7816164E-02  0.1320468E+00
        -11   -1    0    0    0    0  0.00000000000E+00  0.00000000000E+00  0.45593999997E+02  0.45594000000E+02  0.51100000000E-03 0.  1.
         11   -1    0    0    0    0 -0.00000000000E+00 -0.00000000000E+00 -0.45593999997E+02  0.45594000000E+02  0.51100000000E-03 0. -1.
    9900012    2    1    2    0    0 -0.26897686030E+02 -0.23585468120E+02 -0.27374322282E+02  0.46142319401E+02  0.10000014957E+02 0.  0.
        -12    1    1    2    0    0  0.26897686030E+02  0.23585468120E+02  0.27374322282E+02  0.45045680599E+02  0.00000000000E+00 0.  1.
         11    1    3    3    0    0 -0.66433148794E+01 -0.79104062347E+01 -0.77328778130E+01  0.12903703302E+02  0.51100000000E-03 0.  1.
        -11    1    3    3    0    0 -0.17342147934E+02 -0.16338954490E+02 -0.17367320141E+02  0.29484493177E+02  0.51100000000E-03 0. -1.
        -12    1    3    3    0    0 -0.29122232166E+01  0.66389260413E+00 -0.22741243278E+01  0.37541229218E+01  0.00000000000E+00 0.  1.
</event>
<event>
 7    1  0.3910495E-008  0.4614232E+02  0.7816164E-02  0.1320468E+00
        -11   -1    0    0    0    0  0.00000000000E+00  0.00000000000E+00  0.45593999997E+02  0.45594000000E+02  0.51100000000E-03 0.  1.
         11   -1    0    0    0    0 -0.00000000000E+00 -0.00000000000E+00 -0.45593999997E+02  0.45594000000E+02  0.51100000000E-03 0. -1.
    9900012    2    1    2    0    0  0.11636515310E+02  0.76729709137E+01 -0.42834921533E+02  0.46142317921E+02  0.10000001458E+02 0.  0.
        -12    1    1    2    0    0 -0.11636515310E+02 -0.76729709137E+01  0.42834921533E+02  0.45045682079E+02  0.00000000000E+00 0.  1.
         11    1    3    3    0    0  0.61916759123E+01  0.23802711645E+01 -0.14898393190E+02  0.16308423017E+02  0.51100000000E-03 0. -1.
        -11    1    3    3    0    0  0.85737958449E+00 -0.13304070835E+01 -0.10590609278E+02  0.10708225245E+02  0.51100000000E-03 0.  1.
        -12    1    3    3    0    0  0.45874598128E+01  0.66231068327E+01 -0.17345919065E+02  0.19125669658E+02  0.00000000000E+00 0.  1.
</event>
<event>
 7    1  0.3910495E-008  0.4614232E+02  0.7816164E-02  0.1320468E+00
        -11   -1    0    0    0    0  0.00000000000E+00  0.00000000000E+00  0.45593999997E+02  0.45594000000E+02  0.51100000000E-03 0.  1.
         11   -1    0    0    0    0 -0.00000000000E+00 -0.00000000000E+00 -0.45593999997E+02  0.45594000000E+02  0.51100000000E-03 0. -1.
    9900012    2    1    2    0    0 -0.43557754848E+01 -0.18707585977E+02 -0.40745146810E+02  0.46142317168E+02  0.99999945946E+01 0.  0.
        -12    1    1    2    0    0  0.43557754848E+01  0.18707585977E+02  0.40745146810E+02  0.45045682832E+02  0.00000000000E+00 0.  1.
         11    1    3    3    0    0 -0.18876010390E+01 -0.23119625270E+01 -0.84270566931E+01  0.89399940257E+01  0.51100000000E-03 0. -1.
        -11    1    3    3    0    0  0.13729867057E+01 -0.11279658238E+02 -0.15581316630E+02  0.19284532939E+02  0.51100000000E-03 0.  1.
        -12    1    3    3    0    0 -0.38411611515E+01 -0.51159652120E+01 -0.16736773487E+02  0.17917790204E+02  0.00000000000E+00 0.  1.
</event>
<event>
 7    1  0.3910495E-008  0.4614232E+02  0.7816164E-02  0.1320468E+00
        -11   -1    0    0    0    0  0.00000000000E+00  0.00000000000E+00  0.45593999997E+02  0.45594000000E+02  0.51100000000E-03 0. -1.
         11   -1    0    0    0    0 -0.00000000000E+00 -0.00000000000E+00 -0.45593999997E+02  0.45594000000E+02  0.51100000000E-03 0.  1.
    9900012    2    1    2    0    0 -0.11362829233E+02 -0.17156922480E+02  0.40070432909E+02  0.46142317957E+02  0.10000001786E+02 0.  0.
        -12    1    1    2    0    0  0.11362829233E+02  0.17156922480E+02 -0.40070432909E+02  0.45045682043E+02  0.00000000000E+00 0.  1.
         11    1    3    3    0    0 -0.35307554005E+01 -0.19133191758E+01  0.14917612761E+02  0.15448695566E+02  0.51100000000E-03 0. -1.
        -11    1    3    3    0    0 -0.17278746650E+00 -0.38282892921E+01  0.50291272420E+01  0.63227980745E+01  0.51100000000E-03 0.  1.
        -12    1    3    3    0    0 -0.76592863665E+01 -0.11415314012E+02  0.20123692907E+02  0.24370824316E+02  0.00000000000E+00 0.  1.
</event>
<event>
 7    1  0.3910495E-008  0.4614232E+02  0.7816164E-02  0.1320468E+00
        -11   -1    0    0    0    0  0.00000000000E+00  0.00000000000E+00  0.45593999997E+02  0.45594000000E+02  0.51100000000E-03 0.  1.
         11   -1    0    0    0    0 -0.00000000000E+00 -0.00000000000E+00 -0.45593999997E+02  0.45594000000E+02  0.51100000000E-03 0. -1.
    9900012    2    1    2    0    0 -0.35432851759E+02  0.26622400366E+01 -0.27686440226E+02  0.46142317874E+02  0.10000001029E+02 0.  0.
        -12    1    1    2    0    0  0.35432851759E+02 -0.26622400366E+01  0.27686440226E+02  0.45045682126E+02  0.00000000000E+00 0.  1.
         11    1    3    3    0    0 -0.19310315019E+02  0.33142134867E+01 -0.11743632378E+02  0.22842617601E+02  0.51100000000E-03 0. -1.
        -11    1    3    3    0    0 -0.19701133447E+01 -0.67814718882E+00 -0.14331829387E+00  0.20884852394E+01  0.51100000000E-03 0.  1.
         12    1    3    3    0    0 -0.14152423396E+02  0.26173738759E-01 -0.15799489554E+02  0.21211215034E+02  0.00000000000E+00 0. -1.
</event>
<event>
 7    1  0.3910495E-008  0.4614232E+02  0.7816164E-02  0.1320468E+00
        -11   -1    0    0    0    0  0.00000000000E+00  0.00000000000E+00  0.45593999997E+02  0.45594000000E+02  0.51100000000E-03 0.  1.
         11   -1    0    0    0    0 -0.00000000000E+00 -0.00000000000E+00 -0.45593999997E+02  0.45594000000E+02  0.51100000000E-03 0. -1.
    9900012    2    1    2    0    0 -0.77289269042E+01  0.10071454310E+02 -0.43219703895E+02  0.46142319765E+02  0.10000018275E+02 0.  0.
        -12    1    1    2    0    0  0.77289269042E+01 -0.10071454310E+02  0.43219703895E+02  0.45045680235E+02  0.00000000000E+00 0.  1.
         11    1    3    3    0    0 -0.34619711550E+00 -0.20865335794E+00 -0.21668687977E+01  0.22042480156E+01  0.51100000000E-03 0. -1.
        -11    1    3    3    0    0  0.93336473069E+00  0.63560450659E+01 -0.18444523958E+02  0.19531281138E+02  0.51100000000E-03 0.  1.
        -12    1    3    3    0    0 -0.83160945194E+01  0.39240626022E+01 -0.22608311140E+02  0.24406790612E+02  0.00000000000E+00 0.  1.
</event>
<event>
 7    1  0.3910495E-008  0.4614232E+02  0.7816164E-02  0.1320468E+00
        -11   -1    0    0    0    0  0.00000000000E+00  0.00000000000E+00  0.45593999997E+02  0.45594000000E+02  0.51100000000E-03 0.  1.
         11   -1    0    0    0    0 -0.00000000000E+00 -0.00000000000E+00 -0.45593999997E+02  0.45594000000E+02  0.51100000000E-03 0. -1.
    9900012    2    1    2    0    0  0.16145874505E+02 -0.60870476282E+01 -0.41609758549E+02  0.46142318533E+02  0.10000007038E+02 0.  0.
        -12    1    1    2    0    0 -0.16145874505E+02  0.60870476282E+01  0.41609758549E+02  0.45045681467E+02  0.00000000000E+00 0.  1.
         11    1    3    3    0    0  0.15426141928E+01 -0.29753626168E+01 -0.74538638919E+01  0.81726696023E+01  0.51100000000E-03 0. -1.
        -11    1    3    3    0    0  0.24408146180E+00 -0.93599237637E+00 -0.13258890365E+00  0.97633885875E+00  0.51100000000E-03 0.  1.
        -12    1    3    3    0    0  0.14359178850E+02 -0.21756926351E+01 -0.34023305753E+02  0.36993310072E+02  0.00000000000E+00 0.  1.
</event>
<event>
 7    1  0.3910495E-008  0.4614232E+02  0.7816164E-02  0.1320468E+00
        -11   -1    0    0    0    0  0.00000000000E+00  0.00000000000E+00  0.45593999997E+02  0.45594000000E+02  0.51100000000E-03 0. -1.
         11   -1    0    0    0    0 -0.00000000000E+00 -0.00000000000E+00 -0.45593999997E+02  0.45594000000E+02  0.51100000000E-03 0.  1.
    9900012    2    1    2    0    0  0.82509229848E+01  0.62539448712E+01  0.43839753230E+02  0.46142317412E+02  0.99999968158E+01 0.  0.
        -12    1    1    2    0    0 -0.82509229848E+01 -0.62539448712E+01 -0.43839753230E+02  0.45045682588E+02  0.00000000000E+00 0.  1.
         11    1    3    3    0    0  0.18117949448E+01  0.83496600024E+00  0.13696021233E+02  0.13840547931E+02  0.51100000000E-03 0. -1.
        -11    1    3    3    0    0  0.48399465273E+01  0.13290501429E+01  0.62895555971E+01  0.80467363905E+01  0.51100000000E-03 0.  1.
        -12    1    3    3    0    0  0.15991815128E+01  0.40899287281E+01  0.23854176400E+02  0.24255033091E+02  0.00000000000E+00 0.  1.
</event>
<event>
 7    1  0.3910495E-008  0.4614231E+02  0.7816164E-02  0.1320468E+00
        -11   -1    0    0    0    0  0.00000000000E+00  0.00000000000E+00  0.45593999997E+02  0.45594000000E+02  0.51100000000E-03 0.  1.
         11   -1    0    0    0    0 -0.00000000000E+00 -0.00000000000E+00 -0.45593999997E+02  0.45594000000E+02  0.51100000000E-03 0. -1.
    9900012    2    1    2    0    0  0.14295247241E+02  0.36481050762E+02 -0.22223695289E+02  0.46142314405E+02  0.99999693976E+01 0.  0.
        -12    1    1    2    0    0 -0.14295247241E+02 -0.36481050762E+02  0.22223695289E+02  0.45045685595E+02  0.00000000000E+00 0.  1.
         11    1    3    3    0    0  0.33578335689E+01  0.11245714890E+02 -0.60877855958E+01  0.13221281458E+02  0.51100000000E-03 0. -1.
        -11    1    3    3    0    0  0.89808823406E+01  0.23318617223E+02 -0.16789933857E+02  0.30105083225E+02  0.51100000000E-03 0.  1.
         12    1    3    3    0    0  0.19565313315E+01  0.19167186497E+01  0.65402416364E+00  0.28159497226E+01  0.00000000000E+00 0. -1.
</event>
<event>
 7    1  0.3910495E-008  0.4614232E+02  0.7816164E-02  0.1320468E+00
        -11   -1    0    0    0    0  0.00000000000E+00  0.00000000000E+00  0.45593999997E+02  0.45594000000E+02  0.51100000000E-03 0. -1.
         11   -1    0    0    0    0 -0.00000000000E+00 -0.00000000000E+00 -0.45593999997E+02  0.45594000000E+02  0.51100000000E-03 0.  1.
    9900012    2    1    2    0    0  0.30942267269E+02 -0.18400911859E+02  0.27075745861E+02  0.46142317910E+02  0.10000001360E+02 0.  0.
        -12    1    1    2    0    0 -0.30942267269E+02  0.18400911859E+02 -0.27075745861E+02  0.45045682090E+02  0.00000000000E+00 0.  1.
         11    1    3    3    0    0  0.12674867032E+02 -0.98457229547E+01  0.12398775148E+02  0.20281029071E+02  0.51100000000E-03 0. -1.
        -11    1    3    3    0    0  0.42378726278E+01  0.94394361954E+00  0.27042860359E+01  0.51150520224E+01  0.51100000000E-03 0.  1.
        -12    1    3    3    0    0  0.14029527609E+02 -0.94991325243E+01  0.11972684678E+02  0.20746236816E+02  0.00000000000E+00 0.  1.
</event>
<event>
 7    1  0.3910495E-008  0.4614232E+02  0.7816164E-02  0.1320468E+00
        -11   -1    0    0    0    0  0.00000000000E+00  0.00000000000E+00  0.45593999997E+02  0.45594000000E+02  0.51100000000E-03 0.  1.
         11   -1    0    0    0    0 -0.00000000000E+00 -0.00000000000E+00 -0.45593999997E+02  0.45594000000E+02  0.51100000000E-03 0. -1.
    9900012    2    1    2    0    0 -0.69442469396E+01  0.43573836142E+02 -0.90670704718E+01  0.46142317314E+02  0.99999959271E+01 0.  0.
        -12    1    1    2    0    0  0.69442469396E+01 -0.43573836142E+02  0.90670704718E+01  0.45045682686E+02  0.00000000000E+00 0.  1.
         11    1    3    3    0    0 -0.60084541320E+01  0.21018097466E+02 -0.41050694647E+01  0.22242156769E+02  0.51100000000E-03 0. -1.
        -11    1    3    3    0    0  0.16308042398E+01  0.16879189289E+02 -0.49673301108E+01  0.17670340184E+02  0.51100000000E-03 0.  1.
        -12    1    3    3    0    0 -0.25665970474E+01  0.56765493861E+01  0.53291035788E-02  0.62298203614E+01  0.00000000000E+00 0.  1.
</event>
<event>
 7    1  0.3910495E-008  0.4614232E+02  0.7816164E-02  0.1320468E+00
        -11   -1    0    0    0    0  0.00000000000E+00  0.00000000000E+00  0.45593999997E+02  0.45594000000E+02  0.51100000000E-03 0.  1.
         11   -1    0    0    0    0 -0.00000000000E+00 -0.00000000000E+00 -0.45593999997E+02  0.45594000000E+02  0.51100000000E-03 0. -1.
    9900012    2    1    2    0    0 -0.36352173200E+02  0.14513901664E+01 -0.26561748805E+02  0.46142317306E+02  0.99999958464E+01 0.  0.
        -12    1    1    2    0    0  0.36352173200E+02 -0.14513901664E+01  0.26561748805E+02  0.45045682694E+02  0.00000000000E+00 0.  1.
         11    1    3    3    0    0 -0.94645482325E+01 -0.77988120926E+00 -0.75445282837E+01  0.12128717790E+02  0.51100000000E-03 0. -1.
        -11    1    3    3    0    0 -0.23652164502E+01  0.15202082311E+00  0.70828482071E+00  0.24736666783E+01  0.51100000000E-03 0.  1.
        -12    1    3    3    0    0 -0.24522408518E+02  0.20792505526E+01 -0.19725505342E+02  0.31539932837E+02  0.00000000000E+00 0.  1.
</event>
<event>
 7    1  0.3910495E-008  0.4614231E+02  0.7816164E-02  0.1320468E+00
        -11   -1    0    0    0    0  0.00000000000E+00  0.00000000000E+00  0.45593999997E+02  0.45594000000E+02  0.51100000000E-03 0. -1.
         11   -1    0    0    0    0 -0.00000000000E+00 -0.00000000000E+00 -0.45593999997E+02  0.45594000000E+02  0.51100000000E-03 0.  1.
    9900012    2    1    2    0    0  0.35097163962E+02  0.21890998844E+02  0.17834995069E+02  0.46142314328E+02  0.99999686932E+01 0.  0.
        -12    1    1    2    0    0 -0.35097163962E+02 -0.21890998844E+02 -0.17834995069E+02  0.45045685672E+02  0.00000000000E+00 0.  1.
         11    1    3    3    0    0  0.11468720662E+02  0.98756605752E+01  0.69538773583E+01  0.16655828890E+02  0.51100000000E-03 0. -1.
        -11    1    3    3    0    0  0.69109777748E+01  0.70261603492E+01  0.51718153896E+01  0.11129969350E+02  0.51100000000E-03 0.  1.
        -12    1    3    3    0    0  0.16717465525E+02  0.49891779196E+01  0.57093023215E+01  0.18356516088E+02  0.00000000000E+00 0.  1.
</event>
<event>
 7    1  0.3910495E-008  0.4614232E+02  0.7816164E-02  0.1320468E+00
        -11   -1    0    0    0    0  0.00000000000E+00  0.00000000000E+00  0.45593999997E+02  0.45594000000E+02  0.51100000000E-03 0.  1.
         11   -1    0    0    0    0 -0.00000000000E+00 -0.00000000000E+00 -0.45593999997E+02  0.45594000000E+02  0.51100000000E-03 0. -1.
    9900012    2    1    2    0    0  0.26062352968E+02 -0.10436424926E+01 -0.36725713632E+02  0.46142317925E+02  0.10000001491E+02 0.  0.
        -12    1    1    2    0    0 -0.26062352968E+02  0.10436424926E+01  0.36725713632E+02  0.45045682075E+02  0.00000000000E+00 0.  1.
         11    1    3    3    0    0  0.99756162586E+01  0.34300974392E+01 -0.15838575817E+02  0.19029949352E+02  0.51100000000E-03 0. -1.
        -11    1    3    3    0    0  0.10438603317E+02 -0.81920627094E+00 -0.11359703317E+02  0.15449219975E+02  0.51100000000E-03 0.  1.
         12    1    3    3    0    0  0.56481333923E+01 -0.36545336608E+01 -0.95274344979E+01  0.11663148598E+02  0.00000000000E+00 0. -1.
</event>
<event>
 7    1  0.3910495E-008  0.4614232E+02  0.7816164E-02  0.1320468E+00
        -11   -1    0    0    0    0  0.00000000000E+00  0.00000000000E+00  0.45593999997E+02  0.45594000000E+02  0.51100000000E-03 0.  1.
         11   -1    0    0    0    0 -0.00000000000E+00 -0.00000000000E+00 -0.45593999997E+02  0.45594000000E+02  0.51100000000E-03 0. -1.
    9900012    2    1    2    0    0 -0.82658918226E+01 -0.23003207481E+02 -0.37837032633E+02  0.46142316960E+02  0.99999926935E+01 0.  0.
        -12    1    1    2    0    0  0.82658918226E+01  0.23003207481E+02  0.37837032633E+02  0.45045683040E+02  0.00000000000E+00 0.  1.
         11    1    3    3    0    0 -0.31968818931E+01 -0.58440513124E+01 -0.15200735142E+02  0.16596244716E+02  0.51100000000E-03 0. -1.
        -11    1    3    3    0    0 -0.78988125135E-01 -0.24051806671E+01 -0.73057169668E+01  0.76918550314E+01  0.51100000000E-03 0.  1.
        -12    1    3    3    0    0 -0.49900218044E+01 -0.14753975502E+02 -0.15330580525E+02  0.21854217212E+02  0.00000000000E+00 0.  1.
</event>
<event>
 7    1  0.3910495E-008  0.4614232E+02  0.7816164E-02  0.1320468E+00
        -11   -1    0    0    0    0  0.00000000000E+00  0.00000000000E+00  0.45593999997E+02  0.45594000000E+02  0.51100000000E-03 0.  1.
         11   -1    0    0    0    0 -0.00000000000E+00 -0.00000000000E+00 -0.45593999997E+02  0.45594000000E+02  0.51100000000E-03 0. -1.
    9900012    2    1    2    0    0  0.17033846087E+01  0.40455412019E+02 -0.19737568684E+02  0.46142317651E+02  0.99999989979E+01 0.  0.
        -12    1    1    2    0    0 -0.17033846087E+01 -0.40455412019E+02  0.19737568684E+02  0.45045682349E+02  0.00000000000E+00 0.  1.
         11    1    3    3    0    0  0.11238058117E+01  0.33856349231E+02 -0.17352091588E+02  0.38060614886E+02  0.51100000000E-03 0. -1.
        -11    1    3    3    0    0  0.13156596143E+01  0.68043580815E+01 -0.19384311374E+01  0.71963716314E+01  0.51100000000E-03 0.  1.
         12    1    3    3    0    0 -0.73608081721E+00 -0.20529529418E+00 -0.44704595824E+00  0.88533113356E+00  0.00000000000E+00 0. -1.
</event>
<event>
 7    1  0.3910495E-008  0.4614232E+02  0.7816164E-02  0.1320468E+00
        -11   -1    0    0    0    0  0.00000000000E+00  0.00000000000E+00  0.45593999997E+02  0.45594000000E+02  0.51100000000E-03 0.  1.
         11   -1    0    0    0    0 -0.00000000000E+00 -0.00000000000E+00 -0.45593999997E+02  0.45594000000E+02  0.51100000000E-03 0. -1.
    9900012    2    1    2    0    0 -0.23943122565E+02 -0.35504197970E+02 -0.13974707983E+02  0.46142315913E+02  0.99999831437E+01 0.  0.
        -12    1    1    2    0    0  0.23943122565E+02  0.35504197970E+02  0.13974707983E+02  0.45045684087E+02  0.00000000000E+00 0.  1.
         11    1    3    3    0    0 -0.11858583888E+01 -0.85220726934E+00  0.66088915909E+00  0.16029011479E+01  0.51100000000E-03 0. -1.
        -11    1    3    3    0    0 -0.78113754804E+01 -0.67950306342E+01 -0.23057473530E+01  0.10606908095E+02  0.51100000000E-03 0.  1.
         12    1    3    3    0    0 -0.14945888696E+02 -0.27856960067E+02 -0.12329849789E+02  0.33932506670E+02  0.00000000000E+00 0. -1.
</event>
<event>
 7    1  0.3910495E-008  0.4614232E+02  0.7816164E-02  0.1320468E+00
        -11   -1    0    0    0    0  0.00000000000E+00  0.00000000000E+00  0.45593999997E+02  0.45594000000E+02  0.51100000000E-03 0. -1.
         11   -1    0    0    0    0 -0.00000000000E+00 -0.00000000000E+00 -0.45593999997E+02  0.45594000000E+02  0.51100000000E-03 0.  1.
    9900012    2    1    2    0    0 -0.34041021615E+02  0.19796517643E+02  0.21872819557E+02  0.46142317646E+02  0.99999989487E+01 0.  0.
        -12    1    1    2    0    0  0.34041021615E+02 -0.19796517643E+02 -0.21872819557E+02  0.45045682354E+02  0.00000000000E+00 0.  1.
         11    1    3    3    0    0 -0.14046359459E+02  0.68846643338E+01  0.12448767623E+02  0.19991764120E+02  0.51100000000E-03 0. -1.
        -11    1    3    3    0    0 -0.21252271945E+00 -0.46349600602E+00  0.13090412424E+00  0.52643195643E+00  0.51100000000E-03 0.  1.
         12    1    3    3    0    0 -0.19782139436E+02  0.13375349316E+02  0.92931478101E+01  0.25624121569E+02  0.00000000000E+00 0. -1.
</event>
<event>
 7    1  0.3910495E-008  0.4614232E+02  0.7816164E-02  0.1320468E+00
        -11   -1    0    0    0    0  0.00000000000E+00  0.00000000000E+00  0.45593999997E+02  0.45594000000E+02  0.51100000000E-03 0. -1.
         11   -1    0    0    0    0 -0.00000000000E+00 -0.00000000000E+00 -0.45593999997E+02  0.45594000000E+02  0.51100000000E-03 0.  1.
    9900012    2    1    2    0    0 -0.98093323171E+01  0.31513441830E+02  0.30656050584E+02  0.46142318144E+02  0.10000003491E+02 0.  0.
        -12    1    1    2    0    0  0.98093323171E+01 -0.31513441830E+02 -0.30656050584E+02  0.45045681856E+02  0.00000000000E+00 0.  1.
         11    1    3    3    0    0  0.87815315813E+00  0.87618181103E+01  0.80329453759E+01  0.11919262613E+02  0.51100000000E-03 0. -1.
        -11    1    3    3    0    0 -0.72580050384E+01  0.19810227162E+02  0.17682402726E+02  0.27528005808E+02  0.51100000000E-03 0.  1.
        -12    1    3    3    0    0 -0.34294804368E+01  0.29413965582E+01  0.49407024817E+01  0.66950497229E+01  0.00000000000E+00 0.  1.
</event>
<event>
 7    1  0.3910495E-008  0.4614232E+02  0.7816164E-02  0.1320468E+00
        -11   -1    0    0    0    0  0.00000000000E+00  0.00000000000E+00  0.45593999997E+02  0.45594000000E+02  0.51100000000E-03 0.  1.
         11   -1    0    0    0    0 -0.00000000000E+00 -0.00000000000E+00 -0.45593999997E+02  0.45594000000E+02  0.51100000000E-03 0. -1.
    9900012    2    1    2    0    0 -0.27382190716E+00 -0.44990801934E+02 -0.22060144018E+01  0.46142315005E+02  0.99999748663E+01 0.  0.
        -12    1    1    2    0    0  0.27382190716E+00  0.44990801934E+02  0.22060144018E+01  0.45045684995E+02  0.00000000000E+00 0.  1.
         11    1    3    3    0    0  0.12514328685E+01 -0.27746945499E+02 -0.14692757113E+01  0.27813986412E+02  0.51100000000E-03 0. -1.
        -11    1    3    3    0    0 -0.34742067317E+01 -0.64842857846E+01 -0.74179062635E+00  0.73936681116E+01  0.51100000000E-03 0.  1.
         12    1    3    3    0    0  0.19489519561E+01 -0.10759570650E+02  0.50519358029E-02  0.10934660481E+02  0.00000000000E+00 0. -1.
</event>
<event>
 7    1  0.3910495E-008  0.4614232E+02  0.7816164E-02  0.1320468E+00
        -11   -1    0    0    0    0  0.00000000000E+00  0.00000000000E+00  0.45593999997E+02  0.45594000000E+02  0.51100000000E-03 0.  1.
         11   -1    0    0    0    0 -0.00000000000E+00 -0.00000000000E+00 -0.45593999997E+02  0.45594000000E+02  0.51100000000E-03 0. -1.
    9900012    2    1    2    0    0  0.26722506476E+02 -0.33897919804E+02 -0.12882241975E+02  0.46142317880E+02  0.10000001081E+02 0.  0.
        -12    1    1    2    0    0 -0.26722506476E+02  0.33897919804E+02  0.12882241975E+02  0.45045682120E+02  0.00000000000E+00 0.  1.
         11    1    3    3    0    0  0.43821361153E+01 -0.11205052417E+02 -0.55470754293E+01  0.13248636257E+02  0.51100000000E-03 0. -1.
        -11    1    3    3    0    0  0.10019983176E+02 -0.12766826946E+02 -0.42103300323E+01  0.16766598116E+02  0.51100000000E-03 0.  1.
        -12    1    3    3    0    0  0.12320387184E+02 -0.99260404410E+01 -0.31248365131E+01  0.16127083507E+02  0.00000000000E+00 0.  1.
</event>
<event>
 7    1  0.3910495E-008  0.4614232E+02  0.7816164E-02  0.1320468E+00
        -11   -1    0    0    0    0  0.00000000000E+00  0.00000000000E+00  0.45593999997E+02  0.45594000000E+02  0.51100000000E-03 0.  1.
         11   -1    0    0    0    0 -0.00000000000E+00 -0.00000000000E+00 -0.45593999997E+02  0.45594000000E+02  0.51100000000E-03 0. -1.
    9900012    2    1    2    0    0 -0.27992314587E+02  0.56387766124E+01 -0.34838885904E+02  0.46142318202E+02  0.10000004018E+02 0.  0.
        -12    1    1    2    0    0  0.27992314587E+02 -0.56387766124E+01  0.34838885904E+02  0.45045681798E+02  0.00000000000E+00 0.  1.
         11    1    3    3    0    0 -0.11197269506E+02  0.71551041504E+00 -0.14295525748E+02  0.18172860430E+02  0.51100000000E-03 0. -1.
        -11    1    3    3    0    0 -0.45232095306E+00 -0.13203380923E+01 -0.87979624515E+00  0.16498268444E+01  0.51100000000E-03 0.  1.
        -12    1    3    3    0    0 -0.16342724128E+02  0.62436042897E+01 -0.19663563911E+02  0.26319630927E+02  0.00000000000E+00 0.  1.
</event>
<event>
 7    1  0.3910495E-008  0.4614232E+02  0.7816164E-02  0.1320468E+00
        -11   -1    0    0    0    0  0.00000000000E+00  0.00000000000E+00  0.45593999997E+02  0.45594000000E+02  0.51100000000E-03 0. -1.
         11   -1    0    0    0    0 -0.00000000000E+00 -0.00000000000E+00 -0.45593999997E+02  0.45594000000E+02  0.51100000000E-03 0.  1.
    9900012    2    1    2    0    0  0.14203134130E+02 -0.40373570953E+02  0.14048456837E+02  0.46142318852E+02  0.10000009944E+02 0.  0.
        -12    1    1    2    0    0 -0.14203134130E+02  0.40373570953E+02 -0.14048456837E+02  0.45045681148E+02  0.00000000000E+00 0.  1.
         11    1    3    3    0    0  0.13113108635E+02 -0.32713974848E+02  0.11966037772E+02  0.37220207262E+02  0.51100000000E-03 0. -1.
        -11    1    3    3    0    0 -0.49711007853E+00 -0.63686925322E+00  0.14937617559E+01  0.16982477206E+01  0.51100000000E-03 0.  1.
        -12    1    3    3    0    0  0.15871355733E+01 -0.70227268521E+01  0.58865730894E+00  0.72238638688E+01  0.00000000000E+00 0.  1.
</event>
<event>
 7    1  0.3910495E-008  0.4614232E+02  0.7816164E-02  0.1320468E+00
        -11   -1    0    0    0    0  0.00000000000E+00  0.00000000000E+00  0.45593999997E+02  0.45594000000E+02  0.51100000000E-03 0. -1.
         11   -1    0    0    0    0 -0.00000000000E+00 -0.00000000000E+00 -0.45593999997E+02  0.45594000000E+02  0.51100000000E-03 0.  1.
    9900012    2    1    2    0    0  0.30545481346E+02 -0.10698798059E+02  0.31330858741E+02  0.46142318520E+02  0.10000006919E+02 0.  0.
        -12    1    1    2    0    0 -0.30545481346E+02  0.10698798059E+02 -0.31330858741E+02  0.45045681480E+02  0.00000000000E+00 0.  1.
         11    1    3    3    0    0  0.74322937743E+01 -0.36472424261E+01  0.44267199458E+01  0.93881424043E+01  0.51100000000E-03 0. -1.
        -11    1    3    3    0    0  0.11130120092E+02 -0.26176230601E+01  0.80693428999E+01  0.13994492447E+02  0.51100000000E-03 0.  1.
        -12    1    3    3    0    0  0.11983067479E+02 -0.44339325727E+01  0.18834795895E+02  0.22759683669E+02  0.00000000000E+00 0.  1.
</event>
<event>
 7    1  0.4919904E-008  0.4614232E+02  0.7816164E-02  0.1320468E+00
        -11   -1    0    0    0    0  0.00000000000E+00  0.00000000000E+00  0.45593999997E+02  0.45594000000E+02  0.51100000000E-03 0. -1.
         11   -1    0    0    0    0 -0.00000000000E+00 -0.00000000000E+00 -0.45593999997E+02  0.45594000000E+02  0.51100000000E-03 0.  1.
    9900012    2    1    2    0    0  0.23292554920E+01  0.22514076958E+02  0.38946173902E+02  0.46142317032E+02  0.99999933547E+01 0.  0.
        -12    1    1    2    0    0 -0.23292554920E+01 -0.22514076958E+02 -0.38946173902E+02  0.45045682968E+02  0.00000000000E+00 0.  1.
         11    1    3    3    0    0 -0.13590859919E+01  0.16070500590E+01  0.48498625430E+01  0.52868602755E+01  0.51100000000E-03 0. -1.
        -11    1    3    3    0    0 -0.20134889496E+01  0.26703145107E+01  0.61699526796E+01  0.70180505603E+01  0.51100000000E-03 0.  1.
         12    1    3    3    0    0  0.57018304335E+01  0.18236712389E+02  0.27926358679E+02  0.33837406197E+02  0.00000000000E+00 0. -1.
</event>
<event>
 7    1  0.3910495E-008  0.4614232E+02  0.7816164E-02  0.1320468E+00
        -11   -1    0    0    0    0  0.00000000000E+00  0.00000000000E+00  0.45593999997E+02  0.45594000000E+02  0.51100000000E-03 0.  1.
         11   -1    0    0    0    0 -0.00000000000E+00 -0.00000000000E+00 -0.45593999997E+02  0.45594000000E+02  0.51100000000E-03 0. -1.
    9900012    2    1    2    0    0  0.29293228591E+02 -0.22653000276E+02 -0.25648816529E+02  0.46142318163E+02  0.10000003664E+02 0.  0.
        -12    1    1    2    0    0 -0.29293228591E+02  0.22653000276E+02  0.25648816529E+02  0.45045681837E+02  0.00000000000E+00 0.  1.
         11    1    3    3    0    0  0.12101920083E+02 -0.14218889258E+02 -0.12125448084E+02  0.22263417818E+02  0.51100000000E-03 0.  1.
        -11    1    3    3    0    0  0.49240899701E+01 -0.34793856463E+01 -0.66269023519E+01  0.89592757269E+01  0.51100000000E-03 0. -1.
         12    1    3    3    0    0  0.12267218538E+02 -0.49547253718E+01 -0.68964660934E+01  0.14919624618E+02  0.00000000000E+00 0. -1.
</event>
<event>
 7    1  0.3910495E-008  0.4614232E+02  0.7816164E-02  0.1320468E+00
        -11   -1    0    0    0    0  0.00000000000E+00  0.00000000000E+00  0.45593999997E+02  0.45594000000E+02  0.51100000000E-03 0.  1.
         11   -1    0    0    0    0 -0.00000000000E+00 -0.00000000000E+00 -0.45593999997E+02  0.45594000000E+02  0.51100000000E-03 0. -1.
    9900012    2    1    2    0    0 -0.10502547069E+02 -0.33955384759E+02 -0.27673849859E+02  0.46142316354E+02  0.99999871705E+01 0.  0.
        -12    1    1    2    0    0  0.10502547069E+02  0.33955384759E+02  0.27673849859E+02  0.45045683646E+02  0.00000000000E+00 0.  1.
         11    1    3    3    0    0 -0.55647989525E+01 -0.25069369150E+02 -0.22622452713E+02  0.34223027686E+02  0.51100000000E-03 0. -1.
        -11    1    3    3    0    0 -0.25328532104E+01 -0.13446290098E+01 -0.16022462847E+01  0.32848996907E+01  0.51100000000E-03 0.  1.
        -12    1    3    3    0    0 -0.24048949061E+01 -0.75413865999E+01 -0.34491508608E+01  0.86343889777E+01  0.00000000000E+00 0.  1.
</event>
<event>
 7    1  0.3910495E-008  0.4614232E+02  0.7816164E-02  0.1320468E+00
        -11   -1    0    0    0    0  0.00000000000E+00  0.00000000000E+00  0.45593999997E+02  0.45594000000E+02  0.51100000000E-03 0. -1.
         11   -1    0    0    0    0 -0.00000000000E+00 -0.00000000000E+00 -0.45593999997E+02  0.45594000000E+02  0.51100000000E-03 0.  1.
    9900012    2    1    2    0    0 -0.47524385950E+01  0.43917527975E+02  0.88192202014E+01  0.46142316733E+02  0.99999906273E+01 0.  0.
        -12    1    1    2    0    0  0.47524385950E+01 -0.43917527975E+02 -0.88192202014E+01  0.45045683267E+02  0.00000000000E+00 0.  1.
         11    1    3    3    0    0 -0.24900788510E+00  0.24759853169E+02  0.85250835279E+01  0.26187580707E+02  0.51100000000E-03 0. -1.
        -11    1    3    3    0    0 -0.39786558432E+01  0.98548956751E+01  0.42541895110E+00  0.10636242411E+02  0.51100000000E-03 0.  1.
        -12    1    3    3    0    0 -0.52477486665E+00  0.93027791306E+01 -0.13128227755E+00  0.93184936148E+01  0.00000000000E+00 0.  1.
</event>
<event>
 7    1  0.3910495E-008  0.4614232E+02  0.7816164E-02  0.1320468E+00
        -11   -1    0    0    0    0  0.00000000000E+00  0.00000000000E+00  0.45593999997E+02  0.45594000000E+02  0.51100000000E-03 0.  1.
         11   -1    0    0    0    0 -0.00000000000E+00 -0.00000000000E+00 -0.45593999997E+02  0.45594000000E+02  0.51100000000E-03 0. -1.
    9900012    2    1    2    0    0 -0.70075513810E+01 -0.32676331663E+02 -0.30203723854E+02  0.46142319164E+02  0.10000012795E+02 0.  0.
        -12    1    1    2    0    0  0.70075513810E+01  0.32676331663E+02  0.30203723854E+02  0.45045680836E+02  0.00000000000E+00 0.  1.
         11    1    3    3    0    0 -0.48841593488E+01 -0.24538910583E+02 -0.23608570803E+02  0.34400258150E+02  0.51100000000E-03 0. -1.
        -11    1    3    3    0    0  0.46851478272E+00 -0.62040037427E+01 -0.55677171489E+01  0.83491702015E+01  0.51100000000E-03 0.  1.
        -12    1    3    3    0    0 -0.25919068150E+01 -0.19334173370E+01 -0.10274359022E+01  0.33928908131E+01  0.00000000000E+00 0.  1.
</event>
<event>
 7    1  0.3910495E-008  0.4614232E+02  0.7816164E-02  0.1320468E+00
        -11   -1    0    0    0    0  0.00000000000E+00  0.00000000000E+00  0.45593999997E+02  0.45594000000E+02  0.51100000000E-03 0.  1.
         11   -1    0    0    0    0 -0.00000000000E+00 -0.00000000000E+00 -0.45593999997E+02  0.45594000000E+02  0.51100000000E-03 0. -1.
    9900012    2    1    2    0    0 -0.36671671335E+02 -0.21537457493E+01 -0.26070354296E+02  0.46142317939E+02  0.10000001618E+02 0.  0.
        -12    1    1    2    0    0  0.36671671335E+02  0.21537457493E+01  0.26070354296E+02  0.45045682061E+02  0.00000000000E+00 0.  1.
         11    1    3    3    0    0 -0.27921101234E+02 -0.11436935254E+00 -0.15498127702E+02  0.31934196984E+02  0.51100000000E-03 0. -1.
        -11    1    3    3    0    0 -0.63651515581E+01 -0.21252417556E+01 -0.57895584666E+01  0.88628886023E+01  0.51100000000E-03 0.  1.
         12    1    3    3    0    0 -0.23854185431E+01  0.85865358852E-01 -0.47826681275E+01  0.53452323526E+01  0.00000000000E+00 0. -1.
</event>
<event>
 7    1  0.3910495E-008  0.4614232E+02  0.7816164E-02  0.1320468E+00
        -11   -1    0    0    0    0  0.00000000000E+00  0.00000000000E+00  0.45593999997E+02  0.45594000000E+02  0.51100000000E-03 0.  1.
         11   -1    0    0    0    0 -0.00000000000E+00 -0.00000000000E+00 -0.45593999997E+02  0.45594000000E+02  0.51100000000E-03 0. -1.
    9900012    2    1    2    0    0 -0.42130345184E+02  0.15505427681E+02  0.37052973526E+01  0.46142317617E+02  0.99999986824E+01 0.  0.
        -12    1    1    2    0    0  0.42130345184E+02 -0.15505427681E+02 -0.37052973526E+01  0.45045682383E+02  0.00000000000E+00 0.  1.
         11    1    3    3    0    0 -0.40117676715E+02  0.16285473248E+02  0.40203298980E+01  0.43483418410E+02  0.51100000000E-03 0. -1.
        -11    1    3    3    0    0  0.40480401105E-01  0.24297845930E-01 -0.44736483551E+00  0.44984953636E+00  0.51100000000E-03 0.  1.
         12    1    3    3    0    0 -0.20531488706E+01 -0.80434341243E+00  0.13233229010E+00  0.22090496701E+01  0.00000000000E+00 0. -1.
</event>
<event>
 7    1  0.3910495E-008  0.4614232E+02  0.7816164E-02  0.1320468E+00
        -11   -1    0    0    0    0  0.00000000000E+00  0.00000000000E+00  0.45593999997E+02  0.45594000000E+02  0.51100000000E-03 0.  1.
         11   -1    0    0    0    0 -0.00000000000E+00 -0.00000000000E+00 -0.45593999997E+02  0.45594000000E+02  0.51100000000E-03 0. -1.
    9900012    2    1    2    0    0  0.13036934911E+02 -0.37047253138E+02 -0.22060211737E+02  0.46142316757E+02  0.99999908461E+01 0.  0.
        -12    1    1    2    0    0 -0.13036934911E+02  0.37047253138E+02  0.22060211737E+02  0.45045683243E+02  0.00000000000E+00 0.  1.
         11    1    3    3    0    0  0.45819182022E+01 -0.57012825900E+01 -0.48877511042E+01  0.87970852389E+01  0.51100000000E-03 0. -1.
        -11    1    3    3    0    0  0.83430363086E+01 -0.18252588891E+02 -0.10397170262E+02  0.22602309745E+02  0.51100000000E-03 0.  1.
        -12    1    3    3    0    0  0.11198040003E+00 -0.13093381657E+02 -0.67752903707E+01  0.14742921774E+02  0.00000000000E+00 0.  1.
</event>
<event>
 7    1  0.3910495E-008  0.4614231E+02  0.7816164E-02  0.1320468E+00
        -11   -1    0    0    0    0  0.00000000000E+00  0.00000000000E+00  0.45593999997E+02  0.45594000000E+02  0.51100000000E-03 0.  1.
         11   -1    0    0    0    0 -0.00000000000E+00 -0.00000000000E+00 -0.45593999997E+02  0.45594000000E+02  0.51100000000E-03 0. -1.
    9900012    2    1    2    0    0  0.31663376025E+02 -0.85447112151E+01 -0.30879319848E+02  0.46142313577E+02  0.99999618458E+01 0.  0.
        -12    1    1    2    0    0 -0.31663376025E+02  0.85447112151E+01  0.30879319848E+02  0.45045686423E+02  0.00000000000E+00 0.  1.
         11    1    3    3    0    0  0.14903040391E+02 -0.23770644809E+01 -0.99407485232E+01  0.18071234875E+02  0.51100000000E-03 0. -1.
        -11    1    3    3    0    0  0.12912231204E+02 -0.22003545433E+01 -0.15811996877E+02  0.20532572178E+02  0.51100000000E-03 0.  1.
         12    1    3    3    0    0  0.38481044298E+01 -0.39672921908E+01 -0.51265744483E+01  0.75385065234E+01  0.00000000000E+00 0. -1.
</event>
<event>
 7    1  0.3910495E-008  0.4614232E+02  0.7816164E-02  0.1320468E+00
        -11   -1    0    0    0    0  0.00000000000E+00  0.00000000000E+00  0.45593999997E+02  0.45594000000E+02  0.51100000000E-03 0. -1.
         11   -1    0    0    0    0 -0.00000000000E+00 -0.00000000000E+00 -0.45593999997E+02  0.45594000000E+02  0.51100000000E-03 0.  1.
    9900012    2    1    2    0    0  0.41070286124E+02 -0.16437006214E+02 -0.84952941794E+01  0.46142316535E+02  0.99999888209E+01 0.  0.
        -12    1    1    2    0    0 -0.41070286124E+02  0.16437006214E+02  0.84952941794E+01  0.45045683465E+02  0.00000000000E+00 0.  1.
         11    1    3    3    0    0  0.10550022664E+02 -0.79386626916E+00 -0.41260345970E+00  0.10587891374E+02  0.51100000000E-03 0. -1.
        -11    1    3    3    0    0  0.10987778301E+02 -0.40009825792E+01 -0.45267279545E+01  0.12539154670E+02  0.51100000000E-03 0.  1.
        -12    1    3    3    0    0  0.19532485159E+02 -0.11642157366E+02 -0.35559627652E+01  0.23015270492E+02  0.00000000000E+00 0.  1.
</event>
<event>
 7    1  0.3910495E-008  0.4614232E+02  0.7816164E-02  0.1320468E+00
        -11   -1    0    0    0    0  0.00000000000E+00  0.00000000000E+00  0.45593999997E+02  0.45594000000E+02  0.51100000000E-03 0. -1.
         11   -1    0    0    0    0 -0.00000000000E+00 -0.00000000000E+00 -0.45593999997E+02  0.45594000000E+02  0.51100000000E-03 0.  1.
    9900012    2    1    2    0    0 -0.17719349609E+02 -0.15568051460E+02  0.38376729433E+02  0.46142323861E+02  0.10000055628E+02 0.  0.
        -12    1    1    2    0    0  0.17719349609E+02  0.15568051460E+02 -0.38376729433E+02  0.45045676139E+02  0.00000000000E+00 0.  1.
         11    1    3    3    0    0 -0.16187942104E+02 -0.12869054344E+02  0.26947309769E+02  0.33967919178E+02  0.51100000000E-03 0. -1.
        -11    1    3    3    0    0 -0.30102615157E+00  0.58896176013E+00  0.14017298941E+01  0.15499482753E+01  0.51100000000E-03 0.  1.
        -12    1    3    3    0    0 -0.12303813535E+01 -0.32879588761E+01  0.10027689770E+02  0.10624456408E+02  0.00000000000E+00 0.  1.
</event>
<event>
 7    1  0.3910495E-008  0.4614232E+02  0.7816164E-02  0.1320468E+00
        -11   -1    0    0    0    0  0.00000000000E+00  0.00000000000E+00  0.45593999997E+02  0.45594000000E+02  0.51100000000E-03 0.  1.
         11   -1    0    0    0    0 -0.00000000000E+00 -0.00000000000E+00 -0.45593999997E+02  0.45594000000E+02  0.51100000000E-03 0. -1.
    9900012    2    1    2    0    0 -0.11822050905E+02 -0.29448735575E+02 -0.31970682593E+02  0.46142318076E+02  0.10000002870E+02 0.  0.
        -12    1    1    2    0    0  0.11822050905E+02  0.29448735575E+02  0.31970682593E+02  0.45045681924E+02  0.00000000000E+00 0.  1.
         11    1    3    3    0    0 -0.77361590472E+01 -0.15696418330E+02 -0.18654297289E+02  0.25577500128E+02  0.51100000000E-03 0.  1.
        -11    1    3    3    0    0 -0.46108215091E+01 -0.14205436894E+02 -0.13009120453E+02  0.19806345639E+02  0.51100000000E-03 0. -1.
         12    1    3    3    0    0  0.52492965125E+00  0.45311964898E+00 -0.30726485063E+00  0.75847230898E+00  0.00000000000E+00 0. -1.
</event>
<event>
 7    1  0.3910495E-008  0.4614232E+02  0.7816164E-02  0.1320468E+00
        -11   -1    0    0    0    0  0.00000000000E+00  0.00000000000E+00  0.45593999997E+02  0.45594000000E+02  0.51100000000E-03 0.  1.
         11   -1    0    0    0    0 -0.00000000000E+00 -0.00000000000E+00 -0.45593999997E+02  0.45594000000E+02  0.51100000000E-03 0. -1.
    9900012    2    1    2    0    0 -0.24431682299E+02  0.36821394143E+02  0.87402089269E+01  0.46142318535E+02  0.10000007056E+02 0.  0.
        -12    1    1    2    0    0  0.24431682299E+02 -0.36821394143E+02 -0.87402089269E+01  0.45045681465E+02  0.00000000000E+00 0.  1.
         11    1    3    3    0    0 -0.15576968979E+02  0.21533094868E+02  0.18068804561E+01  0.26637960778E+02  0.51100000000E-03 0. -1.
        -11    1    3    3    0    0 -0.38497333961E+01  0.10935005738E+02  0.42071953038E+01  0.12332691932E+02  0.51100000000E-03 0.  1.
         12    1    3    3    0    0 -0.50049799235E+01  0.43532935370E+01  0.27261331670E+01  0.71716658245E+01  0.00000000000E+00 0. -1.
</event>
<event>
 7    1  0.3910495E-008  0.4614232E+02  0.7816164E-02  0.1320468E+00
        -11   -1    0    0    0    0  0.00000000000E+00  0.00000000000E+00  0.45593999997E+02  0.45594000000E+02  0.51100000000E-03 0.  1.
         11   -1    0    0    0    0 -0.00000000000E+00 -0.00000000000E+00 -0.45593999997E+02  0.45594000000E+02  0.51100000000E-03 0. -1.
    9900012    2    1    2    0    0 -0.17922654352E+02 -0.24715660289E+02 -0.33121414049E+02  0.46142317952E+02  0.10000001745E+02 0.  0.
        -12    1    1    2    0    0  0.17922654352E+02  0.24715660289E+02  0.33121414049E+02  0.45045682048E+02  0.00000000000E+00 0.  1.
         11    1    3    3    0    0 -0.12578094885E+02 -0.14695629972E+02 -0.23728883361E+02  0.30614211031E+02  0.51100000000E-03 0. -1.
        -11    1    3    3    0    0 -0.46872517284E+00 -0.82691006659E+00  0.58120902272E+00  0.11141309327E+01  0.51100000000E-03 0.  1.
        -12    1    3    3    0    0 -0.48758342944E+01 -0.91931202503E+01 -0.99737397106E+01  0.14413975989E+02  0.00000000000E+00 0.  1.
</event>
<event>
 7    1  0.3910495E-008  0.4614232E+02  0.7816164E-02  0.1320468E+00
        -11   -1    0    0    0    0  0.00000000000E+00  0.00000000000E+00  0.45593999997E+02  0.45594000000E+02  0.51100000000E-03 0.  1.
         11   -1    0    0    0    0 -0.00000000000E+00 -0.00000000000E+00 -0.45593999997E+02  0.45594000000E+02  0.51100000000E-03 0. -1.
    9900012    2    1    2    0    0 -0.12801213746E+02  0.26876406288E+02 -0.33806822155E+02  0.46142317493E+02  0.99999975573E+01 0.  0.
        -12    1    1    2    0    0  0.12801213746E+02 -0.26876406288E+02  0.33806822155E+02  0.45045682507E+02  0.00000000000E+00 0.  1.
         11    1    3    3    0    0 -0.76074530962E+01  0.15137344217E+02 -0.16581188548E+02  0.23705449721E+02  0.51100000000E-03 0. -1.
        -11    1    3    3    0    0 -0.61045194927E+01  0.84131071362E+01 -0.99678344588E+01  0.14401501796E+02  0.51100000000E-03 0.  1.
         12    1    3    3    0    0  0.91075884319E+00  0.33259549340E+01 -0.72577991480E+01  0.80353659759E+01  0.00000000000E+00 0. -1.
</event>
<event>
 7    1  0.3910495E-008  0.4614232E+02  0.7816164E-02  0.1320468E+00
        -11   -1    0    0    0    0  0.00000000000E+00  0.00000000000E+00  0.45593999997E+02  0.45594000000E+02  0.51100000000E-03 0. -1.
         11   -1    0    0    0    0 -0.00000000000E+00 -0.00000000000E+00 -0.45593999997E+02  0.45594000000E+02  0.51100000000E-03 0.  1.
    9900012    2    1    2    0    0  0.20201831775E+02 -0.12198550130E+02  0.38369191959E+02  0.46142317366E+02  0.99999964005E+01 0.  0.
        -12    1    1    2    0    0 -0.20201831775E+02  0.12198550130E+02 -0.38369191959E+02  0.45045682634E+02  0.00000000000E+00 0.  1.
         11    1    3    3    0    0  0.11706010308E+02 -0.10515486448E+02  0.25467462570E+02  0.29936562638E+02  0.51100000000E-03 0. -1.
        -11    1    3    3    0    0  0.13749153045E+01 -0.54251451860E+00  0.61557471172E+01  0.63307137773E+01  0.51100000000E-03 0.  1.
         12    1    3    3    0    0  0.71209061629E+01 -0.11405491634E+01  0.67459822719E+01  0.98750409513E+01  0.00000000000E+00 0. -1.
</event>
<event>
 7    1  0.3910495E-008  0.4614232E+02  0.7816164E-02  0.1320468E+00
        -11   -1    0    0    0    0  0.00000000000E+00  0.00000000000E+00  0.45593999997E+02  0.45594000000E+02  0.51100000000E-03 0.  1.
         11   -1    0    0    0    0 -0.00000000000E+00 -0.00000000000E+00 -0.45593999997E+02  0.45594000000E+02  0.51100000000E-03 0. -1.
    9900012    2    1    2    0    0  0.24248284432E+02 -0.18969992083E+02 -0.32882724224E+02  0.46142318188E+02  0.10000003895E+02 0.  0.
        -12    1    1    2    0    0 -0.24248284432E+02  0.18969992083E+02  0.32882724224E+02  0.45045681812E+02  0.00000000000E+00 0.  1.
         11    1    3    3    0    0  0.71799211134E+01 -0.19138879228E+01 -0.48718497178E+01  0.88853336522E+01  0.51100000000E-03 0. -1.
        -11    1    3    3    0    0  0.41952742069E+01 -0.19927640819E+01 -0.67572492324E+01  0.81995031439E+01  0.51100000000E-03 0.  1.
        -12    1    3    3    0    0  0.12873089111E+02 -0.15063340079E+02 -0.21253625273E+02  0.29057481392E+02  0.00000000000E+00 0.  1.
</event>
<event>
 7    1  0.3910495E-008  0.4614232E+02  0.7816164E-02  0.1320468E+00
        -11   -1    0    0    0    0  0.00000000000E+00  0.00000000000E+00  0.45593999997E+02  0.45594000000E+02  0.51100000000E-03 0.  1.
         11   -1    0    0    0    0 -0.00000000000E+00 -0.00000000000E+00 -0.45593999997E+02  0.45594000000E+02  0.51100000000E-03 0. -1.
    9900012    2    1    2    0    0 -0.14835151033E+02  0.42171264775E+02  0.55332009805E+01  0.46142316611E+02  0.99999895095E+01 0.  0.
        -12    1    1    2    0    0  0.14835151033E+02 -0.42171264775E+02 -0.55332009805E+01  0.45045683389E+02  0.00000000000E+00 0.  1.
         11    1    3    3    0    0 -0.43868258243E+01  0.68740257019E+01  0.87667368952E+00  0.82015259057E+01  0.51100000000E-03 0. -1.
        -11    1    3    3    0    0 -0.10723588747E+02  0.35178308933E+02  0.53703827025E+01  0.37166514306E+02  0.51100000000E-03 0.  1.
        -12    1    3    3    0    0  0.27526353793E+00  0.11893014006E+00 -0.71385541158E+00  0.77427639908E+00  0.00000000000E+00 0.  1.
</event>
<event>
 7    1  0.3910495E-008  0.4614232E+02  0.7816164E-02  0.1320468E+00
        -11   -1    0    0    0    0  0.00000000000E+00  0.00000000000E+00  0.45593999997E+02  0.45594000000E+02  0.51100000000E-03 0.  1.
         11   -1    0    0    0    0 -0.00000000000E+00 -0.00000000000E+00 -0.45593999997E+02  0.45594000000E+02  0.51100000000E-03 0. -1.
    9900012    2    1    2    0    0  0.57789111098E-02  0.41185905558E+02 -0.18243755075E+02  0.46142318195E+02  0.10000003960E+02 0.  0.
        -12    1    1    2    0    0 -0.57789111098E-02 -0.41185905558E+02  0.18243755075E+02  0.45045681805E+02  0.00000000000E+00 0.  1.
         11    1    3    3    0    0  0.51316949429E+00  0.58714775769E+01 -0.43646162745E+01  0.73339939563E+01  0.51100000000E-03 0. -1.
        -11    1    3    3    0    0  0.13545480752E+01  0.40650632571E+01  0.58315660043E+00  0.43243047596E+01  0.51100000000E-03 0.  1.
         12    1    3    3    0    0 -0.18619386583E+01  0.31249364724E+02 -0.14462295401E+02  0.34484019479E+02  0.00000000000E+00 0. -1.
</event>
<event>
 7    1  0.3910495E-008  0.4614232E+02  0.7816164E-02  0.1320468E+00
        -11   -1    0    0    0    0  0.00000000000E+00  0.00000000000E+00  0.45593999997E+02  0.45594000000E+02  0.51100000000E-03 0. -1.
         11   -1    0    0    0    0 -0.00000000000E+00 -0.00000000000E+00 -0.45593999997E+02  0.45594000000E+02  0.51100000000E-03 0.  1.
    9900012    2    1    2    0    0 -0.41920508444E+02 -0.22036149685E+01  0.16337949992E+02  0.46142316998E+02  0.99999930445E+01 0.  0.
        -12    1    1    2    0    0  0.41920508444E+02  0.22036149685E+01 -0.16337949992E+02  0.45045683002E+02  0.00000000000E+00 0.  1.
         11    1    3    3    0    0 -0.21894819700E+01  0.70793613725E+00  0.32124079698E+01  0.39515275650E+01  0.51100000000E-03 0. -1.
        -11    1    3    3    0    0 -0.19557149522E+01  0.78411932901E-01 -0.31868924469E+00  0.19830613962E+01  0.51100000000E-03 0.  1.
        -12    1    3    3    0    0 -0.37775311522E+02 -0.29899630387E+01  0.13444231267E+02  0.40207728037E+02  0.00000000000E+00 0.  1.
</event>
<event>
 7    1  0.3910495E-008  0.4614232E+02  0.7816164E-02  0.1320468E+00
        -11   -1    0    0    0    0  0.00000000000E+00  0.00000000000E+00  0.45593999997E+02  0.45594000000E+02  0.51100000000E-03 0. -1.
         11   -1    0    0    0    0 -0.00000000000E+00 -0.00000000000E+00 -0.45593999997E+02  0.45594000000E+02  0.51100000000E-03 0.  1.
    9900012    2    1    2    0    0  0.30622671534E+02 -0.14105149963E+02  0.29873236532E+02  0.46142317318E+02  0.99999959612E+01 0.  0.
        -12    1    1    2    0    0 -0.30622671534E+02  0.14105149963E+02 -0.29873236532E+02  0.45045682682E+02  0.00000000000E+00 0.  1.
         11    1    3    3    0    0  0.48372364282E+01 -0.52430163517E+01  0.71755997525E+01  0.10118167265E+02  0.51100000000E-03 0. -1.
        -11    1    3    3    0    0  0.92926270270E+01 -0.32457336366E+01  0.12228233532E+02  0.15697687711E+02  0.51100000000E-03 0.  1.
         12    1    3    3    0    0  0.16492808079E+02 -0.56163999748E+01  0.10469403248E+02  0.20326462343E+02  0.00000000000E+00 0. -1.
</event>
<event>
 7    1  0.3910495E-008  0.4614232E+02  0.7816164E-02  0.1320468E+00
        -11   -1    0    0    0    0  0.00000000000E+00  0.00000000000E+00  0.45593999997E+02  0.45594000000E+02  0.51100000000E-03 0. -1.
         11   -1    0    0    0    0 -0.00000000000E+00 -0.00000000000E+00 -0.45593999997E+02  0.45594000000E+02  0.51100000000E-03 0.  1.
    9900012    2    1    2    0    0 -0.38568444886E+02  0.12254198313E+02  0.19784421363E+02  0.46142316012E+02  0.99999840511E+01 0.  0.
        -12    1    1    2    0    0  0.38568444886E+02 -0.12254198313E+02 -0.19784421363E+02  0.45045683988E+02  0.00000000000E+00 0.  1.
         11    1    3    3    0    0 -0.26615244913E+02  0.66767791222E+01  0.14613455903E+02  0.31088643182E+02  0.51100000000E-03 0. -1.
        -11    1    3    3    0    0  0.35697383500E+00 -0.20128792080E+00 -0.16964754996E+00  0.44353996242E+00  0.51100000000E-03 0.  1.
         12    1    3    3    0    0 -0.12310173808E+02  0.57787071120E+01  0.53406130106E+01  0.14610132867E+02  0.00000000000E+00 0. -1.
</event>
<event>
 7    1  0.3910495E-008  0.4614232E+02  0.7816164E-02  0.1320468E+00
        -11   -1    0    0    0    0  0.00000000000E+00  0.00000000000E+00  0.45593999997E+02  0.45594000000E+02  0.51100000000E-03 0. -1.
         11   -1    0    0    0    0 -0.00000000000E+00 -0.00000000000E+00 -0.45593999997E+02  0.45594000000E+02  0.51100000000E-03 0.  1.
    9900012    2    1    2    0    0 -0.35369035966E+02 -0.51598253821E+00  0.27890473328E+02  0.46142318236E+02  0.10000004330E+02 0.  0.
        -12    1    1    2    0    0  0.35369035966E+02  0.51598253821E+00 -0.27890473328E+02  0.45045681764E+02  0.00000000000E+00 0.  1.
         11    1    3    3    0    0 -0.74576106883E+00 -0.88328802598E+00  0.28984528587E+01  0.31204785761E+01  0.51100000000E-03 0. -1.
        -11    1    3    3    0    0 -0.15604583724E+02  0.22497242677E+01  0.93893558815E+01  0.18350048954E+02  0.51100000000E-03 0.  1.
         12    1    3    3    0    0 -0.19018691173E+02 -0.18824187799E+01  0.15602664588E+02  0.24671790706E+02  0.00000000000E+00 0. -1.
</event>
<event>
 7    1  0.3910495E-008  0.4614232E+02  0.7816164E-02  0.1320468E+00
        -11   -1    0    0    0    0  0.00000000000E+00  0.00000000000E+00  0.45593999997E+02  0.45594000000E+02  0.51100000000E-03 0.  1.
         11   -1    0    0    0    0 -0.00000000000E+00 -0.00000000000E+00 -0.45593999997E+02  0.45594000000E+02  0.51100000000E-03 0. -1.
    9900012    2    1    2    0    0  0.12934252396E+02  0.26643847305E+02 -0.33940002663E+02  0.46142320240E+02  0.10000022604E+02 0.  0.
        -12    1    1    2    0    0 -0.12934252396E+02 -0.26643847305E+02  0.33940002663E+02  0.45045679760E+02  0.00000000000E+00 0.  1.
         11    1    3    3    0    0  0.44734152520E+01  0.11546522176E+02 -0.11411906253E+02  0.16839394971E+02  0.51100000000E-03 0. -1.
        -11    1    3    3    0    0  0.55405546567E-01  0.71411889731E+01 -0.93197395148E+01  0.11741260350E+02  0.51100000000E-03 0.  1.
        -12    1    3    3    0    0  0.84054315970E+01  0.79561361559E+01 -0.13208356895E+02  0.17561664919E+02  0.00000000000E+00 0.  1.
</event>
<event>
 7    1  0.3910495E-008  0.4614232E+02  0.7816164E-02  0.1320468E+00
        -11   -1    0    0    0    0  0.00000000000E+00  0.00000000000E+00  0.45593999997E+02  0.45594000000E+02  0.51100000000E-03 0.  1.
         11   -1    0    0    0    0 -0.00000000000E+00 -0.00000000000E+00 -0.45593999997E+02  0.45594000000E+02  0.51100000000E-03 0. -1.
    9900012    2    1    2    0    0 -0.30267956007E+02  0.33358898431E+02 -0.38492300766E+00  0.46142318397E+02  0.10000005801E+02 0.  0.
        -12    1    1    2    0    0  0.30267956007E+02 -0.33358898431E+02  0.38492300766E+00  0.45045681603E+02  0.00000000000E+00 0.  1.
         11    1    3    3    0    0 -0.79836758002E+00 -0.61223012665E-01  0.56848447330E+00  0.98199486130E+00  0.51100000000E-03 0.  1.
        -11    1    3    3    0    0 -0.15043318626E+02  0.20949659087E+02  0.19790389415E+01  0.25867088096E+02  0.51100000000E-03 0. -1.
         12    1    3    3    0    0 -0.14426269800E+02  0.12470462357E+02 -0.29324464225E+01  0.19293235440E+02  0.00000000000E+00 0. -1.
</event>
<event>
 7    1  0.3910495E-008  0.4614232E+02  0.7816164E-02  0.1320468E+00
        -11   -1    0    0    0    0  0.00000000000E+00  0.00000000000E+00  0.45593999997E+02  0.45594000000E+02  0.51100000000E-03 0.  1.
         11   -1    0    0    0    0 -0.00000000000E+00 -0.00000000000E+00 -0.45593999997E+02  0.45594000000E+02  0.51100000000E-03 0. -1.
    9900012    2    1    2    0    0  0.22156792179E+02  0.21073295282E+02 -0.33077280333E+02  0.46142315546E+02  0.99999798049E+01 0.  0.
        -12    1    1    2    0    0 -0.22156792179E+02 -0.21073295282E+02  0.33077280333E+02  0.45045684454E+02  0.00000000000E+00 0.  1.
         11    1    3    3    0    0  0.12016387458E+02  0.92014077755E+01 -0.20685241972E+02  0.25630815599E+02  0.51100000000E-03 0. -1.
        -11    1    3    3    0    0  0.15794570035E+01  0.17442352369E+00 -0.26260841304E+00  0.16106121293E+01  0.51100000000E-03 0.  1.
        -12    1    3    3    0    0  0.85609477174E+01  0.11697463983E+02 -0.12129429948E+02  0.18900887818E+02  0.00000000000E+00 0.  1.
</event>
<event>
 7    1  0.3910495E-008  0.4614232E+02  0.7816164E-02  0.1320468E+00
        -11   -1    0    0    0    0  0.00000000000E+00  0.00000000000E+00  0.45593999997E+02  0.45594000000E+02  0.51100000000E-03 0. -1.
         11   -1    0    0    0    0 -0.00000000000E+00 -0.00000000000E+00 -0.45593999997E+02  0.45594000000E+02  0.51100000000E-03 0.  1.
    9900012    2    1    2    0    0  0.44205403169E+01 -0.39793468888E+01  0.44651283640E+02  0.46142317531E+02  0.99999979045E+01 0.  0.
        -12    1    1    2    0    0 -0.44205403169E+01  0.39793468888E+01 -0.44651283640E+02  0.45045682469E+02  0.00000000000E+00 0.  1.
         11    1    3    3    0    0 -0.21602398002E+01 -0.29845334151E+00  0.94453022679E+01  0.96937838631E+01  0.51100000000E-03 0. -1.
        -11    1    3    3    0    0  0.30861256944E+01  0.86143519797E+00  0.18782163994E+02  0.19053501699E+02  0.51100000000E-03 0.  1.
         12    1    3    3    0    0  0.34946544228E+01 -0.45423287452E+01  0.16423817378E+02  0.17395031970E+02  0.00000000000E+00 0. -1.
</event>
<event>
 7    1  0.3910495E-008  0.4614232E+02  0.7816164E-02  0.1320468E+00
        -11   -1    0    0    0    0  0.00000000000E+00  0.00000000000E+00  0.45593999997E+02  0.45594000000E+02  0.51100000000E-03 0.  1.
         11   -1    0    0    0    0 -0.00000000000E+00 -0.00000000000E+00 -0.45593999997E+02  0.45594000000E+02  0.51100000000E-03 0. -1.
    9900012    2    1    2    0    0 -0.13704674122E+02  0.39568115478E+02 -0.16603002890E+02  0.46142316964E+02  0.99999927269E+01 0.  0.
        -12    1    1    2    0    0  0.13704674122E+02 -0.39568115478E+02  0.16603002890E+02  0.45045683036E+02  0.00000000000E+00 0.  1.
         11    1    3    3    0    0 -0.49167488319E+01  0.59566253631E+01 -0.13519676747E+01  0.78411492555E+01  0.51100000000E-03 0. -1.
        -11    1    3    3    0    0 -0.39480099315E+01  0.66464722381E+01 -0.36812059830E+01  0.85623392470E+01  0.51100000000E-03 0.  1.
        -12    1    3    3    0    0 -0.48399153584E+01  0.26965017877E+02 -0.11569829232E+02  0.29738828461E+02  0.00000000000E+00 0.  1.
</event>
<event>
 7    1  0.3910495E-008  0.4614232E+02  0.7816164E-02  0.1320468E+00
        -11   -1    0    0    0    0  0.00000000000E+00  0.00000000000E+00  0.45593999997E+02  0.45594000000E+02  0.51100000000E-03 0.  1.
         11   -1    0    0    0    0 -0.00000000000E+00 -0.00000000000E+00 -0.45593999997E+02  0.45594000000E+02  0.51100000000E-03 0. -1.
    9900012    2    1    2    0    0 -0.27285305302E+02  0.35428685530E+02  0.54252894164E+01  0.46142318642E+02  0.10000008032E+02 0.  0.
        -12    1    1    2    0    0  0.27285305302E+02 -0.35428685530E+02 -0.54252894164E+01  0.45045681358E+02  0.00000000000E+00 0.  1.
         11    1    3    3    0    0 -0.36826225732E+01  0.11845238183E+02  0.23707668809E+01  0.12629010749E+02  0.51100000000E-03 0.  1.
        -11    1    3    3    0    0 -0.11964569255E+02  0.11697582790E+02  0.18546500649E+01  0.16835203822E+02  0.51100000000E-03 0. -1.
        -12    1    3    3    0    0 -0.11638113473E+02  0.11885864556E+02  0.11998724706E+01  0.16678104071E+02  0.00000000000E+00 0.  1.
</event>
<event>
 7    1  0.3910495E-008  0.4614232E+02  0.7816164E-02  0.1320468E+00
        -11   -1    0    0    0    0  0.00000000000E+00  0.00000000000E+00  0.45593999997E+02  0.45594000000E+02  0.51100000000E-03 0. -1.
         11   -1    0    0    0    0 -0.00000000000E+00 -0.00000000000E+00 -0.45593999997E+02  0.45594000000E+02  0.51100000000E-03 0.  1.
    9900012    2    1    2    0    0  0.16505263549E+02  0.33289572290E+02  0.25465548420E+02  0.46142317583E+02  0.99999983776E+01 0.  0.
        -12    1    1    2    0    0 -0.16505263549E+02 -0.33289572290E+02 -0.25465548420E+02  0.45045682417E+02  0.00000000000E+00 0.  1.
         11    1    3    3    0    0  0.74153694892E+01  0.14596719296E+02  0.13314007855E+02  0.21102481472E+02  0.51100000000E-03 0. -1.
        -11    1    3    3    0    0  0.49667944873E+01  0.16389699880E+02  0.10173080187E+02  0.19919409389E+02  0.51100000000E-03 0.  1.
        -12    1    3    3    0    0  0.41230995724E+01  0.23031531135E+01  0.19784603782E+01  0.51204267221E+01  0.00000000000E+00 0.  1.
</event>
<event>
 7    1  0.3910495E-008  0.4614232E+02  0.7816164E-02  0.1320468E+00
        -11   -1    0    0    0    0  0.00000000000E+00  0.00000000000E+00  0.45593999997E+02  0.45594000000E+02  0.51100000000E-03 0.  1.
         11   -1    0    0    0    0 -0.00000000000E+00 -0.00000000000E+00 -0.45593999997E+02  0.45594000000E+02  0.51100000000E-03 0. -1.
    9900012    2    1    2    0    0  0.32798506789E+02  0.14903371753E+02 -0.27041836464E+02  0.46142318114E+02  0.10000003221E+02 0.  0.
        -12    1    1    2    0    0 -0.32798506789E+02 -0.14903371753E+02  0.27041836464E+02  0.45045681886E+02  0.00000000000E+00 0.  1.
         11    1    3    3    0    0  0.18443854221E+01 -0.71240629912E-01 -0.20798806120E+00  0.18574423564E+01  0.51100000000E-03 0. -1.
        -11    1    3    3    0    0  0.81303968600E+01  0.43473465467E+00 -0.55053050667E+01  0.98285671113E+01  0.51100000000E-03 0.  1.
        -12    1    3    3    0    0  0.22823724507E+02  0.14539877728E+02 -0.21328543336E+02  0.34456308647E+02  0.00000000000E+00 0.  1.
</event>
<event>
 7    1  0.3910495E-008  0.4614232E+02  0.7816164E-02  0.1320468E+00
        -11   -1    0    0    0    0  0.00000000000E+00  0.00000000000E+00  0.45593999997E+02  0.45594000000E+02  0.51100000000E-03 0. -1.
         11   -1    0    0    0    0 -0.00000000000E+00 -0.00000000000E+00 -0.45593999997E+02  0.45594000000E+02  0.51100000000E-03 0.  1.
    9900012    2    1    2    0    0  0.40954495693E+02 -0.15526268050E+02  0.10525097922E+02  0.46142318706E+02  0.10000008613E+02 0.  0.
        -12    1    1    2    0    0 -0.40954495693E+02  0.15526268050E+02 -0.10525097922E+02  0.45045681294E+02  0.00000000000E+00 0.  1.
         11    1    3    3    0    0  0.18208095364E+02 -0.33999414420E+01  0.72072033521E+01  0.19875565879E+02  0.51100000000E-03 0. -1.
        -11    1    3    3    0    0  0.72931048926E+01 -0.34150373074E+01 -0.68191822981E+00  0.80818853938E+01  0.51100000000E-03 0.  1.
        -12    1    3    3    0    0  0.15453295437E+02 -0.87112893004E+01  0.39998127999E+01  0.18184867433E+02  0.00000000000E+00 0.  1.
</event>
<event>
 7    1  0.3910495E-008  0.4614232E+02  0.7816164E-02  0.1320468E+00
        -11   -1    0    0    0    0  0.00000000000E+00  0.00000000000E+00  0.45593999997E+02  0.45594000000E+02  0.51100000000E-03 0.  1.
         11   -1    0    0    0    0 -0.00000000000E+00 -0.00000000000E+00 -0.45593999997E+02  0.45594000000E+02  0.51100000000E-03 0. -1.
    9900012    2    1    2    0    0 -0.89771371754E+01  0.27145443345E+02 -0.34808755459E+02  0.46142317156E+02  0.99999944823E+01 0.  0.
        -12    1    1    2    0    0  0.89771371754E+01 -0.27145443345E+02  0.34808755459E+02  0.45045682844E+02  0.00000000000E+00 0.  1.
         11    1    3    3    0    0  0.32045466808E+00  0.17563064125E+01 -0.10087801995E+01  0.20505953186E+01  0.51100000000E-03 0. -1.
        -11    1    3    3    0    0 -0.37715030071E+01  0.83440770533E+01 -0.18030036171E+02  0.20222019221E+02  0.51100000000E-03 0.  1.
        -12    1    3    3    0    0 -0.55260888364E+01  0.17045059879E+02 -0.15769939089E+02  0.23869702616E+02  0.00000000000E+00 0.  1.
</event>
<event>
 7    1  0.3910495E-008  0.4614232E+02  0.7816164E-02  0.1320468E+00
        -11   -1    0    0    0    0  0.00000000000E+00  0.00000000000E+00  0.45593999997E+02  0.45594000000E+02  0.51100000000E-03 0.  1.
         11   -1    0    0    0    0 -0.00000000000E+00 -0.00000000000E+00 -0.45593999997E+02  0.45594000000E+02  0.51100000000E-03 0. -1.
    9900012    2    1    2    0    0  0.17284032950E+02  0.32669467782E+02 -0.25750371379E+02  0.46142317118E+02  0.99999941342E+01 0.  0.
        -12    1    1    2    0    0 -0.17284032950E+02 -0.32669467782E+02  0.25750371379E+02  0.45045682882E+02  0.00000000000E+00 0.  1.
         11    1    3    3    0    0 -0.22778021406E+00  0.44513310004E+00 -0.25711789638E+01  0.26193489320E+01  0.51100000000E-03 0. -1.
        -11    1    3    3    0    0  0.28534065772E+01  0.49581103571E+01 -0.22089270540E+01  0.61322219789E+01  0.51100000000E-03 0.  1.
         12    1    3    3    0    0  0.14658406587E+02  0.27266224325E+02 -0.20970265361E+02  0.37390746207E+02  0.00000000000E+00 0. -1.
</event>
<event>
 7    1  0.3910495E-008  0.4614232E+02  0.7816164E-02  0.1320468E+00
        -11   -1    0    0    0    0  0.00000000000E+00  0.00000000000E+00  0.45593999997E+02  0.45594000000E+02  0.51100000000E-03 0.  1.
         11   -1    0    0    0    0 -0.00000000000E+00 -0.00000000000E+00 -0.45593999997E+02  0.45594000000E+02  0.51100000000E-03 0. -1.
    9900012    2    1    2    0    0  0.34402799469E+02 -0.41053769266E+01 -0.28787268983E+02  0.46142316672E+02  0.99999900689E+01 0.  0.
        -12    1    1    2    0    0 -0.34402799469E+02  0.41053769266E+01  0.28787268983E+02  0.45045683328E+02  0.00000000000E+00 0.  1.
         11    1    3    3    0    0  0.43958765987E+01  0.11951468946E+01 -0.45483784037E+01  0.64373793996E+01  0.51100000000E-03 0. -1.
        -11    1    3    3    0    0  0.91254407271E+01 -0.37587702680E+00 -0.11743773297E+02  0.14877202812E+02  0.51100000000E-03 0.  1.
        -12    1    3    3    0    0  0.20881482143E+02 -0.49246467944E+01 -0.12495117282E+02  0.24827734460E+02  0.00000000000E+00 0.  1.
</event>
<event>
 7    1  0.3910495E-008  0.4614232E+02  0.7816164E-02  0.1320468E+00
        -11   -1    0    0    0    0  0.00000000000E+00  0.00000000000E+00  0.45593999997E+02  0.45594000000E+02  0.51100000000E-03 0.  1.
         11   -1    0    0    0    0 -0.00000000000E+00 -0.00000000000E+00 -0.45593999997E+02  0.45594000000E+02  0.51100000000E-03 0. -1.
    9900012    2    1    2    0    0  0.10597448874E+02  0.10259445469E+02 -0.42562322655E+02  0.46142318145E+02  0.10000003500E+02 0.  0.
        -12    1    1    2    0    0 -0.10597448874E+02 -0.10259445469E+02  0.42562322655E+02  0.45045681855E+02  0.00000000000E+00 0.  1.
         11    1    3    3    0    0 -0.16004489840E+00  0.29271347483E+01 -0.48331090677E+01  0.56526697875E+01  0.51100000000E-03 0. -1.
        -11    1    3    3    0    0 -0.12499591312E+00  0.19888606819E+01 -0.22982655681E+01  0.30419098726E+01  0.51100000000E-03 0.  1.
         12    1    3    3    0    0  0.10882489685E+02  0.53434500390E+01 -0.35430948019E+02  0.37447738485E+02  0.00000000000E+00 0. -1.
</event>
<event>
 7    1  0.3910495E-008  0.4614232E+02  0.7816164E-02  0.1320468E+00
        -11   -1    0    0    0    0  0.00000000000E+00  0.00000000000E+00  0.45593999997E+02  0.45594000000E+02  0.51100000000E-03 0.  1.
         11   -1    0    0    0    0 -0.00000000000E+00 -0.00000000000E+00 -0.45593999997E+02  0.45594000000E+02  0.51100000000E-03 0. -1.
    9900012    2    1    2    0    0 -0.42122203189E+02 -0.13111455787E+02 -0.91062174591E+01  0.46142317956E+02  0.10000001779E+02 0.  0.
        -12    1    1    2    0    0  0.42122203189E+02  0.13111455787E+02  0.91062174591E+01  0.45045682044E+02  0.00000000000E+00 0.  1.
         11    1    3    3    0    0 -0.32964800705E+01 -0.88096022653E+00 -0.29185540657E+01  0.44900812768E+01  0.51100000000E-03 0. -1.
        -11    1    3    3    0    0 -0.15804090065E+02 -0.18619766760E+01 -0.31392008104E+01  0.16220074041E+02  0.51100000000E-03 0.  1.
        -12    1    3    3    0    0 -0.23021633054E+02 -0.10368518884E+02 -0.30484625830E+01  0.25432162638E+02  0.00000000000E+00 0.  1.
</event>
<event>
 7    1  0.3910495E-008  0.4614232E+02  0.7816164E-02  0.1320468E+00
        -11   -1    0    0    0    0  0.00000000000E+00  0.00000000000E+00  0.45593999997E+02  0.45594000000E+02  0.51100000000E-03 0.  1.
         11   -1    0    0    0    0 -0.00000000000E+00 -0.00000000000E+00 -0.45593999997E+02  0.45594000000E+02  0.51100000000E-03 0. -1.
    9900012    2    1    2    0    0 -0.27449290101E+02 -0.29431987619E+02 -0.20233833054E+02  0.46142318494E+02  0.10000006685E+02 0.  0.
        -12    1    1    2    0    0  0.27449290101E+02  0.29431987619E+02  0.20233833054E+02  0.45045681506E+02  0.00000000000E+00 0.  1.
         11    1    3    3    0    0 -0.92477675623E+00 -0.17783981607E+01 -0.76978109523E+00  0.21472017284E+01  0.51100000000E-03 0. -1.
        -11    1    3    3    0    0 -0.42072077483E+01 -0.10276719093E+02 -0.43553358808E+01  0.11928139136E+02  0.51100000000E-03 0.  1.
         12    1    3    3    0    0 -0.22317305597E+02 -0.17376870366E+02 -0.15108716078E+02  0.32066977630E+02  0.00000000000E+00 0. -1.
</event>
<event>
 7    1  0.3910495E-008  0.4614232E+02  0.7816164E-02  0.1320468E+00
        -11   -1    0    0    0    0  0.00000000000E+00  0.00000000000E+00  0.45593999997E+02  0.45594000000E+02  0.51100000000E-03 0.  1.
         11   -1    0    0    0    0 -0.00000000000E+00 -0.00000000000E+00 -0.45593999997E+02  0.45594000000E+02  0.51100000000E-03 0. -1.
    9900012    2    1    2    0    0  0.29868839775E+02  0.11467267237E+02 -0.31709109814E+02  0.46142318158E+02  0.10000003620E+02 0.  0.
        -12    1    1    2    0    0 -0.29868839775E+02 -0.11467267237E+02  0.31709109814E+02  0.45045681842E+02  0.00000000000E+00 0.  1.
         11    1    3    3    0    0  0.27528845339E+01  0.17336271183E+01 -0.40975137543E+01  0.52319647810E+01  0.51100000000E-03 0. -1.
        -11    1    3    3    0    0  0.89774264220E+01  0.55953843249E+01 -0.52138245643E+01  0.11793493026E+02  0.51100000000E-03 0.  1.
        -12    1    3    3    0    0  0.18138528819E+02  0.41382557941E+01 -0.22397771496E+02  0.29116860351E+02  0.00000000000E+00 0.  1.
</event>
<event>
 7    1  0.3910495E-008  0.4614232E+02  0.7816164E-02  0.1320468E+00
        -11   -1    0    0    0    0  0.00000000000E+00  0.00000000000E+00  0.45593999997E+02  0.45594000000E+02  0.51100000000E-03 0. -1.
         11   -1    0    0    0    0 -0.00000000000E+00 -0.00000000000E+00 -0.45593999997E+02  0.45594000000E+02  0.51100000000E-03 0.  1.
    9900012    2    1    2    0    0  0.27735665268E+02 -0.14711235229E+02  0.32302106080E+02  0.46142316222E+02  0.99999859684E+01 0.  0.
        -12    1    1    2    0    0 -0.27735665268E+02  0.14711235229E+02 -0.32302106080E+02  0.45045683778E+02  0.00000000000E+00 0.  1.
         11    1    3    3    0    0  0.13592507234E+02 -0.76005462365E+01  0.11003113419E+02  0.19068116351E+02  0.51100000000E-03 0. -1.
        -11    1    3    3    0    0  0.76509587768E+01 -0.54690714876E+01  0.87271423332E+01  0.12830078983E+02  0.51100000000E-03 0.  1.
        -12    1    3    3    0    0  0.64921992569E+01 -0.16416175045E+01  0.12571850328E+02  0.14244120889E+02  0.00000000000E+00 0.  1.
</event>
<event>
 7    1  0.3910495E-008  0.4614232E+02  0.7816164E-02  0.1320468E+00
        -11   -1    0    0    0    0  0.00000000000E+00  0.00000000000E+00  0.45593999997E+02  0.45594000000E+02  0.51100000000E-03 0.  1.
         11   -1    0    0    0    0 -0.00000000000E+00 -0.00000000000E+00 -0.45593999997E+02  0.45594000000E+02  0.51100000000E-03 0. -1.
    9900012    2    1    2    0    0  0.16768319841E+02  0.41805047539E+02  0.52432865693E+00  0.46142317959E+02  0.10000001803E+02 0.  0.
        -12    1    1    2    0    0 -0.16768319841E+02 -0.41805047539E+02 -0.52432865693E+00  0.45045682041E+02  0.00000000000E+00 0.  1.
         11    1    3    3    0    0  0.43875299303E+01  0.79093135835E+01  0.56234114822E+00  0.90622231312E+01  0.51100000000E-03 0. -1.
        -11    1    3    3    0    0  0.49491733291E+01  0.99426589553E+01 -0.37608995361E+01  0.11725832564E+02  0.51100000000E-03 0.  1.
         12    1    3    3    0    0  0.74316165813E+01  0.23953075000E+02  0.37228870448E+01  0.25354262263E+02  0.00000000000E+00 0. -1.
</event>
<event>
 7    1  0.3910495E-008  0.4614232E+02  0.7816164E-02  0.1320468E+00
        -11   -1    0    0    0    0  0.00000000000E+00  0.00000000000E+00  0.45593999997E+02  0.45594000000E+02  0.51100000000E-03 0. -1.
         11   -1    0    0    0    0 -0.00000000000E+00 -0.00000000000E+00 -0.45593999997E+02  0.45594000000E+02  0.51100000000E-03 0.  1.
    9900012    2    1    2    0    0 -0.37159522269E+02  0.19177694922E+02  0.16748117192E+02  0.46142317551E+02  0.99999980871E+01 0.  0.
        -12    1    1    2    0    0  0.37159522269E+02 -0.19177694922E+02 -0.16748117192E+02  0.45045682449E+02  0.00000000000E+00 0.  1.
         11    1    3    3    0    0 -0.31231781258E+02  0.14684017992E+02  0.14194913420E+02  0.37316753774E+02  0.51100000000E-03 0. -1.
        -11    1    3    3    0    0  0.30258613257E+00  0.82539676498E-01  0.98314810206E+00  0.10319649304E+01  0.51100000000E-03 0.  1.
        -12    1    3    3    0    0 -0.62303271434E+01  0.44111372532E+01  0.15700556696E+01  0.77935988468E+01  0.00000000000E+00 0.  1.
</event>
<event>
 7    1  0.3910495E-008  0.4614232E+02  0.7816164E-02  0.1320468E+00
        -11   -1    0    0    0    0  0.00000000000E+00  0.00000000000E+00  0.45593999997E+02  0.45594000000E+02  0.51100000000E-03 0.  1.
         11   -1    0    0    0    0 -0.00000000000E+00 -0.00000000000E+00 -0.45593999997E+02  0.45594000000E+02  0.51100000000E-03 0. -1.
    9900012    2    1    2    0    0  0.17258572385E+02  0.12614368769E+02 -0.39650131929E+02  0.46142316720E+02  0.99999905039E+01 0.  0.
        -12    1    1    2    0    0 -0.17258572385E+02 -0.12614368769E+02  0.39650131929E+02  0.45045683280E+02  0.00000000000E+00 0.  1.
         11    1    3    3    0    0  0.11378224384E+02  0.83189630649E+01 -0.22081195714E+02  0.26196342131E+02  0.51100000000E-03 0. -1.
        -11    1    3    3    0    0  0.12925536712E+00 -0.12646523209E+00  0.46965696534E+00  0.50326765351E+00  0.51100000000E-03 0.  1.
        -12    1    3    3    0    0  0.57510926337E+01  0.44218709367E+01 -0.18038593180E+02  0.19442706935E+02  0.00000000000E+00 0.  1.
</event>
<event>
 7    1  0.3910495E-008  0.4614232E+02  0.7816164E-02  0.1320468E+00
        -11   -1    0    0    0    0  0.00000000000E+00  0.00000000000E+00  0.45593999997E+02  0.45594000000E+02  0.51100000000E-03 0.  1.
         11   -1    0    0    0    0 -0.00000000000E+00 -0.00000000000E+00 -0.45593999997E+02  0.45594000000E+02  0.51100000000E-03 0. -1.
    9900012    2    1    2    0    0  0.12143373828E+01  0.12354399487E+02 -0.43301359020E+02  0.46142317688E+02  0.99999993351E+01 0.  0.
        -12    1    1    2    0    0 -0.12143373828E+01 -0.12354399487E+02  0.43301359020E+02  0.45045682312E+02  0.00000000000E+00 0.  1.
         11    1    3    3    0    0  0.11713628778E+01  0.10812744534E+01 -0.80733912674E+01  0.82292704569E+01  0.51100000000E-03 0. -1.
        -11    1    3    3    0    0 -0.28282444906E+00  0.50027963867E+01 -0.27515027587E+02  0.27967565227E+02  0.51100000000E-03 0.  1.
        -12    1    3    3    0    0  0.32579895404E+00  0.62703286471E+01 -0.77129401656E+01  0.99454820044E+01  0.00000000000E+00 0.  1.
</event>
<event>
 7    1  0.3910495E-008  0.4614232E+02  0.7816164E-02  0.1320468E+00
        -11   -1    0    0    0    0  0.00000000000E+00  0.00000000000E+00  0.45593999997E+02  0.45594000000E+02  0.51100000000E-03 0.  1.
         11   -1    0    0    0    0 -0.00000000000E+00 -0.00000000000E+00 -0.45593999997E+02  0.45594000000E+02  0.51100000000E-03 0. -1.
    9900012    2    1    2    0    0 -0.16350062384E+02 -0.17656526738E+02 -0.38079335495E+02  0.46142320206E+02  0.10000022292E+02 0.  0.
        -12    1    1    2    0    0  0.16350062384E+02  0.17656526738E+02  0.38079335495E+02  0.45045679794E+02  0.00000000000E+00 0.  1.
         11    1    3    3    0    0 -0.38349289330E+01 -0.13970230384E+01 -0.10084786407E+02  0.10879396602E+02  0.51100000000E-03 0. -1.
        -11    1    3    3    0    0 -0.12370513249E+02 -0.12442339266E+02 -0.21776793883E+02  0.27965517276E+02  0.51100000000E-03 0.  1.
        -12    1    3    3    0    0 -0.14462020153E+00 -0.38171644333E+01 -0.62177552055E+01  0.72974063276E+01  0.00000000000E+00 0.  1.
</event>
<event>
 7    1  0.3910495E-008  0.4614231E+02  0.7816164E-02  0.1320468E+00
        -11   -1    0    0    0    0  0.00000000000E+00  0.00000000000E+00  0.45593999997E+02  0.45594000000E+02  0.51100000000E-03 0. -1.
         11   -1    0    0    0    0 -0.00000000000E+00 -0.00000000000E+00 -0.45593999997E+02  0.45594000000E+02  0.51100000000E-03 0.  1.
    9900012    2    1    2    0    0 -0.37192949794E+01  0.13451577973E+02  0.42829145987E+02  0.46142313735E+02  0.99999632835E+01 0.  0.
        -12    1    1    2    0    0  0.37192949794E+01 -0.13451577973E+02 -0.42829145987E+02  0.45045686265E+02  0.00000000000E+00 0.  1.
         11    1    3    3    0    0 -0.19896334000E-01  0.31695320288E+01  0.43890281289E+01  0.54138615907E+01  0.51100000000E-03 0. -1.
        -11    1    3    3    0    0 -0.52876435732E+01  0.66070414529E+01  0.32363179326E+02  0.33451271242E+02  0.51100000000E-03 0.  1.
        -12    1    3    3    0    0  0.15882449278E+01  0.36750044910E+01  0.60769385322E+01  0.72771809022E+01  0.00000000000E+00 0.  1.
</event>
<event>
 7    1  0.3910495E-008  0.4614232E+02  0.7816164E-02  0.1320468E+00
        -11   -1    0    0    0    0  0.00000000000E+00  0.00000000000E+00  0.45593999997E+02  0.45594000000E+02  0.51100000000E-03 0.  1.
         11   -1    0    0    0    0 -0.00000000000E+00 -0.00000000000E+00 -0.45593999997E+02  0.45594000000E+02  0.51100000000E-03 0. -1.
    9900012    2    1    2    0    0 -0.15791996396E+02  0.76636147708E+01 -0.41484873900E+02  0.46142324247E+02  0.10000059143E+02 0.  0.
        -12    1    1    2    0    0  0.15791996396E+02 -0.76636147708E+01  0.41484873900E+02  0.45045675753E+02  0.00000000000E+00 0.  1.
         11    1    3    3    0    0 -0.15594190366E+01  0.18015402051E+01 -0.25348559644E+01  0.34789121667E+01  0.51100000000E-03 0. -1.
        -11    1    3    3    0    0 -0.53366117297E+01  0.58516528085E+01 -0.12908291404E+02  0.15144149121E+02  0.51100000000E-03 0.  1.
         12    1    3    3    0    0 -0.88959656295E+01  0.10421757252E-01 -0.26041726532E+02  0.27519262960E+02  0.00000000000E+00 0. -1.
</event>
<event>
 7    1  0.3910495E-008  0.4614231E+02  0.7816164E-02  0.1320468E+00
        -11   -1    0    0    0    0  0.00000000000E+00  0.00000000000E+00  0.45593999997E+02  0.45594000000E+02  0.51100000000E-03 0.  1.
         11   -1    0    0    0    0 -0.00000000000E+00 -0.00000000000E+00 -0.45593999997E+02  0.45594000000E+02  0.51100000000E-03 0. -1.
    9900012    2    1    2    0    0  0.29877311615E+02  0.28662528933E+02  0.17745969291E+02  0.46142314965E+02  0.99999745061E+01 0.  0.
        -12    1    1    2    0    0 -0.29877311615E+02 -0.28662528933E+02 -0.17745969291E+02  0.45045685035E+02  0.00000000000E+00 0.  1.
         11    1    3    3    0    0  0.18200993167E+01  0.61558996484E+01  0.26167467816E+01  0.69321876767E+01  0.51100000000E-03 0.  1.
        -11    1    3    3    0    0  0.67572774090E+01  0.52281264463E+01  0.54079503780E+01  0.10111381294E+02  0.51100000000E-03 0. -1.
        -12    1    3    3    0    0  0.21299934889E+02  0.17278502838E+02  0.97212721316E+01  0.29098745995E+02  0.00000000000E+00 0.  1.
</event>
<event>
 7    1  0.3910495E-008  0.4614232E+02  0.7816164E-02  0.1320468E+00
        -11   -1    0    0    0    0  0.00000000000E+00  0.00000000000E+00  0.45593999997E+02  0.45594000000E+02  0.51100000000E-03 0.  1.
         11   -1    0    0    0    0 -0.00000000000E+00 -0.00000000000E+00 -0.45593999997E+02  0.45594000000E+02  0.51100000000E-03 0. -1.
    9900012    2    1    2    0    0 -0.41034518883E+02 -0.10123717456E+02  0.15581790981E+02  0.46142316464E+02  0.99999881729E+01 0.  0.
        -12    1    1    2    0    0  0.41034518883E+02  0.10123717456E+02 -0.15581790981E+02  0.45045683536E+02  0.00000000000E+00 0.  1.
         11    1    3    3    0    0 -0.34295734804E+01  0.11370172399E+01  0.24585058559E+01  0.43702441312E+01  0.51100000000E-03 0. -1.
        -11    1    3    3    0    0 -0.25504631808E+02 -0.71815320408E+01  0.11556272156E+02  0.28906886247E+02  0.51100000000E-03 0.  1.
         12    1    3    3    0    0 -0.12100313594E+02 -0.40792026548E+01  0.15670129695E+01  0.12865186086E+02  0.00000000000E+00 0. -1.
</event>
<event>
 7    1  0.3910495E-008  0.4614232E+02  0.7816164E-02  0.1320468E+00
        -11   -1    0    0    0    0  0.00000000000E+00  0.00000000000E+00  0.45593999997E+02  0.45594000000E+02  0.51100000000E-03 0.  1.
         11   -1    0    0    0    0 -0.00000000000E+00 -0.00000000000E+00 -0.45593999997E+02  0.45594000000E+02  0.51100000000E-03 0. -1.
    9900012    2    1    2    0    0 -0.22451963445E+02 -0.20454241664E+02 -0.33266301494E+02  0.46142317858E+02  0.10000000884E+02 0.  0.
        -12    1    1    2    0    0  0.22451963445E+02  0.20454241664E+02  0.33266301494E+02  0.45045682142E+02  0.00000000000E+00 0.  1.
         11    1    3    3    0    0 -0.61764091268E+01 -0.16555018962E+01 -0.86140440069E+01  0.10728022681E+02  0.51100000000E-03 0.  1.
        -11    1    3    3    0    0 -0.10430464008E+02 -0.14393721106E+02 -0.19923175653E+02  0.26700313014E+02  0.51100000000E-03 0. -1.
        -12    1    3    3    0    0 -0.58450903100E+01 -0.44050186616E+01 -0.47290818335E+01  0.87139821626E+01  0.00000000000E+00 0.  1.
</event>
<event>
 7    1  0.3910495E-008  0.4614232E+02  0.7816164E-02  0.1320468E+00
        -11   -1    0    0    0    0  0.00000000000E+00  0.00000000000E+00  0.45593999997E+02  0.45594000000E+02  0.51100000000E-03 0.  1.
         11   -1    0    0    0    0 -0.00000000000E+00 -0.00000000000E+00 -0.45593999997E+02  0.45594000000E+02  0.51100000000E-03 0. -1.
    9900012    2    1    2    0    0  0.40351317925E+02  0.19172113651E+02  0.57718869289E+01  0.46142317867E+02  0.10000000964E+02 0.  0.
        -12    1    1    2    0    0 -0.40351317925E+02 -0.19172113651E+02 -0.57718869289E+01  0.45045682133E+02  0.00000000000E+00 0.  1.
         11    1    3    3    0    0  0.45609602333E+01  0.21104280618E+01  0.35682026084E+01  0.61634677714E+01  0.51100000000E-03 0. -1.
        -11    1    3    3    0    0  0.32405364530E+02  0.14522717484E+02  0.79687274985E+00  0.35519740706E+02  0.51100000000E-03 0.  1.
        -12    1    3    3    0    0  0.33849931618E+01  0.25389681056E+01  0.14068115707E+01  0.44591093889E+01  0.00000000000E+00 0.  1.
</event>
<event>
 7    1  0.3910495E-008  0.4614232E+02  0.7816164E-02  0.1320468E+00
        -11   -1    0    0    0    0  0.00000000000E+00  0.00000000000E+00  0.45593999997E+02  0.45594000000E+02  0.51100000000E-03 0.  1.
         11   -1    0    0    0    0 -0.00000000000E+00 -0.00000000000E+00 -0.45593999997E+02  0.45594000000E+02  0.51100000000E-03 0. -1.
    9900012    2    1    2    0    0 -0.87945811321E+01  0.19190936800E+02 -0.39792923550E+02  0.46142317885E+02  0.10000001131E+02 0.  0.
        -12    1    1    2    0    0  0.87945811321E+01 -0.19190936800E+02  0.39792923550E+02  0.45045682115E+02  0.00000000000E+00 0.  1.
         11    1    3    3    0    0 -0.19253561440E+01  0.44327297340E+01 -0.14657031922E+02  0.15433232786E+02  0.51100000000E-03 0. -1.
        -11    1    3    3    0    0 -0.93629838033E+00 -0.57171251751E+00 -0.25386339645E+01  0.27655329553E+01  0.51100000000E-03 0.  1.
         12    1    3    3    0    0 -0.59329266077E+01  0.15329919583E+02 -0.22597257663E+02  0.27943552144E+02  0.00000000000E+00 0. -1.
</event>
<event>
 7    1  0.3910495E-008  0.4614232E+02  0.7816164E-02  0.1320468E+00
        -11   -1    0    0    0    0  0.00000000000E+00  0.00000000000E+00  0.45593999997E+02  0.45594000000E+02  0.51100000000E-03 0. -1.
         11   -1    0    0    0    0 -0.00000000000E+00 -0.00000000000E+00 -0.45593999997E+02  0.45594000000E+02  0.51100000000E-03 0.  1.
    9900012    2    1    2    0    0 -0.28951250848E+02  0.26591779839E+02  0.21995815773E+02  0.46142316609E+02  0.99999894912E+01 0.  0.
        -12    1    1    2    0    0  0.28951250848E+02 -0.26591779839E+02 -0.21995815773E+02  0.45045683391E+02  0.00000000000E+00 0.  1.
         11    1    3    3    0    0 -0.16871937359E+02  0.15287633353E+02  0.13335090297E+02  0.26385576312E+02  0.51100000000E-03 0. -1.
        -11    1    3    3    0    0 -0.70447202819E+01  0.44628892476E+01  0.74391102004E+01  0.11175232665E+02  0.51100000000E-03 0.  1.
        -12    1    3    3    0    0 -0.50345932064E+01  0.68412572381E+01  0.12216152758E+01  0.85815076317E+01  0.00000000000E+00 0.  1.
</event>
<event>
 7    1  0.3910495E-008  0.4614232E+02  0.7816164E-02  0.1320468E+00
        -11   -1    0    0    0    0  0.00000000000E+00  0.00000000000E+00  0.45593999997E+02  0.45594000000E+02  0.51100000000E-03 0.  1.
         11   -1    0    0    0    0 -0.00000000000E+00 -0.00000000000E+00 -0.45593999997E+02  0.45594000000E+02  0.51100000000E-03 0. -1.
    9900012    2    1    2    0    0 -0.27097788545E+02 -0.11200265706E+02 -0.34196160742E+02  0.46142317572E+02  0.99999982776E+01 0.  0.
        -12    1    1    2    0    0  0.27097788545E+02  0.11200265706E+02  0.34196160742E+02  0.45045682428E+02  0.00000000000E+00 0.  1.
         11    1    3    3    0    0 -0.30098129214E-01 -0.51584408453E-01  0.17632770989E+00  0.18616812556E+00  0.51100000000E-03 0. -1.
        -11    1    3    3    0    0 -0.18034281274E+02 -0.54001401284E+01 -0.16069601269E+02  0.24751341371E+02  0.51100000000E-03 0.  1.
         12    1    3    3    0    0 -0.90334091418E+01 -0.57485411689E+01 -0.18302887183E+02  0.21204808075E+02  0.00000000000E+00 0. -1.
</event>
<event>
 7    1  0.3910495E-008  0.4614232E+02  0.7816164E-02  0.1320468E+00
        -11   -1    0    0    0    0  0.00000000000E+00  0.00000000000E+00  0.45593999997E+02  0.45594000000E+02  0.51100000000E-03 0.  1.
         11   -1    0    0    0    0 -0.00000000000E+00 -0.00000000000E+00 -0.45593999997E+02  0.45594000000E+02  0.51100000000E-03 0. -1.
    9900012    2    1    2    0    0  0.27131085904E+02  0.34894899449E+02 -0.86812266065E+01  0.46142317351E+02  0.99999962626E+01 0.  0.
        -12    1    1    2    0    0 -0.27131085904E+02 -0.34894899449E+02  0.86812266065E+01  0.45045682649E+02  0.00000000000E+00 0.  1.
         11    1    3    3    0    0  0.25873534583E+01  0.83184560516E+01 -0.24329111542E+01  0.90448972324E+01  0.51100000000E-03 0. -1.
        -11    1    3    3    0    0  0.58795974874E+01  0.96897869811E+01 -0.29574544086E+01  0.11713589339E+02  0.51100000000E-03 0.  1.
        -12    1    3    3    0    0  0.18664134958E+02  0.16886656417E+02 -0.32908610437E+01  0.25383830780E+02  0.00000000000E+00 0.  1.
</event>
<event>
 7    1  0.3910495E-008  0.4614232E+02  0.7816164E-02  0.1320468E+00
        -11   -1    0    0    0    0  0.00000000000E+00  0.00000000000E+00  0.45593999997E+02  0.45594000000E+02  0.51100000000E-03 0. -1.
         11   -1    0    0    0    0 -0.00000000000E+00 -0.00000000000E+00 -0.45593999997E+02  0.45594000000E+02  0.51100000000E-03 0.  1.
    9900012    2    1    2    0    0 -0.73300797520E+01 -0.10802038275E+02  0.43112637365E+02  0.46142316515E+02  0.99999886348E+01 0.  0.
        -12    1    1    2    0    0  0.73300797520E+01  0.10802038275E+02 -0.43112637365E+02  0.45045683485E+02  0.00000000000E+00 0.  1.
         11    1    3    3    0    0  0.15357187757E+01 -0.32341141909E+01  0.95011552766E+01  0.10153318601E+02  0.51100000000E-03 0. -1.
        -11    1    3    3    0    0 -0.32095757650E+01 -0.52979375144E+01  0.11611657193E+02  0.13160550958E+02  0.51100000000E-03 0.  1.
        -12    1    3    3    0    0 -0.56562227628E+01 -0.22699865700E+01  0.21999824896E+02  0.22828446956E+02  0.00000000000E+00 0.  1.
</event>
<event>
 7    1  0.3910495E-008  0.4614232E+02  0.7816164E-02  0.1320468E+00
        -11   -1    0    0    0    0  0.00000000000E+00  0.00000000000E+00  0.45593999997E+02  0.45594000000E+02  0.51100000000E-03 0.  1.
         11   -1    0    0    0    0 -0.00000000000E+00 -0.00000000000E+00 -0.45593999997E+02  0.45594000000E+02  0.51100000000E-03 0. -1.
    9900012    2    1    2    0    0 -0.42285213790E+02  0.76212919913E+01 -0.13527382310E+02  0.46142317976E+02  0.10000001958E+02 0.  0.
        -12    1    1    2    0    0  0.42285213790E+02 -0.76212919913E+01  0.13527382310E+02  0.45045682024E+02  0.00000000000E+00 0.  1.
         11    1    3    3    0    0 -0.20300523146E+02  0.20387539169E+01 -0.62295109768E+01  0.21332476762E+02  0.51100000000E-03 0. -1.
        -11    1    3    3    0    0 -0.22100179738E+02  0.44137382270E+01 -0.69882008019E+01  0.23595210961E+02  0.51100000000E-03 0.  1.
        -12    1    3    3    0    0  0.11548909376E+00  0.11687998473E+01 -0.30967053114E+00  0.12146302531E+01  0.00000000000E+00 0.  1.
</event>
<event>
 7    1  0.3910495E-008  0.4614232E+02  0.7816164E-02  0.1320468E+00
        -11   -1    0    0    0    0  0.00000000000E+00  0.00000000000E+00  0.45593999997E+02  0.45594000000E+02  0.51100000000E-03 0.  1.
         11   -1    0    0    0    0 -0.00000000000E+00 -0.00000000000E+00 -0.45593999997E+02  0.45594000000E+02  0.51100000000E-03 0. -1.
    9900012    2    1    2    0    0  0.59808622516E+01 -0.44427526379E+02  0.44201397957E+01  0.46142318196E+02  0.10000003963E+02 0.  0.
        -12    1    1    2    0    0 -0.59808622516E+01  0.44427526379E+02 -0.44201397957E+01  0.45045681804E+02  0.00000000000E+00 0.  1.
         11    1    3    3    0    0  0.31480137702E+01 -0.29364464048E+02  0.29544177460E+01  0.29680133490E+02  0.51100000000E-03 0. -1.
        -11    1    3    3    0    0  0.78968247124E+00 -0.89060660642E+01 -0.19197317202E+01  0.91447789084E+01  0.51100000000E-03 0.  1.
        -12    1    3    3    0    0  0.20431660102E+01 -0.61569962663E+01  0.33854537699E+01  0.73174057969E+01  0.00000000000E+00 0.  1.
</event>
<event>
 7    1  0.3910495E-008  0.4614232E+02  0.7816164E-02  0.1320468E+00
        -11   -1    0    0    0    0  0.00000000000E+00  0.00000000000E+00  0.45593999997E+02  0.45594000000E+02  0.51100000000E-03 0.  1.
         11   -1    0    0    0    0 -0.00000000000E+00 -0.00000000000E+00 -0.45593999997E+02  0.45594000000E+02  0.51100000000E-03 0. -1.
    9900012    2    1    2    0    0  0.96336624073E+01  0.32929459250E+02 -0.29188298180E+02  0.46142317759E+02  0.99999999831E+01 0.  0.
        -12    1    1    2    0    0 -0.96336624073E+01 -0.32929459250E+02  0.29188298180E+02  0.45045682241E+02  0.00000000000E+00 0.  1.
         11    1    3    3    0    0  0.45413507625E+01  0.91702201232E+01 -0.46454046508E+01  0.11238175496E+02  0.51100000000E-03 0. -1.
        -11    1    3    3    0    0  0.52843901354E+00  0.11553139350E+02 -0.92299755046E+01  0.14796848472E+02  0.51100000000E-03 0.  1.
         12    1    3    3    0    0  0.45638726313E+01  0.12206099777E+02 -0.15312918024E+02  0.20107293791E+02  0.00000000000E+00 0. -1.
</event>
<event>
 7    1  0.3910495E-008  0.4614232E+02  0.7816164E-02  0.1320468E+00
        -11   -1    0    0    0    0  0.00000000000E+00  0.00000000000E+00  0.45593999997E+02  0.45594000000E+02  0.51100000000E-03 0. -1.
         11   -1    0    0    0    0 -0.00000000000E+00 -0.00000000000E+00 -0.45593999997E+02  0.45594000000E+02  0.51100000000E-03 0.  1.
    9900012    2    1    2    0    0 -0.26834349205E+02 -0.29236370492E+02  0.21313513466E+02  0.46142317487E+02  0.99999974980E+01 0.  0.
        -12    1    1    2    0    0  0.26834349205E+02  0.29236370492E+02 -0.21313513466E+02  0.45045682513E+02  0.00000000000E+00 0.  1.
         11    1    3    3    0    0 -0.11777835368E+01 -0.36278086815E+00  0.54048596564E+00  0.13457003225E+01  0.51100000000E-03 0. -1.
        -11    1    3    3    0    0 -0.35506151062E+01 -0.29778847028E+01  0.62503067578E+01  0.77808097113E+01  0.51100000000E-03 0.  1.
         12    1    3    3    0    0 -0.22105950562E+02 -0.25895704921E+02  0.14522720743E+02  0.37015807453E+02  0.00000000000E+00 0. -1.
</event>
<event>
 7    1  0.3910495E-008  0.4614231E+02  0.7816164E-02  0.1320468E+00
        -11   -1    0    0    0    0  0.00000000000E+00  0.00000000000E+00  0.45593999997E+02  0.45594000000E+02  0.51100000000E-03 0.  1.
         11   -1    0    0    0    0 -0.00000000000E+00 -0.00000000000E+00 -0.45593999997E+02  0.45594000000E+02  0.51100000000E-03 0. -1.
    9900012    2    1    2    0    0 -0.12457089834E+02  0.24278524887E+02 -0.35839752941E+02  0.46142314872E+02  0.99999736527E+01 0.  0.
        -12    1    1    2    0    0  0.12457089834E+02 -0.24278524887E+02  0.35839752941E+02  0.45045685128E+02  0.00000000000E+00 0.  1.
         11    1    3    3    0    0 -0.12754711423E+02  0.22696691256E+02 -0.31398104309E+02  0.40788030253E+02  0.51100000000E-03 0. -1.
        -11    1    3    3    0    0  0.41805529851E+00  0.12232667766E+01 -0.48673902221E+00  0.13813279756E+01  0.51100000000E-03 0.  1.
         12    1    3    3    0    0 -0.12043370928E+00  0.35856685403E+00 -0.39549096098E+01  0.39729566432E+01  0.00000000000E+00 0. -1.
</event>
<event>
 7    1  0.3910495E-008  0.4614232E+02  0.7816164E-02  0.1320468E+00
        -11   -1    0    0    0    0  0.00000000000E+00  0.00000000000E+00  0.45593999997E+02  0.45594000000E+02  0.51100000000E-03 0.  1.
         11   -1    0    0    0    0 -0.00000000000E+00 -0.00000000000E+00 -0.45593999997E+02  0.45594000000E+02  0.51100000000E-03 0. -1.
    9900012    2    1    2    0    0  0.41112235177E+02  0.11189695411E+01 -0.18375136880E+02  0.46142316195E+02  0.99999857191E+01 0.  0.
        -12    1    1    2    0    0 -0.41112235177E+02 -0.11189695411E+01  0.18375136880E+02  0.45045683805E+02  0.00000000000E+00 0.  1.
         11    1    3    3    0    0  0.35235730742E+02  0.16515845821E+01 -0.18566679249E+02  0.39862338506E+02  0.51100000000E-03 0. -1.
        -11    1    3    3    0    0  0.32990607118E+01 -0.69331694493E+00 -0.87992630136E+00  0.34840724050E+01  0.51100000000E-03 0.  1.
         12    1    3    3    0    0  0.25774437230E+01  0.16070190385E+00  0.10714686699E+01  0.27959052841E+01  0.00000000000E+00 0. -1.
</event>
<event>
 7    1  0.3910495E-008  0.4614232E+02  0.7816164E-02  0.1320468E+00
        -11   -1    0    0    0    0  0.00000000000E+00  0.00000000000E+00  0.45593999997E+02  0.45594000000E+02  0.51100000000E-03 0.  1.
         11   -1    0    0    0    0 -0.00000000000E+00 -0.00000000000E+00 -0.45593999997E+02  0.45594000000E+02  0.51100000000E-03 0. -1.
    9900012    2    1    2    0    0 -0.19255340902E+02 -0.16101433869E+01 -0.40690940736E+02  0.46142319042E+02  0.10000011682E+02 0.  0.
        -12    1    1    2    0    0  0.19255340902E+02  0.16101433869E+01  0.40690940736E+02  0.45045680958E+02  0.00000000000E+00 0.  1.
         11    1    3    3    0    0 -0.11489245230E+02 -0.19211232416E+01 -0.20957328144E+02  0.23977136478E+02  0.51100000000E-03 0. -1.
        -11    1    3    3    0    0 -0.82218380547E+01 -0.13589474526E+01 -0.16939044046E+02  0.18877938781E+02  0.51100000000E-03 0.  1.
        -12    1    3    3    0    0  0.45574238352E+00  0.16699273073E+01 -0.27945685462E+01  0.32872437833E+01  0.00000000000E+00 0.  1.
</event>
<event>
 7    1  0.3910495E-008  0.4614232E+02  0.7816164E-02  0.1320468E+00
        -11   -1    0    0    0    0  0.00000000000E+00  0.00000000000E+00  0.45593999997E+02  0.45594000000E+02  0.51100000000E-03 0.  1.
         11   -1    0    0    0    0 -0.00000000000E+00 -0.00000000000E+00 -0.45593999997E+02  0.45594000000E+02  0.51100000000E-03 0. -1.
    9900012    2    1    2    0    0  0.79719561953E+01 -0.40207802837E+02 -0.18678702938E+02  0.46142318320E+02  0.10000005097E+02 0.  0.
        -12    1    1    2    0    0 -0.79719561953E+01  0.40207802837E+02  0.18678702938E+02  0.45045681680E+02  0.00000000000E+00 0.  1.
         11    1    3    3    0    0  0.21796853695E+01 -0.12423893932E+02 -0.88792439786E+01  0.15425470581E+02  0.51100000000E-03 0. -1.
        -11    1    3    3    0    0  0.58597748779E+01 -0.22775592152E+02 -0.10318146797E+02  0.25681291110E+02  0.51100000000E-03 0.  1.
        -12    1    3    3    0    0 -0.67504052128E-01 -0.50083167524E+01  0.51868783749E+00  0.50355566289E+01  0.00000000000E+00 0.  1.
</event>
<event>
 7    1  0.3910495E-008  0.4614232E+02  0.7816164E-02  0.1320468E+00
        -11   -1    0    0    0    0  0.00000000000E+00  0.00000000000E+00  0.45593999997E+02  0.45594000000E+02  0.51100000000E-03 0. -1.
         11   -1    0    0    0    0 -0.00000000000E+00 -0.00000000000E+00 -0.45593999997E+02  0.45594000000E+02  0.51100000000E-03 0.  1.
    9900012    2    1    2    0    0  0.25502591783E+01  0.40431477654E+02  0.19695314441E+02  0.46142316322E+02  0.99999868741E+01 0.  0.
        -12    1    1    2    0    0 -0.25502591783E+01 -0.40431477654E+02 -0.19695314441E+02  0.45045683678E+02  0.00000000000E+00 0.  1.
         11    1    3    3    0    0  0.16625356593E+01  0.12158301333E+02  0.82103044605E+01  0.14764735545E+02  0.51100000000E-03 0. -1.
        -11    1    3    3    0    0  0.27861575051E+00  0.12320809207E+02  0.89094053984E+01  0.15207151971E+02  0.51100000000E-03 0.  1.
         12    1    3    3    0    0  0.60910776840E+00  0.15952367113E+02  0.25756045819E+01  0.16170428805E+02  0.00000000000E+00 0. -1.
</event>
<event>
 7    1  0.3910495E-008  0.4614232E+02  0.7816164E-02  0.1320468E+00
        -11   -1    0    0    0    0  0.00000000000E+00  0.00000000000E+00  0.45593999997E+02  0.45594000000E+02  0.51100000000E-03 0.  1.
         11   -1    0    0    0    0 -0.00000000000E+00 -0.00000000000E+00 -0.45593999997E+02  0.45594000000E+02  0.51100000000E-03 0. -1.
    9900012    2    1    2    0    0 -0.33894796362E+02 -0.14762352372E+02 -0.25735755780E+02  0.46142318814E+02  0.10000009598E+02 0.  0.
        -12    1    1    2    0    0  0.33894796362E+02  0.14762352372E+02  0.25735755780E+02  0.45045681186E+02  0.00000000000E+00 0.  1.
         11    1    3    3    0    0 -0.21050559007E+02 -0.69362672375E+01 -0.16121740692E+02  0.27407085962E+02  0.51100000000E-03 0. -1.
        -11    1    3    3    0    0 -0.40134110274E+01 -0.31252009557E+01 -0.34694252905E+00  0.50985015904E+01  0.51100000000E-03 0.  1.
        -12    1    3    3    0    0 -0.88308263275E+01 -0.47008841787E+01 -0.92670725590E+01  0.13636731262E+02  0.00000000000E+00 0.  1.
</event>
<event>
 7    1  0.3910495E-008  0.4614232E+02  0.7816164E-02  0.1320468E+00
        -11   -1    0    0    0    0  0.00000000000E+00  0.00000000000E+00  0.45593999997E+02  0.45594000000E+02  0.51100000000E-03 0. -1.
         11   -1    0    0    0    0 -0.00000000000E+00 -0.00000000000E+00 -0.45593999997E+02  0.45594000000E+02  0.51100000000E-03 0.  1.
    9900012    2    1    2    0    0  0.22971542497E+02 -0.17928104584E+02  0.34351190533E+02  0.46142323297E+02  0.10000050478E+02 0.  0.
        -12    1    1    2    0    0 -0.22971542497E+02  0.17928104584E+02 -0.34351190533E+02  0.45045676703E+02  0.00000000000E+00 0.  1.
         11    1    3    3    0    0  0.10932432617E+02 -0.10480511116E+02  0.19158079901E+02  0.24421122454E+02  0.51100000000E-03 0. -1.
        -11    1    3    3    0    0  0.53762520872E+01 -0.68714959927E+01  0.98717772597E+01  0.13174730745E+02  0.51100000000E-03 0.  1.
        -12    1    3    3    0    0  0.66628577927E+01 -0.57609747530E+00  0.53213333719E+01  0.85464700972E+01  0.00000000000E+00 0.  1.
</event>
<event>
 7    1  0.3910495E-008  0.4614232E+02  0.7816164E-02  0.1320468E+00
        -11   -1    0    0    0    0  0.00000000000E+00  0.00000000000E+00  0.45593999997E+02  0.45594000000E+02  0.51100000000E-03 0.  1.
         11   -1    0    0    0    0 -0.00000000000E+00 -0.00000000000E+00 -0.45593999997E+02  0.45594000000E+02  0.51100000000E-03 0. -1.
    9900012    2    1    2    0    0 -0.33212487239E+02 -0.20962019475E+02 -0.22059873378E+02  0.46142316716E+02  0.99999904717E+01 0.  0.
        -12    1    1    2    0    0  0.33212487239E+02  0.20962019475E+02  0.22059873378E+02  0.45045683284E+02  0.00000000000E+00 0.  1.
         11    1    3    3    0    0 -0.24665358306E+02 -0.19174683992E+02 -0.18424872972E+02  0.36270157855E+02  0.51100000000E-03 0. -1.
        -11    1    3    3    0    0 -0.27925959416E+01 -0.28971957384E+00 -0.26195358957E+01  0.38398565200E+01  0.51100000000E-03 0.  1.
         12    1    3    3    0    0 -0.57545329916E+01 -0.14976159097E+01 -0.10154645097E+01  0.60323023412E+01  0.00000000000E+00 0. -1.
</event>
<event>
 7    1  0.3910495E-008  0.4614232E+02  0.7816164E-02  0.1320468E+00
        -11   -1    0    0    0    0  0.00000000000E+00  0.00000000000E+00  0.45593999997E+02  0.45594000000E+02  0.51100000000E-03 0. -1.
         11   -1    0    0    0    0 -0.00000000000E+00 -0.00000000000E+00 -0.45593999997E+02  0.45594000000E+02  0.51100000000E-03 0.  1.
    9900012    2    1    2    0    0 -0.22775422628E+02  0.31779339925E+02  0.22371122297E+02  0.46142318356E+02  0.10000005425E+02 0.  0.
        -12    1    1    2    0    0  0.22775422628E+02 -0.31779339925E+02 -0.22371122297E+02  0.45045681644E+02  0.00000000000E+00 0.  1.
         11    1    3    3    0    0 -0.41204101883E+00  0.33328741419E+01  0.10432438353E+01  0.35165588020E+01  0.51100000000E-03 0. -1.
        -11    1    3    3    0    0 -0.44663480914E+01  0.66208965607E+01  0.14845147202E+01  0.81233195651E+01  0.51100000000E-03 0.  1.
         12    1    3    3    0    0 -0.17897033518E+02  0.21825569222E+02  0.19843363742E+02  0.34502439989E+02  0.00000000000E+00 0. -1.
</event>
<event>
 7    1  0.3910495E-008  0.4614232E+02  0.7816164E-02  0.1320468E+00
        -11   -1    0    0    0    0  0.00000000000E+00  0.00000000000E+00  0.45593999997E+02  0.45594000000E+02  0.51100000000E-03 0.  1.
         11   -1    0    0    0    0 -0.00000000000E+00 -0.00000000000E+00 -0.45593999997E+02  0.45594000000E+02  0.51100000000E-03 0. -1.
    9900012    2    1    2    0    0  0.27647903088E+02  0.16032153701E+02 -0.31743931318E+02  0.46142315712E+02  0.99999813123E+01 0.  0.
        -12    1    1    2    0    0 -0.27647903088E+02 -0.16032153701E+02  0.31743931318E+02  0.45045684288E+02  0.00000000000E+00 0.  1.
         11    1    3    3    0    0  0.40667943291E+01  0.36070746751E+01 -0.63509745900E+01  0.83597058759E+01  0.51100000000E-03 0. -1.
        -11    1    3    3    0    0  0.12213502497E+02  0.57098799140E+01 -0.18491719028E+02  0.22884843123E+02  0.51100000000E-03 0.  1.
        -12    1    3    3    0    0  0.11367606262E+02  0.67151991121E+01 -0.69012376998E+01  0.14897766713E+02  0.00000000000E+00 0.  1.
</event>
<event>
 7    1  0.3910495E-008  0.4614232E+02  0.7816164E-02  0.1320468E+00
        -11   -1    0    0    0    0  0.00000000000E+00  0.00000000000E+00  0.45593999997E+02  0.45594000000E+02  0.51100000000E-03 0.  1.
         11   -1    0    0    0    0 -0.00000000000E+00 -0.00000000000E+00 -0.45593999997E+02  0.45594000000E+02  0.51100000000E-03 0. -1.
    9900012    2    1    2    0    0  0.27079506201E+02 -0.15193186296E+02 -0.32634045735E+02  0.46142317554E+02  0.99999981147E+01 0.  0.
        -12    1    1    2    0    0 -0.27079506201E+02  0.15193186296E+02  0.32634045735E+02  0.45045682446E+02  0.00000000000E+00 0.  1.
         11    1    3    3    0    0  0.44135199638E+00  0.14297239591E-01  0.52503536626E+00  0.68604547423E+00  0.51100000000E-03 0. -1.
        -11    1    3    3    0    0  0.53906156471E+01 -0.31736467645E+01 -0.40084498438E+01  0.74295653475E+01  0.51100000000E-03 0.  1.
         12    1    3    3    0    0  0.21247538558E+02 -0.12033836771E+02 -0.29150631258E+02  0.38026706733E+02  0.00000000000E+00 0. -1.
</event>
<event>
 7    1  0.3910495E-008  0.4614232E+02  0.7816164E-02  0.1320468E+00
        -11   -1    0    0    0    0  0.00000000000E+00  0.00000000000E+00  0.45593999997E+02  0.45594000000E+02  0.51100000000E-03 0.  1.
         11   -1    0    0    0    0 -0.00000000000E+00 -0.00000000000E+00 -0.45593999997E+02  0.45594000000E+02  0.51100000000E-03 0. -1.
    9900012    2    1    2    0    0 -0.36418968900E+02 -0.26473247276E+02 -0.13926648940E+01  0.46142316161E+02  0.99999854068E+01 0.  0.
        -12    1    1    2    0    0  0.36418968900E+02  0.26473247276E+02  0.13926648940E+01  0.45045683839E+02  0.00000000000E+00 0.  1.
         11    1    3    3    0    0 -0.15623262097E+02 -0.12112976953E+02 -0.72787560365E+00  0.19782323735E+02  0.51100000000E-03 0. -1.
        -11    1    3    3    0    0 -0.86895719159E+01 -0.65182943408E+01 -0.39641168680E+01  0.11563349169E+02  0.51100000000E-03 0.  1.
        -12    1    3    3    0    0 -0.12106134887E+02 -0.78419759813E+01  0.32993275776E+01  0.14796643257E+02  0.00000000000E+00 0.  1.
</event>
<event>
 7    1  0.3910495E-008  0.4614232E+02  0.7816164E-02  0.1320468E+00
        -11   -1    0    0    0    0  0.00000000000E+00  0.00000000000E+00  0.45593999997E+02  0.45594000000E+02  0.51100000000E-03 0.  1.
         11   -1    0    0    0    0 -0.00000000000E+00 -0.00000000000E+00 -0.45593999997E+02  0.45594000000E+02  0.51100000000E-03 0. -1.
    9900012    2    1    2    0    0  0.51076137096E+01 -0.33403688091E+02 -0.29786228822E+02  0.46142317373E+02  0.99999964601E+01 0.  0.
        -12    1    1    2    0    0 -0.51076137096E+01  0.33403688091E+02  0.29786228822E+02  0.45045682627E+02  0.00000000000E+00 0.  1.
         11    1    3    3    0    0  0.14785337511E+01 -0.89672280144E+01 -0.56690884448E+01  0.10711480027E+02  0.51100000000E-03 0.  1.
        -11    1    3    3    0    0  0.47661047298E+01 -0.83548446764E+01 -0.68573828928E+01  0.11812827107E+02  0.51100000000E-03 0. -1.
         12    1    3    3    0    0 -0.11370247712E+01 -0.16081615401E+02 -0.17259757484E+02  0.23618010239E+02  0.00000000000E+00 0. -1.
</event>
<event>
 7    1  0.3910495E-008  0.4614232E+02  0.7816164E-02  0.1320468E+00
        -11   -1    0    0    0    0  0.00000000000E+00  0.00000000000E+00  0.45593999997E+02  0.45594000000E+02  0.51100000000E-03 0.  1.
         11   -1    0    0    0    0 -0.00000000000E+00 -0.00000000000E+00 -0.45593999997E+02  0.45594000000E+02  0.51100000000E-03 0. -1.
    9900012    2    1    2    0    0  0.25108035339E+01 -0.92791198577E+01 -0.44008036327E+02  0.46142318064E+02  0.10000002763E+02 0.  0.
        -12    1    1    2    0    0 -0.25108035339E+01  0.92791198577E+01  0.44008036327E+02  0.45045681936E+02  0.00000000000E+00 0.  1.
         11    1    3    3    0    0 -0.50330487581E+00 -0.81315159780E+01 -0.19323406588E+02  0.20970667856E+02  0.51100000000E-03 0. -1.
        -11    1    3    3    0    0  0.15292236103E+01  0.75289516646E+00 -0.40156432853E+01  0.43624267602E+01  0.51100000000E-03 0.  1.
         12    1    3    3    0    0  0.14848847994E+01 -0.19004990462E+01 -0.20668986453E+02  0.20809223448E+02  0.00000000000E+00 0. -1.
</event>
<event>
 7    1  0.3910495E-008  0.4614232E+02  0.7816164E-02  0.1320468E+00
        -11   -1    0    0    0    0  0.00000000000E+00  0.00000000000E+00  0.45593999997E+02  0.45594000000E+02  0.51100000000E-03 0.  1.
         11   -1    0    0    0    0 -0.00000000000E+00 -0.00000000000E+00 -0.45593999997E+02  0.45594000000E+02  0.51100000000E-03 0. -1.
    9900012    2    1    2    0    0 -0.15506509786E+02  0.41958919216E+02 -0.53019564804E+01  0.46142317743E+02  0.99999998321E+01 0.  0.
        -12    1    1    2    0    0  0.15506509786E+02 -0.41958919216E+02  0.53019564804E+01  0.45045682257E+02  0.00000000000E+00 0.  1.
         11    1    3    3    0    0 -0.11361549996E+02  0.29026706303E+02 -0.62018382822E+01  0.31782027869E+02  0.51100000000E-03 0. -1.
        -11    1    3    3    0    0 -0.22166561170E+00  0.80810630217E+01  0.25690032177E+00  0.80881835563E+01  0.51100000000E-03 0.  1.
        -12    1    3    3    0    0 -0.39232941783E+01  0.48511498914E+01  0.64298148003E+00  0.62721063179E+01  0.00000000000E+00 0.  1.
</event>
<event>
 7    1  0.3910495E-008  0.4614232E+02  0.7816164E-02  0.1320468E+00
        -11   -1    0    0    0    0  0.00000000000E+00  0.00000000000E+00  0.45593999997E+02  0.45594000000E+02  0.51100000000E-03 0.  1.
         11   -1    0    0    0    0 -0.00000000000E+00 -0.00000000000E+00 -0.45593999997E+02  0.45594000000E+02  0.51100000000E-03 0. -1.
    9900012    2    1    2    0    0 -0.11174470918E+02  0.24945522376E+02 -0.35804546928E+02  0.46142317991E+02  0.10000002099E+02 0.  0.
        -12    1    1    2    0    0  0.11174470918E+02 -0.24945522376E+02  0.35804546928E+02  0.45045682009E+02  0.00000000000E+00 0.  1.
         11    1    3    3    0    0 -0.56376420290E+01  0.11380893954E+02 -0.20371971338E+02  0.24006769281E+02  0.51100000000E-03 0. -1.
        -11    1    3    3    0    0 -0.47970362181E+01  0.43925732356E+01 -0.79754294387E+01  0.10291439700E+02  0.51100000000E-03 0.  1.
        -12    1    3    3    0    0 -0.73979267043E+00  0.91720551856E+01 -0.74571461518E+01  0.11844109010E+02  0.00000000000E+00 0.  1.
</event>
<event>
 7    1  0.3910495E-008  0.4614232E+02  0.7816164E-02  0.1320468E+00
        -11   -1    0    0    0    0  0.00000000000E+00  0.00000000000E+00  0.45593999997E+02  0.45594000000E+02  0.51100000000E-03 0. -1.
         11   -1    0    0    0    0 -0.00000000000E+00 -0.00000000000E+00 -0.45593999997E+02  0.45594000000E+02  0.51100000000E-03 0.  1.
    9900012    2    1    2    0    0  0.28210215761E+02 -0.17205947608E+01  0.35076156137E+02  0.46142318198E+02  0.10000003987E+02 0.  0.
        -12    1    1    2    0    0 -0.28210215761E+02  0.17205947608E+01 -0.35076156137E+02  0.45045681802E+02  0.00000000000E+00 0.  1.
         11    1    3    3    0    0  0.13215991053E+02  0.15836126759E+01  0.16438635795E+02  0.21151808331E+02  0.51100000000E-03 0. -1.
        -11    1    3    3    0    0  0.15279004885E+01  0.16728396897E+01  0.20802269901E+01  0.30757465958E+01  0.51100000000E-03 0.  1.
        -12    1    3    3    0    0  0.13466324219E+02 -0.49770471264E+01  0.16557293352E+02  0.21914763271E+02  0.00000000000E+00 0.  1.
</event>
<event>
 7    1  0.3910495E-008  0.4614232E+02  0.7816164E-02  0.1320468E+00
        -11   -1    0    0    0    0  0.00000000000E+00  0.00000000000E+00  0.45593999997E+02  0.45594000000E+02  0.51100000000E-03 0.  1.
         11   -1    0    0    0    0 -0.00000000000E+00 -0.00000000000E+00 -0.45593999997E+02  0.45594000000E+02  0.51100000000E-03 0. -1.
    9900012    2    1    2    0    0 -0.13153139512E+02  0.35485488373E+02 -0.24431301627E+02  0.46142318039E+02  0.10000002538E+02 0.  0.
        -12    1    1    2    0    0  0.13153139512E+02 -0.35485488373E+02  0.24431301627E+02  0.45045681961E+02  0.00000000000E+00 0.  1.
         11    1    3    3    0    0 -0.56296650008E+01  0.12983812844E+02 -0.10982076497E+02  0.17913082606E+02  0.51100000000E-03 0.  1.
        -11    1    3    3    0    0 -0.22298448142E+01  0.15931348112E+02 -0.67070836565E+01  0.17428856303E+02  0.51100000000E-03 0. -1.
        -12    1    3    3    0    0 -0.52936296969E+01  0.65703274164E+01 -0.67421414736E+01  0.10800379131E+02  0.00000000000E+00 0.  1.
</event>
<event>
 7    1  0.3910495E-008  0.4614232E+02  0.7816164E-02  0.1320468E+00
        -11   -1    0    0    0    0  0.00000000000E+00  0.00000000000E+00  0.45593999997E+02  0.45594000000E+02  0.51100000000E-03 0. -1.
         11   -1    0    0    0    0 -0.00000000000E+00 -0.00000000000E+00 -0.45593999997E+02  0.45594000000E+02  0.51100000000E-03 0.  1.
    9900012    2    1    2    0    0  0.40241115101E+02 -0.19965352056E+02  0.33392274177E+01  0.46142322438E+02  0.10000042650E+02 0.  0.
        -12    1    1    2    0    0 -0.40241115101E+02  0.19965352056E+02 -0.33392274177E+01  0.45045677562E+02  0.00000000000E+00 0.  1.
         11    1    3    3    0    0  0.60645324730E+01 -0.48384347047E+01  0.23032921430E+01  0.80928461906E+01  0.51100000000E-03 0. -1.
        -11    1    3    3    0    0  0.22406256513E+02 -0.12385463639E+02  0.31019010851E+01  0.25788792741E+02  0.51100000000E-03 0.  1.
         12    1    3    3    0    0  0.11770326115E+02 -0.27414537124E+01 -0.20659658104E+01  0.12260683506E+02  0.00000000000E+00 0. -1.
</event>
<event>
 7    1  0.3910495E-008  0.4614232E+02  0.7816164E-02  0.1320468E+00
        -11   -1    0    0    0    0  0.00000000000E+00  0.00000000000E+00  0.45593999997E+02  0.45594000000E+02  0.51100000000E-03 0. -1.
         11   -1    0    0    0    0 -0.00000000000E+00 -0.00000000000E+00 -0.45593999997E+02  0.45594000000E+02  0.51100000000E-03 0.  1.
    9900012    2    1    2    0    0 -0.22899393171E+02 -0.36993497787E+02  0.11671008137E+02  0.46142317442E+02  0.99999970934E+01 0.  0.
        -12    1    1    2    0    0  0.22899393171E+02  0.36993497787E+02 -0.11671008137E+02  0.45045682558E+02  0.00000000000E+00 0.  1.
         11    1    3    3    0    0 -0.12551542093E+02 -0.24195565453E+02  0.62889359776E+01  0.27973510907E+02  0.51100000000E-03 0. -1.
        -11    1    3    3    0    0 -0.98808749617E+01 -0.13226085851E+02  0.45536776939E+01  0.17125916552E+02  0.51100000000E-03 0.  1.
        -12    1    3    3    0    0 -0.46697611633E+00  0.42815351619E+00  0.82839446529E+00  0.10428899831E+01  0.00000000000E+00 0.  1.
</event>
<event>
 7    1  0.3910495E-008  0.4614232E+02  0.7816164E-02  0.1320468E+00
        -11   -1    0    0    0    0  0.00000000000E+00  0.00000000000E+00  0.45593999997E+02  0.45594000000E+02  0.51100000000E-03 0.  1.
         11   -1    0    0    0    0 -0.00000000000E+00 -0.00000000000E+00 -0.45593999997E+02  0.45594000000E+02  0.51100000000E-03 0. -1.
    9900012    2    1    2    0    0  0.27764842684E+02  0.13862045360E+02 -0.32650738710E+02  0.46142317308E+02  0.99999958694E+01 0.  0.
        -12    1    1    2    0    0 -0.27764842684E+02 -0.13862045360E+02  0.32650738710E+02  0.45045682692E+02  0.00000000000E+00 0.  1.
         11    1    3    3    0    0  0.12695308718E+01 -0.11791755643E+01 -0.69058519259E+00  0.18652270144E+01  0.51100000000E-03 0. -1.
        -11    1    3    3    0    0  0.21891157243E+02  0.12089240675E+02 -0.24337722639E+02  0.34895519040E+02  0.51100000000E-03 0.  1.
         12    1    3    3    0    0  0.46041545694E+01  0.29519802493E+01 -0.76224308790E+01  0.93815712541E+01  0.00000000000E+00 0. -1.
</event>
<event>
 7    1  0.3910495E-008  0.4614232E+02  0.7816164E-02  0.1320468E+00
        -11   -1    0    0    0    0  0.00000000000E+00  0.00000000000E+00  0.45593999997E+02  0.45594000000E+02  0.51100000000E-03 0.  1.
         11   -1    0    0    0    0 -0.00000000000E+00 -0.00000000000E+00 -0.45593999997E+02  0.45594000000E+02  0.51100000000E-03 0. -1.
    9900012    2    1    2    0    0 -0.27873572981E+02 -0.21392087138E+02 -0.28187870233E+02  0.46142317731E+02  0.99999997245E+01 0.  0.
        -12    1    1    2    0    0  0.27873572981E+02  0.21392087138E+02  0.28187870233E+02  0.45045682269E+02  0.00000000000E+00 0.  1.
         11    1    3    3    0    0 -0.38833813392E+01 -0.37076979097E+01 -0.20281898565E+01  0.57394449881E+01  0.51100000000E-03 0. -1.
        -11    1    3    3    0    0 -0.29392079145E+01 -0.59902265481E+01 -0.48757058925E+01  0.82640344550E+01  0.51100000000E-03 0.  1.
         12    1    3    3    0    0 -0.21050983727E+02 -0.11694162680E+02 -0.21283974484E+02  0.32138838288E+02  0.00000000000E+00 0. -1.
</event>
<event>
 7    1  0.3910495E-008  0.4614232E+02  0.7816164E-02  0.1320468E+00
        -11   -1    0    0    0    0  0.00000000000E+00  0.00000000000E+00  0.45593999997E+02  0.45594000000E+02  0.51100000000E-03 0.  1.
         11   -1    0    0    0    0 -0.00000000000E+00 -0.00000000000E+00 -0.45593999997E+02  0.45594000000E+02  0.51100000000E-03 0. -1.
    9900012    2    1    2    0    0 -0.26895318183E+01  0.20698190584E+02 -0.39918227970E+02  0.46142316532E+02  0.99999887903E+01 0.  0.
        -12    1    1    2    0    0  0.26895318183E+01 -0.20698190584E+02  0.39918227970E+02  0.45045683468E+02  0.00000000000E+00 0.  1.
         11    1    3    3    0    0  0.18382986437E+01  0.10440463507E+02 -0.23160411938E+02  0.25471303491E+02  0.51100000000E-03 0. -1.
        -11    1    3    3    0    0 -0.53474046820E+01  0.91781550975E+01 -0.13777198482E+02  0.17396679744E+02  0.51100000000E-03 0.  1.
        -12    1    3    3    0    0  0.81957421991E+00  0.10795719793E+01 -0.29806175494E+01  0.32743332965E+01  0.00000000000E+00 0.  1.
</event>
<event>
 7    1  0.3910495E-008  0.4614232E+02  0.7816164E-02  0.1320468E+00
        -11   -1    0    0    0    0  0.00000000000E+00  0.00000000000E+00  0.45593999997E+02  0.45594000000E+02  0.51100000000E-03 0.  1.
         11   -1    0    0    0    0 -0.00000000000E+00 -0.00000000000E+00 -0.45593999997E+02  0.45594000000E+02  0.51100000000E-03 0. -1.
    9900012    2    1    2    0    0  0.34689915070E+02  0.27934122189E+02  0.67385592891E+01  0.46142316841E+02  0.99999916056E+01 0.  0.
        -12    1    1    2    0    0 -0.34689915070E+02 -0.27934122189E+02 -0.67385592891E+01  0.45045683159E+02  0.00000000000E+00 0.  1.
         11    1    3    3    0    0  0.33188795153E+01  0.33225738193E+01 -0.13506290063E+01  0.48865792734E+01  0.51100000000E-03 0. -1.
        -11    1    3    3    0    0  0.23412785687E+02  0.14815237556E+02  0.40328215607E+01  0.27998454377E+02  0.51100000000E-03 0.  1.
        -12    1    3    3    0    0  0.79582498671E+01  0.97963108136E+01  0.40563667347E+01  0.13257283190E+02  0.00000000000E+00 0.  1.
</event>
<event>
 7    1  0.3910495E-008  0.4614232E+02  0.7816164E-02  0.1320468E+00
        -11   -1    0    0    0    0  0.00000000000E+00  0.00000000000E+00  0.45593999997E+02  0.45594000000E+02  0.51100000000E-03 0.  1.
         11   -1    0    0    0    0 -0.00000000000E+00 -0.00000000000E+00 -0.45593999997E+02  0.45594000000E+02  0.51100000000E-03 0. -1.
    9900012    2    1    2    0    0  0.34289514327E+02  0.23367311914E+02 -0.17530300909E+02  0.46142317534E+02  0.99999979307E+01 0.  0.
        -12    1    1    2    0    0 -0.34289514327E+02 -0.23367311914E+02  0.17530300909E+02  0.45045682466E+02  0.00000000000E+00 0.  1.
         11    1    3    3    0    0  0.95213252132E+01  0.50158410044E+01 -0.61410184538E+01  0.12390577174E+02  0.51100000000E-03 0. -1.
        -11    1    3    3    0    0  0.47262409710E+01  0.31622601812E+00 -0.25387579362E+01  0.53742575981E+01  0.51100000000E-03 0.  1.
         12    1    3    3    0    0  0.20041948142E+02  0.18035244892E+02 -0.88505245190E+01  0.28377482762E+02  0.00000000000E+00 0. -1.
</event>
<event>
 7    1  0.3910495E-008  0.4614232E+02  0.7816164E-02  0.1320468E+00
        -11   -1    0    0    0    0  0.00000000000E+00  0.00000000000E+00  0.45593999997E+02  0.45594000000E+02  0.51100000000E-03 0.  1.
         11   -1    0    0    0    0 -0.00000000000E+00 -0.00000000000E+00 -0.45593999997E+02  0.45594000000E+02  0.51100000000E-03 0. -1.
    9900012    2    1    2    0    0  0.10041406810E+02 -0.12091995902E+02 -0.42214538709E+02  0.46142317698E+02  0.99999994284E+01 0.  0.
        -12    1    1    2    0    0 -0.10041406810E+02  0.12091995902E+02  0.42214538709E+02  0.45045682302E+02  0.00000000000E+00 0.  1.
         11    1    3    3    0    0  0.50652315029E+00 -0.58550364841E-02 -0.67371348025E+01  0.67561516851E+01  0.51100000000E-03 0. -1.
        -11    1    3    3    0    0 -0.40089347383E+00 -0.33002758263E+01 -0.38284241892E+01  0.50704406258E+01  0.51100000000E-03 0.  1.
         12    1    3    3    0    0  0.99357771340E+01 -0.87858650394E+01 -0.31648979717E+02  0.34315725387E+02  0.00000000000E+00 0. -1.
</event>
<event>
 7    1  0.3910495E-008  0.4614232E+02  0.7816164E-02  0.1320468E+00
        -11   -1    0    0    0    0  0.00000000000E+00  0.00000000000E+00  0.45593999997E+02  0.45594000000E+02  0.51100000000E-03 0.  1.
         11   -1    0    0    0    0 -0.00000000000E+00 -0.00000000000E+00 -0.45593999997E+02  0.45594000000E+02  0.51100000000E-03 0. -1.
    9900012    2    1    2    0    0 -0.14896588612E+02  0.10973823183E+02 -0.41070430469E+02  0.46142318670E+02  0.10000008290E+02 0.  0.
        -12    1    1    2    0    0  0.14896588612E+02 -0.10973823183E+02  0.41070430469E+02  0.45045681330E+02  0.00000000000E+00 0.  1.
         11    1    3    3    0    0 -0.82550089084E+01  0.20273789893E+01 -0.21935446401E+02  0.23524864435E+02  0.51100000000E-03 0. -1.
        -11    1    3    3    0    0  0.36542627050E+00  0.47837491417E-01  0.14879889056E-01  0.36884476000E+00  0.51100000000E-03 0.  1.
         12    1    3    3    0    0 -0.70070059742E+01  0.88986067021E+01 -0.19149863958E+02  0.22248609475E+02  0.00000000000E+00 0. -1.
</event>
<event>
 7    1  0.3910495E-008  0.4614232E+02  0.7816164E-02  0.1320468E+00
        -11   -1    0    0    0    0  0.00000000000E+00  0.00000000000E+00  0.45593999997E+02  0.45594000000E+02  0.51100000000E-03 0. -1.
         11   -1    0    0    0    0 -0.00000000000E+00 -0.00000000000E+00 -0.45593999997E+02  0.45594000000E+02  0.51100000000E-03 0.  1.
    9900012    2    1    2    0    0  0.86599206585E+01  0.40960467385E+02 -0.16624058801E+02  0.46142318240E+02  0.10000004365E+02 0.  0.
        -12    1    1    2    0    0 -0.86599206585E+01 -0.40960467385E+02  0.16624058801E+02  0.45045681760E+02  0.00000000000E+00 0.  1.
         11    1    3    3    0    0 -0.19415027582E+00  0.76527322776E+01 -0.24948328410E+01  0.80514717169E+01  0.51100000000E-03 0. -1.
        -11    1    3    3    0    0  0.69136721499E+01  0.32366581158E+02 -0.13982809126E+02  0.35929283179E+02  0.51100000000E-03 0.  1.
        -12    1    3    3    0    0  0.19403987844E+01  0.94115394952E+00 -0.14641683369E+00  0.21615633436E+01  0.00000000000E+00 0.  1.
</event>
<event>
 7    1  0.3910495E-008  0.4614232E+02  0.7816164E-02  0.1320468E+00
        -11   -1    0    0    0    0  0.00000000000E+00  0.00000000000E+00  0.45593999997E+02  0.45594000000E+02  0.51100000000E-03 0.  1.
         11   -1    0    0    0    0 -0.00000000000E+00 -0.00000000000E+00 -0.45593999997E+02  0.45594000000E+02  0.51100000000E-03 0. -1.
    9900012    2    1    2    0    0  0.19903634030E+01 -0.44983480582E+02  0.12800333236E+01  0.46142316998E+02  0.99999930435E+01 0.  0.
        -12    1    1    2    0    0 -0.19903634030E+01  0.44983480582E+02 -0.12800333236E+01  0.45045683002E+02  0.00000000000E+00 0.  1.
         11    1    3    3    0    0  0.22501306547E+01 -0.61911871053E+01  0.13225908074E+01  0.67188639249E+01  0.51100000000E-03 0.  1.
        -11    1    3    3    0    0 -0.34582446283E+01 -0.15938094885E+02 -0.86483804664E+00  0.16331878936E+02  0.51100000000E-03 0. -1.
         12    1    3    3    0    0  0.31984773766E+01 -0.22854198592E+02  0.82228056287E+00  0.23091574137E+02  0.00000000000E+00 0. -1.
</event>
<event>
 7    1  0.3910495E-008  0.4614232E+02  0.7816164E-02  0.1320468E+00
        -11   -1    0    0    0    0  0.00000000000E+00  0.00000000000E+00  0.45593999997E+02  0.45594000000E+02  0.51100000000E-03 0.  1.
         11   -1    0    0    0    0 -0.00000000000E+00 -0.00000000000E+00 -0.45593999997E+02  0.45594000000E+02  0.51100000000E-03 0. -1.
    9900012    2    1    2    0    0  0.84278089334E+01  0.34634165265E+02 -0.27541970317E+02  0.46142317677E+02  0.99999992328E+01 0.  0.
        -12    1    1    2    0    0 -0.84278089334E+01 -0.34634165265E+02  0.27541970317E+02  0.45045682323E+02  0.00000000000E+00 0.  1.
         11    1    3    3    0    0  0.52504008821E+01  0.10248762462E+02 -0.68275064403E+01  0.13387258340E+02  0.51100000000E-03 0. -1.
        -11    1    3    3    0    0  0.11867249262E+01  0.41592326560E+01 -0.99773613315E+00  0.44388072711E+01  0.51100000000E-03 0.  1.
         12    1    3    3    0    0  0.19906831251E+01  0.20226170147E+02 -0.19716727744E+02  0.28316252066E+02  0.00000000000E+00 0. -1.
</event>
<event>
 7    1  0.3910495E-008  0.4614232E+02  0.7816164E-02  0.1320468E+00
        -11   -1    0    0    0    0  0.00000000000E+00  0.00000000000E+00  0.45593999997E+02  0.45594000000E+02  0.51100000000E-03 0.  1.
         11   -1    0    0    0    0 -0.00000000000E+00 -0.00000000000E+00 -0.45593999997E+02  0.45594000000E+02  0.51100000000E-03 0. -1.
    9900012    2    1    2    0    0  0.31642999716E+02  0.20594499020E+02 -0.24570319803E+02  0.46142318341E+02  0.10000005290E+02 0.  0.
        -12    1    1    2    0    0 -0.31642999716E+02 -0.20594499020E+02  0.24570319803E+02  0.45045681659E+02  0.00000000000E+00 0.  1.
         11    1    3    3    0    0  0.18700889147E+02  0.84302720545E+01 -0.11446237253E+02  0.23490617048E+02  0.51100000000E-03 0. -1.
        -11    1    3    3    0    0  0.70628617676E+01  0.62056242027E+01 -0.38527625604E+01  0.10160588945E+02  0.51100000000E-03 0.  1.
         12    1    3    3    0    0  0.58792488013E+01  0.59586027625E+01 -0.92713199899E+01  0.12491112349E+02  0.00000000000E+00 0. -1.
</event>
<event>
 7    1  0.3910495E-008  0.4614232E+02  0.7816164E-02  0.1320468E+00
        -11   -1    0    0    0    0  0.00000000000E+00  0.00000000000E+00  0.45593999997E+02  0.45594000000E+02  0.51100000000E-03 0.  1.
         11   -1    0    0    0    0 -0.00000000000E+00 -0.00000000000E+00 -0.45593999997E+02  0.45594000000E+02  0.51100000000E-03 0. -1.
    9900012    2    1    2    0    0 -0.22784021885E+02  0.22400028090E+02 -0.31752803371E+02  0.46142318369E+02  0.10000005545E+02 0.  0.
        -12    1    1    2    0    0  0.22784021885E+02 -0.22400028090E+02  0.31752803371E+02  0.45045681631E+02  0.00000000000E+00 0.  1.
         11    1    3    3    0    0 -0.57638706069E+01  0.44680106497E+01 -0.82389328477E+01  0.11002969521E+02  0.51100000000E-03 0. -1.
        -11    1    3    3    0    0 -0.28143209051E+01  0.23518585473E+01 -0.84946212598E+01  0.92525797155E+01  0.51100000000E-03 0.  1.
        -12    1    3    3    0    0 -0.14205830373E+02  0.15580158893E+02 -0.15019249263E+02  0.25886769133E+02  0.00000000000E+00 0.  1.
</event>
<event>
 7    1  0.3910495E-008  0.4614232E+02  0.7816164E-02  0.1320468E+00
        -11   -1    0    0    0    0  0.00000000000E+00  0.00000000000E+00  0.45593999997E+02  0.45594000000E+02  0.51100000000E-03 0.  1.
         11   -1    0    0    0    0 -0.00000000000E+00 -0.00000000000E+00 -0.45593999997E+02  0.45594000000E+02  0.51100000000E-03 0. -1.
    9900012    2    1    2    0    0 -0.10985661260E+02 -0.25008639582E+02 -0.35818941827E+02  0.46142318734E+02  0.10000008871E+02 0.  0.
        -12    1    1    2    0    0  0.10985661260E+02  0.25008639582E+02  0.35818941827E+02  0.45045681266E+02  0.00000000000E+00 0.  1.
         11    1    3    3    0    0 -0.56728495778E+01 -0.15550863848E+02 -0.24651596457E+02  0.29693632262E+02  0.51100000000E-03 0. -1.
        -11    1    3    3    0    0  0.98178132852E+00 -0.92441606412E+00 -0.21054859169E+01  0.25003021505E+01  0.51100000000E-03 0.  1.
         12    1    3    3    0    0 -0.62945930109E+01 -0.85333596700E+01 -0.90618594538E+01  0.13948384322E+02  0.00000000000E+00 0. -1.
</event>
<event>
 7    1  0.3910495E-008  0.4614232E+02  0.7816164E-02  0.1320468E+00
        -11   -1    0    0    0    0  0.00000000000E+00  0.00000000000E+00  0.45593999997E+02  0.45594000000E+02  0.51100000000E-03 0.  1.
         11   -1    0    0    0    0 -0.00000000000E+00 -0.00000000000E+00 -0.45593999997E+02  0.45594000000E+02  0.51100000000E-03 0. -1.
    9900012    2    1    2    0    0  0.20388957142E+02 -0.34944063851E+02  0.19806979507E+02  0.46142316423E+02  0.99999877951E+01 0.  0.
        -12    1    1    2    0    0 -0.20388957142E+02  0.34944063851E+02 -0.19806979507E+02  0.45045683577E+02  0.00000000000E+00 0.  1.
         11    1    3    3    0    0  0.11403271801E+02 -0.21617002686E+02  0.15296664413E+02  0.28832574553E+02  0.51100000000E-03 0. -1.
        -11    1    3    3    0    0  0.31908823303E+01 -0.29640519467E+01 -0.57585051235E+00  0.43930556635E+01  0.51100000000E-03 0.  1.
        -12    1    3    3    0    0  0.57948030099E+01 -0.10363009218E+02  0.50861656059E+01  0.12916686206E+02  0.00000000000E+00 0.  1.
</event>
<event>
 7    1  0.3910495E-008  0.4614232E+02  0.7816164E-02  0.1320468E+00
        -11   -1    0    0    0    0  0.00000000000E+00  0.00000000000E+00  0.45593999997E+02  0.45594000000E+02  0.51100000000E-03 0.  1.
         11   -1    0    0    0    0 -0.00000000000E+00 -0.00000000000E+00 -0.45593999997E+02  0.45594000000E+02  0.51100000000E-03 0. -1.
    9900012    2    1    2    0    0 -0.43652680625E+01 -0.26703440255E+02 -0.36013666388E+02  0.46142318149E+02  0.10000003541E+02 0.  0.
        -12    1    1    2    0    0  0.43652680625E+01  0.26703440255E+02  0.36013666388E+02  0.45045681851E+02  0.00000000000E+00 0.  1.
         11    1    3    3    0    0 -0.21191979375E+01 -0.27292130434E+01 -0.27802219562E+01  0.44350014793E+01  0.51100000000E-03 0. -1.
        -11    1    3    3    0    0 -0.17255301446E+01 -0.10160886793E+01 -0.44947662553E+01  0.49206518303E+01  0.51100000000E-03 0.  1.
         12    1    3    3    0    0 -0.52053998035E+00 -0.22958138532E+02 -0.28738678176E+02  0.36786664840E+02  0.00000000000E+00 0. -1.
</event>
<event>
 7    1  0.3910495E-008  0.4614232E+02  0.7816164E-02  0.1320468E+00
        -11   -1    0    0    0    0  0.00000000000E+00  0.00000000000E+00  0.45593999997E+02  0.45594000000E+02  0.51100000000E-03 0. -1.
         11   -1    0    0    0    0 -0.00000000000E+00 -0.00000000000E+00 -0.45593999997E+02  0.45594000000E+02  0.51100000000E-03 0.  1.
    9900012    2    1    2    0    0  0.43865124597E+01 -0.15074119596E+02  0.42221356783E+02  0.46142317169E+02  0.99999945997E+01 0.  0.
        -12    1    1    2    0    0 -0.43865124597E+01  0.15074119596E+02 -0.42221356783E+02  0.45045682831E+02  0.00000000000E+00 0.  1.
         11    1    3    3    0    0  0.72785244494E+00 -0.27838190791E+01  0.48199961333E+01  0.56135355021E+01  0.51100000000E-03 0. -1.
        -11    1    3    3    0    0  0.21831117318E+01 -0.72768003845E+01  0.96099772665E+01  0.12250284241E+02  0.51100000000E-03 0.  1.
        -12    1    3    3    0    0  0.14755482830E+01 -0.50135001323E+01  0.27791383383E+02  0.28278497425E+02  0.00000000000E+00 0.  1.
</event>
<event>
 7    1  0.3910495E-008  0.4614232E+02  0.7816164E-02  0.1320468E+00
        -11   -1    0    0    0    0  0.00000000000E+00  0.00000000000E+00  0.45593999997E+02  0.45594000000E+02  0.51100000000E-03 0.  1.
         11   -1    0    0    0    0 -0.00000000000E+00 -0.00000000000E+00 -0.45593999997E+02  0.45594000000E+02  0.51100000000E-03 0. -1.
    9900012    2    1    2    0    0  0.25899256823E+02  0.39030189985E+01 -0.36648446144E+02  0.46142315789E+02  0.99999820160E+01 0.  0.
        -12    1    1    2    0    0 -0.25899256823E+02 -0.39030189985E+01  0.36648446144E+02  0.45045684211E+02  0.00000000000E+00 0.  1.
         11    1    3    3    0    0  0.58823053165E+01  0.23133078025E+01 -0.14018811253E+02  0.15377905515E+02  0.51100000000E-03 0. -1.
        -11    1    3    3    0    0  0.10597898302E+02 -0.86175919152E-01 -0.79759285323E+01  0.13264173963E+02  0.51100000000E-03 0.  1.
        -12    1    3    3    0    0  0.94190532047E+01  0.16758871152E+01 -0.14653706359E+02  0.17500236311E+02  0.00000000000E+00 0.  1.
</event>
<event>
 7    1  0.3910495E-008  0.4614232E+02  0.7816164E-02  0.1320468E+00
        -11   -1    0    0    0    0  0.00000000000E+00  0.00000000000E+00  0.45593999997E+02  0.45594000000E+02  0.51100000000E-03 0. -1.
         11   -1    0    0    0    0 -0.00000000000E+00 -0.00000000000E+00 -0.45593999997E+02  0.45594000000E+02  0.51100000000E-03 0.  1.
    9900012    2    1    2    0    0  0.33530099325E+02 -0.30410671302E+01  0.29926541045E+02  0.46142317533E+02  0.99999979210E+01 0.  0.
        -12    1    1    2    0    0 -0.33530099325E+02  0.30410671302E+01 -0.29926541045E+02  0.45045682467E+02  0.00000000000E+00 0.  1.
         11    1    3    3    0    0  0.52791241469E+01 -0.29677862037E+01  0.53724426992E+01  0.80956807945E+01  0.51100000000E-03 0. -1.
        -11    1    3    3    0    0  0.26410518795E+02 -0.18365195164E+01  0.22934188002E+02  0.35026636814E+02  0.51100000000E-03 0.  1.
        -12    1    3    3    0    0  0.18404563830E+01  0.17632385899E+01  0.16199103430E+01  0.30199999242E+01  0.00000000000E+00 0.  1.
</event>
<event>
 7    1  0.3910495E-008  0.4614232E+02  0.7816164E-02  0.1320468E+00
        -11   -1    0    0    0    0  0.00000000000E+00  0.00000000000E+00  0.45593999997E+02  0.45594000000E+02  0.51100000000E-03 0.  1.
         11   -1    0    0    0    0 -0.00000000000E+00 -0.00000000000E+00 -0.45593999997E+02  0.45594000000E+02  0.51100000000E-03 0. -1.
    9900012    2    1    2    0    0 -0.27614549426E+02 -0.35498837554E+02 -0.25264040129E+01  0.46142317355E+02  0.99999962971E+01 0.  0.
        -12    1    1    2    0    0  0.27614549426E+02  0.35498837554E+02  0.25264040129E+01  0.45045682645E+02  0.00000000000E+00 0.  1.
         11    1    3    3    0    0 -0.15513678591E+02 -0.21413521605E+02  0.19790236007E+01  0.26516592270E+02  0.51100000000E-03 0. -1.
        -11    1    3    3    0    0 -0.96086796465E+00 -0.16246397423E+01  0.85603894568E+00  0.20725647096E+01  0.51100000000E-03 0.  1.
         12    1    3    3    0    0 -0.11140002871E+02 -0.12460676207E+02 -0.53614665593E+01  0.17553160375E+02  0.00000000000E+00 0. -1.
</event>
<event>
 7    1  0.3910495E-008  0.4614232E+02  0.7816164E-02  0.1320468E+00
        -11   -1    0    0    0    0  0.00000000000E+00  0.00000000000E+00  0.45593999997E+02  0.45594000000E+02  0.51100000000E-03 0.  1.
         11   -1    0    0    0    0 -0.00000000000E+00 -0.00000000000E+00 -0.45593999997E+02  0.45594000000E+02  0.51100000000E-03 0. -1.
    9900012    2    1    2    0    0  0.13399699465E+02  0.36736312721E+02 -0.22360788365E+02  0.46142317916E+02  0.10000001413E+02 0.  0.
        -12    1    1    2    0    0 -0.13399699465E+02 -0.36736312721E+02  0.22360788365E+02  0.45045682084E+02  0.00000000000E+00 0.  1.
         11    1    3    3    0    0 -0.23563994339E-01  0.33556989386E+01 -0.52114821850E+01  0.61984528275E+01  0.51100000000E-03 0. -1.
        -11    1    3    3    0    0 -0.12544866315E+00  0.23572629867E+00 -0.10259746502E+00  0.28606075565E+00  0.51100000000E-03 0.  1.
         12    1    3    3    0    0  0.13548712123E+02  0.33144887484E+02 -0.17046708715E+02  0.39657804333E+02  0.00000000000E+00 0. -1.
</event>
<event>
 7    1  0.3910495E-008  0.4614232E+02  0.7816164E-02  0.1320468E+00
        -11   -1    0    0    0    0  0.00000000000E+00  0.00000000000E+00  0.45593999997E+02  0.45594000000E+02  0.51100000000E-03 0.  1.
         11   -1    0    0    0    0 -0.00000000000E+00 -0.00000000000E+00 -0.45593999997E+02  0.45594000000E+02  0.51100000000E-03 0. -1.
    9900012    2    1    2    0    0  0.17082554736E+02  0.38945301269E+02 -0.14851372081E+02  0.46142318521E+02  0.10000006925E+02 0.  0.
        -12    1    1    2    0    0 -0.17082554736E+02 -0.38945301269E+02  0.14851372081E+02  0.45045681479E+02  0.00000000000E+00 0.  1.
         11    1    3    3    0    0  0.78342387733E+01  0.20440847332E+02 -0.72737061526E+01  0.23067516951E+02  0.51100000000E-03 0. -1.
        -11    1    3    3    0    0  0.83519852870E+01  0.15874359210E+02 -0.37175243312E+01  0.18318595088E+02  0.51100000000E-03 0.  1.
        -12    1    3    3    0    0  0.89633067600E+00  0.26300947265E+01 -0.38601415970E+01  0.47562064821E+01  0.00000000000E+00 0.  1.
</event>
<event>
 7    1  0.3910495E-008  0.4614232E+02  0.7816164E-02  0.1320468E+00
        -11   -1    0    0    0    0  0.00000000000E+00  0.00000000000E+00  0.45593999997E+02  0.45594000000E+02  0.51100000000E-03 0.  1.
         11   -1    0    0    0    0 -0.00000000000E+00 -0.00000000000E+00 -0.45593999997E+02  0.45594000000E+02  0.51100000000E-03 0. -1.
    9900012    2    1    2    0    0 -0.13882041578E+02  0.18267634472E+02 -0.38764622627E+02  0.46142317466E+02  0.99999973049E+01 0.  0.
        -12    1    1    2    0    0  0.13882041578E+02 -0.18267634472E+02  0.38764622627E+02  0.45045682534E+02  0.00000000000E+00 0.  1.
         11    1    3    3    0    0  0.12107370177E+01  0.48771729621E+00 -0.14076563389E+01  0.19197002153E+01  0.51100000000E-03 0.  1.
        -11    1    3    3    0    0 -0.49074940759E+01  0.76627275678E+01 -0.17437570612E+02  0.19669005084E+02  0.51100000000E-03 0. -1.
        -12    1    3    3    0    0 -0.10185284519E+02  0.10117189608E+02 -0.19919395677E+02  0.24553612166E+02  0.00000000000E+00 0.  1.
</event>
<event>
 7    1  0.3910495E-008  0.4614232E+02  0.7816164E-02  0.1320468E+00
        -11   -1    0    0    0    0  0.00000000000E+00  0.00000000000E+00  0.45593999997E+02  0.45594000000E+02  0.51100000000E-03 0. -1.
         11   -1    0    0    0    0 -0.00000000000E+00 -0.00000000000E+00 -0.45593999997E+02  0.45594000000E+02  0.51100000000E-03 0.  1.
    9900012    2    1    2    0    0 -0.35257647855E+01 -0.39470907757E+02  0.21417977105E+02  0.46142319632E+02  0.10000017064E+02 0.  0.
        -12    1    1    2    0    0  0.35257647855E+01  0.39470907757E+02 -0.21417977105E+02  0.45045680368E+02  0.00000000000E+00 0.  1.
         11    1    3    3    0    0 -0.21960703554E+01 -0.92639905234E+01  0.54524277349E+01  0.10971472731E+02  0.51100000000E-03 0. -1.
        -11    1    3    3    0    0 -0.35522410939E+01 -0.56026418341E+01  0.33851574882E+01  0.74476374637E+01  0.51100000000E-03 0.  1.
         12    1    3    3    0    0  0.22225466638E+01 -0.24604275400E+02  0.12580391882E+02  0.27723209438E+02  0.00000000000E+00 0. -1.
</event>
<event>
 7    1  0.3910495E-008  0.4614232E+02  0.7816164E-02  0.1320468E+00
        -11   -1    0    0    0    0  0.00000000000E+00  0.00000000000E+00  0.45593999997E+02  0.45594000000E+02  0.51100000000E-03 0.  1.
         11   -1    0    0    0    0 -0.00000000000E+00 -0.00000000000E+00 -0.45593999997E+02  0.45594000000E+02  0.51100000000E-03 0. -1.
    9900012    2    1    2    0    0  0.46677067723E+01 -0.47825345700E+00 -0.44800640022E+02  0.46142316974E+02  0.99999928199E+01 0.  0.
        -12    1    1    2    0    0 -0.46677067723E+01  0.47825345700E+00  0.44800640022E+02  0.45045683026E+02  0.00000000000E+00 0.  1.
         11    1    3    3    0    0 -0.17130598421E+01  0.58162207395E+00 -0.20242980225E+02  0.20323658797E+02  0.51100000000E-03 0. -1.
        -11    1    3    3    0    0  0.14977768616E+01  0.11090083592E+01 -0.24714973959E+01  0.30954054188E+01  0.51100000000E-03 0.  1.
        -12    1    3    3    0    0  0.48829897529E+01 -0.21688838901E+01 -0.22086162402E+02  0.22723252758E+02  0.00000000000E+00 0.  1.
</event>
<event>
 7    1  0.3910495E-008  0.4614232E+02  0.7816164E-02  0.1320468E+00
        -11   -1    0    0    0    0  0.00000000000E+00  0.00000000000E+00  0.45593999997E+02  0.45594000000E+02  0.51100000000E-03 0.  1.
         11   -1    0    0    0    0 -0.00000000000E+00 -0.00000000000E+00 -0.45593999997E+02  0.45594000000E+02  0.51100000000E-03 0. -1.
    9900012    2    1    2    0    0 -0.42628928178E+02  0.13864267191E+02  0.44350936655E+01  0.46142317874E+02  0.10000001029E+02 0.  0.
        -12    1    1    2    0    0  0.42628928178E+02 -0.13864267191E+02 -0.44350936655E+01  0.45045682126E+02  0.00000000000E+00 0.  1.
         11    1    3    3    0    0 -0.15169052918E+02  0.19425389206E+01 -0.12695404150E+01  0.15345532152E+02  0.51100000000E-03 0.  1.
        -11    1    3    3    0    0 -0.68364433707E+01  0.42467271368E+01 -0.62582972823E-01  0.80483269208E+01  0.51100000000E-03 0. -1.
         12    1    3    3    0    0 -0.20623431890E+02  0.76750011332E+01  0.57672170533E+01  0.22748458801E+02  0.00000000000E+00 0. -1.
</event>
<event>
 7    1  0.3910495E-008  0.4614232E+02  0.7816164E-02  0.1320468E+00
        -11   -1    0    0    0    0  0.00000000000E+00  0.00000000000E+00  0.45593999997E+02  0.45594000000E+02  0.51100000000E-03 0.  1.
         11   -1    0    0    0    0 -0.00000000000E+00 -0.00000000000E+00 -0.45593999997E+02  0.45594000000E+02  0.51100000000E-03 0. -1.
    9900012    2    1    2    0    0 -0.13729718490E+02  0.39075696073E+02 -0.17711529387E+02  0.46142318003E+02  0.10000002203E+02 0.  0.
        -12    1    1    2    0    0  0.13729718490E+02 -0.39075696073E+02  0.17711529387E+02  0.45045681997E+02  0.00000000000E+00 0.  1.
         11    1    3    3    0    0 -0.44663667568E+01  0.21738173073E+02 -0.10308116159E+02  0.24469447471E+02  0.51100000000E-03 0. -1.
        -11    1    3    3    0    0 -0.14957737777E+01  0.69331657802E+01 -0.43978165880E+01  0.83454729004E+01  0.51100000000E-03 0.  1.
        -12    1    3    3    0    0 -0.77675779557E+01  0.10404357220E+02 -0.30055966404E+01  0.13327397631E+02  0.00000000000E+00 0.  1.
</event>
<event>
 7    1  0.3910495E-008  0.4614232E+02  0.7816164E-02  0.1320468E+00
        -11   -1    0    0    0    0  0.00000000000E+00  0.00000000000E+00  0.45593999997E+02  0.45594000000E+02  0.51100000000E-03 0.  1.
         11   -1    0    0    0    0 -0.00000000000E+00 -0.00000000000E+00 -0.45593999997E+02  0.45594000000E+02  0.51100000000E-03 0. -1.
    9900012    2    1    2    0    0  0.74473794024E+01  0.18377354990E+02 -0.40446540258E+02  0.46142320349E+02  0.10000023597E+02 0.  0.
        -12    1    1    2    0    0 -0.74473794024E+01 -0.18377354990E+02  0.40446540258E+02  0.45045679651E+02  0.00000000000E+00 0.  1.
         11    1    3    3    0    0  0.28051077386E+01  0.82286621515E+01 -0.24557735227E+02  0.26051139514E+02  0.51100000000E-03 0. -1.
        -11    1    3    3    0    0 -0.48063736843E+00  0.43891770410E+01 -0.74637833905E+01  0.86720211103E+01  0.51100000000E-03 0.  1.
         12    1    3    3    0    0  0.51229090323E+01  0.57595157973E+01 -0.84250216408E+01  0.11419159725E+02  0.00000000000E+00 0. -1.
</event>
<event>
 7    1  0.3910495E-008  0.4614232E+02  0.7816164E-02  0.1320468E+00
        -11   -1    0    0    0    0  0.00000000000E+00  0.00000000000E+00  0.45593999997E+02  0.45594000000E+02  0.51100000000E-03 0.  1.
         11   -1    0    0    0    0 -0.00000000000E+00 -0.00000000000E+00 -0.45593999997E+02  0.45594000000E+02  0.51100000000E-03 0. -1.
    9900012    2    1    2    0    0 -0.87317098045E+01 -0.14195218119E+02 -0.41849331218E+02  0.46142317666E+02  0.99999991333E+01 0.  0.
        -12    1    1    2    0    0  0.87317098045E+01  0.14195218119E+02  0.41849331218E+02  0.45045682334E+02  0.00000000000E+00 0.  1.
         11    1    3    3    0    0 -0.15882036706E+01 -0.41818081624E+01 -0.21652240850E+02  0.22109487657E+02  0.51100000000E-03 0. -1.
        -11    1    3    3    0    0  0.37893716348E+00 -0.19900327746E+01 -0.32557168196E+01  0.38345164087E+01  0.51100000000E-03 0.  1.
         12    1    3    3    0    0 -0.75224432973E+01 -0.80233771824E+01 -0.16941373548E+02  0.20198313600E+02  0.00000000000E+00 0. -1.
</event>
<event>
 7    1  0.3910495E-008  0.4614232E+02  0.7816164E-02  0.1320468E+00
        -11   -1    0    0    0    0  0.00000000000E+00  0.00000000000E+00  0.45593999997E+02  0.45594000000E+02  0.51100000000E-03 0.  1.
         11   -1    0    0    0    0 -0.00000000000E+00 -0.00000000000E+00 -0.45593999997E+02  0.45594000000E+02  0.51100000000E-03 0. -1.
    9900012    2    1    2    0    0  0.40311893849E+02  0.14827904992E+02 -0.13571955260E+02  0.46142317391E+02  0.99999966274E+01 0.  0.
        -12    1    1    2    0    0 -0.40311893849E+02 -0.14827904992E+02  0.13571955260E+02  0.45045682609E+02  0.00000000000E+00 0.  1.
         11    1    3    3    0    0  0.10688407696E+02  0.12528785035E+01 -0.40890856198E+01  0.11512271066E+02  0.51100000000E-03 0. -1.
        -11    1    3    3    0    0  0.12729959001E+02  0.95576409218E+01 -0.38902522710E+01  0.16387019837E+02  0.51100000000E-03 0.  1.
        -12    1    3    3    0    0  0.16893527152E+02  0.40173855664E+01 -0.55926173689E+01  0.18243026489E+02  0.00000000000E+00 0.  1.
</event>
<event>
 7    1  0.3910495E-008  0.4614232E+02  0.7816164E-02  0.1320468E+00
        -11   -1    0    0    0    0  0.00000000000E+00  0.00000000000E+00  0.45593999997E+02  0.45594000000E+02  0.51100000000E-03 0.  1.
         11   -1    0    0    0    0 -0.00000000000E+00 -0.00000000000E+00 -0.45593999997E+02  0.45594000000E+02  0.51100000000E-03 0. -1.
    9900012    2    1    2    0    0 -0.16013228236E+02 -0.41306993590E+02 -0.81499838817E+01  0.46142318350E+02  0.10000005373E+02 0.  0.
        -12    1    1    2    0    0  0.16013228236E+02  0.41306993590E+02  0.81499838817E+01  0.45045681650E+02  0.00000000000E+00 0.  1.
         11    1    3    3    0    0 -0.65477161380E+01 -0.19432799198E+02 -0.17115142539E+01  0.20577549723E+02  0.51100000000E-03 0. -1.
        -11    1    3    3    0    0 -0.81594772250E+01 -0.20573463988E+02 -0.75825756294E+01  0.23395297444E+02  0.51100000000E-03 0.  1.
        -12    1    3    3    0    0 -0.13060348727E+01 -0.13007304047E+01  0.11441060016E+01  0.21694711838E+01  0.00000000000E+00 0.  1.
</event>
<event>
 7    1  0.3910495E-008  0.4614232E+02  0.7816164E-02  0.1320468E+00
        -11   -1    0    0    0    0  0.00000000000E+00  0.00000000000E+00  0.45593999997E+02  0.45594000000E+02  0.51100000000E-03 0. -1.
         11   -1    0    0    0    0 -0.00000000000E+00 -0.00000000000E+00 -0.45593999997E+02  0.45594000000E+02  0.51100000000E-03 0.  1.
    9900012    2    1    2    0    0 -0.27337508927E+01 -0.36854612743E+02  0.25756118380E+02  0.46142317539E+02  0.99999979706E+01 0.  0.
        -12    1    1    2    0    0  0.27337508927E+01  0.36854612743E+02 -0.25756118380E+02  0.45045682461E+02  0.00000000000E+00 0.  1.
         11    1    3    3    0    0  0.10380054194E+00 -0.17537108528E+01  0.26278923783E+01  0.31610275103E+01  0.51100000000E-03 0. -1.
        -11    1    3    3    0    0 -0.13447434341E+01 -0.32921018031E+02  0.23267124270E+02  0.40335602576E+02  0.51100000000E-03 0.  1.
        -12    1    3    3    0    0 -0.14928080006E+01 -0.21798838597E+01 -0.13889826794E+00  0.26456874527E+01  0.00000000000E+00 0.  1.
</event>
<event>
 7    1  0.3910495E-008  0.4614232E+02  0.7816164E-02  0.1320468E+00
        -11   -1    0    0    0    0  0.00000000000E+00  0.00000000000E+00  0.45593999997E+02  0.45594000000E+02  0.51100000000E-03 0.  1.
         11   -1    0    0    0    0 -0.00000000000E+00 -0.00000000000E+00 -0.45593999997E+02  0.45594000000E+02  0.51100000000E-03 0. -1.
    9900012    2    1    2    0    0  0.19609038717E+02 -0.33180738074E+02 -0.23316038484E+02  0.46142318418E+02  0.10000005992E+02 0.  0.
        -12    1    1    2    0    0 -0.19609038717E+02  0.33180738074E+02  0.23316038484E+02  0.45045681582E+02  0.00000000000E+00 0.  1.
         11    1    3    3    0    0  0.14726309877E+02 -0.28971931593E+02 -0.20880082864E+02  0.38629197293E+02  0.51100000000E-03 0. -1.
        -11    1    3    3    0    0  0.24699902386E+01 -0.24955938275E+01 -0.28537114986E+01  0.45246557779E+01  0.51100000000E-03 0.  1.
        -12    1    3    3    0    0  0.24127386017E+01 -0.17132126536E+01  0.41775587856E+00  0.29884653470E+01  0.00000000000E+00 0.  1.
</event>
<event>
 7    1  0.3910495E-008  0.4614232E+02  0.7816164E-02  0.1320468E+00
        -11   -1    0    0    0    0  0.00000000000E+00  0.00000000000E+00  0.45593999997E+02  0.45594000000E+02  0.51100000000E-03 0.  1.
         11   -1    0    0    0    0 -0.00000000000E+00 -0.00000000000E+00 -0.45593999997E+02  0.45594000000E+02  0.51100000000E-03 0. -1.
    9900012    2    1    2    0    0 -0.40492831902E+02  0.73246628924E+01 -0.18324664577E+02  0.46142318145E+02  0.10000003502E+02 0.  0.
        -12    1    1    2    0    0  0.40492831902E+02 -0.73246628924E+01  0.18324664577E+02  0.45045681855E+02  0.00000000000E+00 0.  1.
         11    1    3    3    0    0 -0.16181247633E+01 -0.12688353599E+01  0.19699817492E+00  0.20656910374E+01  0.51100000000E-03 0. -1.
        -11    1    3    3    0    0  0.26027391338E-01 -0.84610012812E-01 -0.18268615576E+00  0.20300436447E+00  0.51100000000E-03 0.  1.
         12    1    3    3    0    0 -0.38900734530E+02  0.86781082650E+01 -0.18338976596E+02  0.43873622743E+02  0.00000000000E+00 0. -1.
</event>
<event>
 7    1  0.3910495E-008  0.4614232E+02  0.7816164E-02  0.1320468E+00
        -11   -1    0    0    0    0  0.00000000000E+00  0.00000000000E+00  0.45593999997E+02  0.45594000000E+02  0.51100000000E-03 0.  1.
         11   -1    0    0    0    0 -0.00000000000E+00 -0.00000000000E+00 -0.45593999997E+02  0.45594000000E+02  0.51100000000E-03 0. -1.
    9900012    2    1    2    0    0  0.25362460859E+02 -0.11691463824E+01 -0.37208762212E+02  0.46142319747E+02  0.10000018109E+02 0.  0.
        -12    1    1    2    0    0 -0.25362460859E+02  0.11691463824E+01  0.37208762212E+02  0.45045680253E+02  0.00000000000E+00 0.  1.
         11    1    3    3    0    0  0.21353228300E+02 -0.51060776019E+00 -0.25314124250E+02  0.33121382307E+02  0.51100000000E-03 0. -1.
        -11    1    3    3    0    0 -0.47194950052E+00  0.47997245532E+00 -0.15839775605E+01  0.17210738108E+01  0.51100000000E-03 0.  1.
         12    1    3    3    0    0  0.44811820599E+01 -0.11385110776E+01 -0.10310660402E+02  0.11299863630E+02  0.00000000000E+00 0. -1.
</event>
<event>
 7    1  0.3910495E-008  0.4614232E+02  0.7816164E-02  0.1320468E+00
        -11   -1    0    0    0    0  0.00000000000E+00  0.00000000000E+00  0.45593999997E+02  0.45594000000E+02  0.51100000000E-03 0.  1.
         11   -1    0    0    0    0 -0.00000000000E+00 -0.00000000000E+00 -0.45593999997E+02  0.45594000000E+02  0.51100000000E-03 0. -1.
    9900012    2    1    2    0    0 -0.10706356369E+02 -0.85499066311E+01 -0.42911379525E+02  0.46142318044E+02  0.10000002583E+02 0.  0.
        -12    1    1    2    0    0  0.10706356369E+02  0.85499066311E+01  0.42911379525E+02  0.45045681956E+02  0.00000000000E+00 0.  1.
         11    1    3    3    0    0  0.78899811925E+00 -0.11519308671E+01 -0.21323230860E+01  0.25487771105E+01  0.51100000000E-03 0. -1.
        -11    1    3    3    0    0 -0.74884808198E+01 -0.48270271706E+01 -0.15569713132E+02  0.17938603724E+02  0.51100000000E-03 0.  1.
         12    1    3    3    0    0 -0.40068736689E+01 -0.25709485935E+01 -0.25209343307E+02  0.25654937210E+02  0.00000000000E+00 0. -1.
</event>
<event>
 7    1  0.3910495E-008  0.4614232E+02  0.7816164E-02  0.1320468E+00
        -11   -1    0    0    0    0  0.00000000000E+00  0.00000000000E+00  0.45593999997E+02  0.45594000000E+02  0.51100000000E-03 0. -1.
         11   -1    0    0    0    0 -0.00000000000E+00 -0.00000000000E+00 -0.45593999997E+02  0.45594000000E+02  0.51100000000E-03 0.  1.
    9900012    2    1    2    0    0 -0.11816550667E+01  0.27914694080E+02  0.35333936106E+02  0.46142317687E+02  0.99999993284E+01 0.  0.
        -12    1    1    2    0    0  0.11816550667E+01 -0.27914694080E+02 -0.35333936106E+02  0.45045682313E+02  0.00000000000E+00 0.  1.
         11    1    3    3    0    0  0.26831460717E+00  0.13462927842E+02  0.18098014533E+02  0.22557937608E+02  0.51100000000E-03 0. -1.
        -11    1    3    3    0    0 -0.28094112087E+00 -0.34254261972E+00  0.29572135561E+01  0.29902133096E+01  0.51100000000E-03 0.  1.
        -12    1    3    3    0    0 -0.11690285530E+01  0.14794308858E+02  0.14278708017E+02  0.20594166770E+02  0.00000000000E+00 0.  1.
</event>
<event>
 7    1  0.3910495E-008  0.4614232E+02  0.7816164E-02  0.1320468E+00
        -11   -1    0    0    0    0  0.00000000000E+00  0.00000000000E+00  0.45593999997E+02  0.45594000000E+02  0.51100000000E-03 0.  1.
         11   -1    0    0    0    0 -0.00000000000E+00 -0.00000000000E+00 -0.45593999997E+02  0.45594000000E+02  0.51100000000E-03 0. -1.
    9900012    2    1    2    0    0  0.15094851210E+02  0.33606586627E+02 -0.25920188545E+02  0.46142319053E+02  0.10000011783E+02 0.  0.
        -12    1    1    2    0    0 -0.15094851210E+02 -0.33606586627E+02  0.25920188545E+02  0.45045680947E+02  0.00000000000E+00 0.  1.
         11    1    3    3    0    0  0.63363196123E+01  0.17899711170E+02 -0.12997282193E+02  0.23010387891E+02  0.51100000000E-03 0. -1.
        -11    1    3    3    0    0 -0.78614697296E+00  0.12801515054E+01 -0.25566963066E+01  0.29653855070E+01  0.51100000000E-03 0.  1.
        -12    1    3    3    0    0  0.95446785709E+01  0.14426723951E+02 -0.10366210045E+02  0.20166545655E+02  0.00000000000E+00 0.  1.
</event>
<event>
 7    1  0.3910495E-008  0.4614232E+02  0.7816164E-02  0.1320468E+00
        -11   -1    0    0    0    0  0.00000000000E+00  0.00000000000E+00  0.45593999997E+02  0.45594000000E+02  0.51100000000E-03 0.  1.
         11   -1    0    0    0    0 -0.00000000000E+00 -0.00000000000E+00 -0.45593999997E+02  0.45594000000E+02  0.51100000000E-03 0. -1.
    9900012    2    1    2    0    0 -0.80301247509E+01  0.29082284012E+01 -0.44228642293E+02  0.46142317687E+02  0.99999993287E+01 0.  0.
        -12    1    1    2    0    0  0.80301247509E+01 -0.29082284012E+01  0.44228642293E+02  0.45045682313E+02  0.00000000000E+00 0.  1.
         11    1    3    3    0    0 -0.41093571118E+01 -0.75492260271E+00 -0.21564307403E+02  0.21965338104E+02  0.51100000000E-03 0. -1.
        -11    1    3    3    0    0  0.85200399141E+00  0.35179893026E+01 -0.88997933596E+01  0.96077303063E+01  0.51100000000E-03 0.  1.
        -12    1    3    3    0    0 -0.47727716305E+01  0.14516170130E+00 -0.13764541531E+02  0.14569249277E+02  0.00000000000E+00 0.  1.
</event>
<event>
 7    1  0.3910495E-008  0.4614232E+02  0.7816164E-02  0.1320468E+00
        -11   -1    0    0    0    0  0.00000000000E+00  0.00000000000E+00  0.45593999997E+02  0.45594000000E+02  0.51100000000E-03 0.  1.
         11   -1    0    0    0    0 -0.00000000000E+00 -0.00000000000E+00 -0.45593999997E+02  0.45594000000E+02  0.51100000000E-03 0. -1.
    9900012    2    1    2    0    0 -0.45378793955E+01 -0.44522809135E+02 -0.51225584027E+01  0.46142317773E+02  0.10000000108E+02 0.  0.
        -12    1    1    2    0    0  0.45378793955E+01  0.44522809135E+02  0.51225584027E+01  0.45045682227E+02  0.00000000000E+00 0.  1.
         11    1    3    3    0    0  0.74174423374E+00 -0.76863717174E+01  0.14845198406E+01  0.78634784990E+01  0.51100000000E-03 0. -1.
        -11    1    3    3    0    0  0.73726429750E+00 -0.12644066966E+02 -0.85438353815E+00  0.12694327851E+02  0.51100000000E-03 0.  1.
        -12    1    3    3    0    0 -0.60168879267E+01 -0.24192370452E+02 -0.57526947051E+01  0.25584511423E+02  0.00000000000E+00 0.  1.
</event>
<event>
 7    1  0.3910495E-008  0.4614232E+02  0.7816164E-02  0.1320468E+00
        -11   -1    0    0    0    0  0.00000000000E+00  0.00000000000E+00  0.45593999997E+02  0.45594000000E+02  0.51100000000E-03 0. -1.
         11   -1    0    0    0    0 -0.00000000000E+00 -0.00000000000E+00 -0.45593999997E+02  0.45594000000E+02  0.51100000000E-03 0.  1.
    9900012    2    1    2    0    0  0.40955986500E+02 -0.18700861441E+02 -0.14136234967E+01  0.46142318961E+02  0.10000010943E+02 0.  0.
        -12    1    1    2    0    0 -0.40955986500E+02  0.18700861441E+02  0.14136234967E+01  0.45045681039E+02  0.00000000000E+00 0.  1.
         11    1    3    3    0    0  0.76781311359E+00 -0.92226601734E+00  0.62789468360E+00  0.13543867907E+01  0.51100000000E-03 0.  1.
        -11    1    3    3    0    0  0.16074537356E+02 -0.10696739462E+02  0.16824443547E+01  0.19381475836E+02  0.51100000000E-03 0. -1.
         12    1    3    3    0    0  0.24113636031E+02 -0.70818559615E+01 -0.37239625349E+01  0.25406456334E+02  0.00000000000E+00 0. -1.
</event>
<event>
 7    1  0.3910495E-008  0.4614232E+02  0.7816164E-02  0.1320468E+00
        -11   -1    0    0    0    0  0.00000000000E+00  0.00000000000E+00  0.45593999997E+02  0.45594000000E+02  0.51100000000E-03 0.  1.
         11   -1    0    0    0    0 -0.00000000000E+00 -0.00000000000E+00 -0.45593999997E+02  0.45594000000E+02  0.51100000000E-03 0. -1.
    9900012    2    1    2    0    0  0.31144861426E+02 -0.20258586417E+02 -0.25469596364E+02  0.46142322563E+02  0.10000043783E+02 0.  0.
        -12    1    1    2    0    0 -0.31144861426E+02  0.20258586417E+02  0.25469596364E+02  0.45045677437E+02  0.00000000000E+00 0.  1.
         11    1    3    3    0    0  0.11157365724E+02 -0.66590133727E+01 -0.12169052465E+02  0.17802109627E+02  0.51100000000E-03 0. -1.
        -11    1    3    3    0    0  0.41239391313E+01 -0.97489759960E+00 -0.46689217650E+01  0.63052462281E+01  0.51100000000E-03 0.  1.
         12    1    3    3    0    0  0.15863556571E+02 -0.12624675444E+02 -0.86316221335E+01  0.22034966708E+02  0.00000000000E+00 0. -1.
</event>
<event>
 7    1  0.3910495E-008  0.4614232E+02  0.7816164E-02  0.1320468E+00
        -11   -1    0    0    0    0  0.00000000000E+00  0.00000000000E+00  0.45593999997E+02  0.45594000000E+02  0.51100000000E-03 0.  1.
         11   -1    0    0    0    0 -0.00000000000E+00 -0.00000000000E+00 -0.45593999997E+02  0.45594000000E+02  0.51100000000E-03 0. -1.
    9900012    2    1    2    0    0  0.61174930770E+01  0.40786350888E+02 -0.18115276613E+02  0.46142318886E+02  0.10000010254E+02 0.  0.
        -12    1    1    2    0    0 -0.61174930770E+01 -0.40786350888E+02  0.18115276613E+02  0.45045681114E+02  0.00000000000E+00 0.  1.
         11    1    3    3    0    0  0.33159214026E+01  0.23288665729E+02 -0.13905927831E+02  0.27326399603E+02  0.51100000000E-03 0. -1.
        -11    1    3    3    0    0  0.47059825724E+00  0.11529667474E+01 -0.17135214786E+01  0.21182424694E+01  0.51100000000E-03 0.  1.
        -12    1    3    3    0    0  0.23309734172E+01  0.16344718412E+02 -0.24958273040E+01  0.16697676813E+02  0.00000000000E+00 0.  1.
</event>
<event>
 7    1  0.3910495E-008  0.4614232E+02  0.7816164E-02  0.1320468E+00
        -11   -1    0    0    0    0  0.00000000000E+00  0.00000000000E+00  0.45593999997E+02  0.45594000000E+02  0.51100000000E-03 0.  1.
         11   -1    0    0    0    0 -0.00000000000E+00 -0.00000000000E+00 -0.45593999997E+02  0.45594000000E+02  0.51100000000E-03 0. -1.
    9900012    2    1    2    0    0 -0.21362075561E+02  0.28276584812E+02 -0.27806647539E+02  0.46142321314E+02  0.10000032399E+02 0.  0.
        -12    1    1    2    0    0  0.21362075561E+02 -0.28276584812E+02  0.27806647539E+02  0.45045678686E+02  0.00000000000E+00 0.  1.
         11    1    3    3    0    0 -0.50362571361E+01  0.95574165167E+01 -0.78761252608E+01  0.13369422044E+02  0.51100000000E-03 0. -1.
        -11    1    3    3    0    0 -0.79698709790E+01  0.14423867362E+02 -0.14306338306E+02  0.21822880403E+02  0.51100000000E-03 0.  1.
        -12    1    3    3    0    0 -0.83559474458E+01  0.42953009335E+01 -0.56241839720E+01  0.10950018867E+02  0.00000000000E+00 0.  1.
</event>
<event>
 7    1  0.3910495E-008  0.4614232E+02  0.7816164E-02  0.1320468E+00
        -11   -1    0    0    0    0  0.00000000000E+00  0.00000000000E+00  0.45593999997E+02  0.45594000000E+02  0.51100000000E-03 0. -1.
         11   -1    0    0    0    0 -0.00000000000E+00 -0.00000000000E+00 -0.45593999997E+02  0.45594000000E+02  0.51100000000E-03 0.  1.
    9900012    2    1    2    0    0  0.18439502148E+02 -0.37891662601E+02  0.15916037118E+02  0.46142316836E+02  0.99999915659E+01 0.  0.
        -12    1    1    2    0    0 -0.18439502148E+02  0.37891662601E+02 -0.15916037118E+02  0.45045683164E+02  0.00000000000E+00 0.  1.
         11    1    3    3    0    0 -0.37654729325E+00 -0.37526698382E-01  0.62608275380E+00  0.73155723827E+00  0.51100000000E-03 0. -1.
        -11    1    3    3    0    0  0.15541993929E+02 -0.24533375235E+02  0.10378909250E+02  0.30840911679E+02  0.51100000000E-03 0.  1.
         12    1    3    3    0    0  0.32740555122E+01 -0.13320760667E+02  0.49110451143E+01  0.14569847919E+02  0.00000000000E+00 0. -1.
</event>
<event>
 7    1  0.3910495E-008  0.4614232E+02  0.7816164E-02  0.1320468E+00
        -11   -1    0    0    0    0  0.00000000000E+00  0.00000000000E+00  0.45593999997E+02  0.45594000000E+02  0.51100000000E-03 0.  1.
         11   -1    0    0    0    0 -0.00000000000E+00 -0.00000000000E+00 -0.45593999997E+02  0.45594000000E+02  0.51100000000E-03 0. -1.
    9900012    2    1    2    0    0  0.12371971006E+02  0.37215150074E+01 -0.43153192810E+02  0.46142318850E+02  0.10000009932E+02 0.  0.
        -12    1    1    2    0    0 -0.12371971006E+02 -0.37215150074E+01  0.43153192810E+02  0.45045681150E+02  0.00000000000E+00 0.  1.
         11    1    3    3    0    0  0.59689539741E+01  0.53011032784E+01 -0.20117892012E+02  0.21643929560E+02  0.51100000000E-03 0. -1.
        -11    1    3    3    0    0 -0.86865710449E+00  0.46015792183E-01 -0.29474916601E+01  0.30731726222E+01  0.51100000000E-03 0.  1.
         12    1    3    3    0    0  0.72716741369E+01 -0.16256040632E+01 -0.20087809138E+02  0.21425216669E+02  0.00000000000E+00 0. -1.
</event>
<event>
 7    1  0.3910495E-008  0.4614232E+02  0.7816164E-02  0.1320468E+00
        -11   -1    0    0    0    0  0.00000000000E+00  0.00000000000E+00  0.45593999997E+02  0.45594000000E+02  0.51100000000E-03 0.  1.
         11   -1    0    0    0    0 -0.00000000000E+00 -0.00000000000E+00 -0.45593999997E+02  0.45594000000E+02  0.51100000000E-03 0. -1.
    9900012    2    1    2    0    0  0.22634425253E+02 -0.11365768402E+02 -0.37250713683E+02  0.46142316879E+02  0.99999919564E+01 0.  0.
        -12    1    1    2    0    0 -0.22634425253E+02  0.11365768402E+02  0.37250713683E+02  0.45045683121E+02  0.00000000000E+00 0.  1.
         11    1    3    3    0    0  0.16103437882E+02 -0.81018091385E+01 -0.24156556722E+02  0.30141321402E+02  0.51100000000E-03 0. -1.
        -11    1    3    3    0    0  0.23587733785E+01  0.12024604202E+01 -0.64550345504E+01  0.69769043437E+01  0.51100000000E-03 0.  1.
        -12    1    3    3    0    0  0.41722139930E+01 -0.44664196839E+01 -0.66391224109E+01  0.90240911333E+01  0.00000000000E+00 0.  1.
</event>
<event>
 7    1  0.3910495E-008  0.4614232E+02  0.7816164E-02  0.1320468E+00
        -11   -1    0    0    0    0  0.00000000000E+00  0.00000000000E+00  0.45593999997E+02  0.45594000000E+02  0.51100000000E-03 0.  1.
         11   -1    0    0    0    0 -0.00000000000E+00 -0.00000000000E+00 -0.45593999997E+02  0.45594000000E+02  0.51100000000E-03 0. -1.
    9900012    2    1    2    0    0  0.37452633198E+02  0.24627853479E+02 -0.44589885651E+01  0.46142317860E+02  0.10000000899E+02 0.  0.
        -12    1    1    2    0    0 -0.37452633198E+02 -0.24627853479E+02  0.44589885651E+01  0.45045682140E+02  0.00000000000E+00 0.  1.
         11    1    3    3    0    0  0.14740471256E+02  0.10910679587E+02 -0.25750970573E+01  0.18519059021E+02  0.51100000000E-03 0. -1.
        -11    1    3    3    0    0  0.17279591882E+02  0.79759887619E+01  0.13585295588E+01  0.19079997253E+02  0.51100000000E-03 0.  1.
         12    1    3    3    0    0  0.54325700598E+01  0.57411851299E+01 -0.32424210665E+01  0.85432615858E+01  0.00000000000E+00 0. -1.
</event>
<event>
 7    1  0.3910495E-008  0.4614232E+02  0.7816164E-02  0.1320468E+00
        -11   -1    0    0    0    0  0.00000000000E+00  0.00000000000E+00  0.45593999997E+02  0.45594000000E+02  0.51100000000E-03 0.  1.
         11   -1    0    0    0    0 -0.00000000000E+00 -0.00000000000E+00 -0.45593999997E+02  0.45594000000E+02  0.51100000000E-03 0. -1.
    9900012    2    1    2    0    0  0.39672937400E+02  0.12381783607E+02 -0.17374208246E+02  0.46142316085E+02  0.99999847127E+01 0.  0.
        -12    1    1    2    0    0 -0.39672937400E+02 -0.12381783607E+02  0.17374208246E+02  0.45045683915E+02  0.00000000000E+00 0.  1.
         11    1    3    3    0    0  0.19985186158E+02  0.45209656946E+01 -0.13063766787E+02  0.24300386818E+02  0.51100000000E-03 0. -1.
        -11    1    3    3    0    0  0.34417604558E+01  0.26033807414E+01 -0.48016157110E+00  0.43421033745E+01  0.51100000000E-03 0.  1.
        -12    1    3    3    0    0  0.16245990786E+02  0.52574371711E+01 -0.38302798879E+01  0.17499825892E+02  0.00000000000E+00 0.  1.
</event>
<event>
 7    1  0.3910495E-008  0.4614232E+02  0.7816164E-02  0.1320468E+00
        -11   -1    0    0    0    0  0.00000000000E+00  0.00000000000E+00  0.45593999997E+02  0.45594000000E+02  0.51100000000E-03 0. -1.
         11   -1    0    0    0    0 -0.00000000000E+00 -0.00000000000E+00 -0.45593999997E+02  0.45594000000E+02  0.51100000000E-03 0.  1.
    9900012    2    1    2    0    0  0.13938164441E+02  0.40296529371E+02  0.14526893626E+02  0.46142319344E+02  0.10000014435E+02 0.  0.
        -12    1    1    2    0    0 -0.13938164441E+02 -0.40296529371E+02 -0.14526893626E+02  0.45045680656E+02  0.00000000000E+00 0.  1.
         11    1    3    3    0    0 -0.14636756346E+00  0.93472130176E+00  0.20924036173E+01  0.22963624571E+01  0.51100000000E-03 0. -1.
        -11    1    3    3    0    0  0.21584400349E+01  0.25433807563E+01  0.12232803309E+01  0.35530358969E+01  0.51100000000E-03 0.  1.
        -12    1    3    3    0    0  0.11926091970E+02  0.36818427313E+02  0.11211209678E+02  0.40292920990E+02  0.00000000000E+00 0.  1.
</event>
<event>
 7    1  0.3910495E-008  0.4614232E+02  0.7816164E-02  0.1320468E+00
        -11   -1    0    0    0    0  0.00000000000E+00  0.00000000000E+00  0.45593999997E+02  0.45594000000E+02  0.51100000000E-03 0. -1.
         11   -1    0    0    0    0 -0.00000000000E+00 -0.00000000000E+00 -0.45593999997E+02  0.45594000000E+02  0.51100000000E-03 0.  1.
    9900012    2    1    2    0    0 -0.62334799227E+01  0.33472551217E+02  0.29493143754E+02  0.46142317794E+02  0.10000000295E+02 0.  0.
        -12    1    1    2    0    0  0.62334799227E+01 -0.33472551217E+02 -0.29493143754E+02  0.45045682206E+02  0.00000000000E+00 0.  1.
         11    1    3    3    0    0 -0.10600440650E+01  0.15167867888E+02  0.12076545951E+02  0.19417282818E+02  0.51100000000E-03 0. -1.
        -11    1    3    3    0    0 -0.28362880883E+01  0.15178658558E+02  0.10156230451E+02  0.18482024321E+02  0.51100000000E-03 0.  1.
         12    1    3    3    0    0 -0.23371477693E+01  0.31260247713E+01  0.72603673518E+01  0.82430106545E+01  0.00000000000E+00 0. -1.
</event>
<event>
 7    1  0.3910495E-008  0.4614232E+02  0.7816164E-02  0.1320468E+00
        -11   -1    0    0    0    0  0.00000000000E+00  0.00000000000E+00  0.45593999997E+02  0.45594000000E+02  0.51100000000E-03 0.  1.
         11   -1    0    0    0    0 -0.00000000000E+00 -0.00000000000E+00 -0.45593999997E+02  0.45594000000E+02  0.51100000000E-03 0. -1.
    9900012    2    1    2    0    0  0.20581032329E+02  0.12918529190E+01 -0.40048292781E+02  0.46142317295E+02  0.99999957517E+01 0.  0.
        -12    1    1    2    0    0 -0.20581032329E+02 -0.12918529190E+01  0.40048292781E+02  0.45045682705E+02  0.00000000000E+00 0.  1.
         11    1    3    3    0    0  0.37436149500E+00 -0.12665772108E+01 -0.38814163253E+01  0.40999704037E+01  0.51100000000E-03 0. -1.
        -11    1    3    3    0    0  0.68953612666E+01  0.26936423874E+01 -0.18464719272E+02  0.19893405298E+02  0.51100000000E-03 0.  1.
         12    1    3    3    0    0  0.13311309567E+02 -0.13521225753E+00 -0.17702157183E+02  0.22148941593E+02  0.00000000000E+00 0. -1.
</event>
<event>
 7    1  0.3910495E-008  0.4614232E+02  0.7816164E-02  0.1320468E+00
        -11   -1    0    0    0    0  0.00000000000E+00  0.00000000000E+00  0.45593999997E+02  0.45594000000E+02  0.51100000000E-03 0.  1.
         11   -1    0    0    0    0 -0.00000000000E+00 -0.00000000000E+00 -0.45593999997E+02  0.45594000000E+02  0.51100000000E-03 0. -1.
    9900012    2    1    2    0    0  0.31502934466E+02  0.22651534845E+02 -0.22882014701E+02  0.46142317548E+02  0.99999980540E+01 0.  0.
        -12    1    1    2    0    0 -0.31502934466E+02 -0.22651534845E+02  0.22882014701E+02  0.45045682452E+02  0.00000000000E+00 0.  1.
         11    1    3    3    0    0  0.15822283728E+02  0.57459142950E+01 -0.10873920095E+02  0.20040018262E+02  0.51100000000E-03 0. -1.
        -11    1    3    3    0    0  0.30089143872E+01  0.26398245730E+01 -0.29974730545E+01  0.50007084037E+01  0.51100000000E-03 0.  1.
         12    1    3    3    0    0  0.12671736352E+02  0.14265795977E+02 -0.90106215520E+01  0.21101590882E+02  0.00000000000E+00 0. -1.
</event>
<event>
 7    1  0.3910495E-008  0.4614232E+02  0.7816164E-02  0.1320468E+00
        -11   -1    0    0    0    0  0.00000000000E+00  0.00000000000E+00  0.45593999997E+02  0.45594000000E+02  0.51100000000E-03 0. -1.
         11   -1    0    0    0    0 -0.00000000000E+00 -0.00000000000E+00 -0.45593999997E+02  0.45594000000E+02  0.51100000000E-03 0.  1.
    9900012    2    1    2    0    0  0.42440602156E+02  0.12578128754E+02 -0.83486177135E+01  0.46142318165E+02  0.10000003679E+02 0.  0.
        -12    1    1    2    0    0 -0.42440602156E+02 -0.12578128754E+02  0.83486177135E+01  0.45045681835E+02  0.00000000000E+00 0.  1.
         11    1    3    3    0    0  0.72018994899E+01  0.35745846584E+01 -0.25371866417E+01  0.84310336293E+01  0.51100000000E-03 0. -1.
        -11    1    3    3    0    0  0.32976332126E+02  0.10316680558E+02 -0.60740788592E+01  0.35082286306E+02  0.51100000000E-03 0.  1.
        -12    1    3    3    0    0  0.22623705399E+01 -0.13131364624E+01  0.26264778740E+00  0.26289982292E+01  0.00000000000E+00 0.  1.
</event>
<event>
 7    1  0.3910495E-008  0.4614232E+02  0.7816164E-02  0.1320468E+00
        -11   -1    0    0    0    0  0.00000000000E+00  0.00000000000E+00  0.45593999997E+02  0.45594000000E+02  0.51100000000E-03 0.  1.
         11   -1    0    0    0    0 -0.00000000000E+00 -0.00000000000E+00 -0.45593999997E+02  0.45594000000E+02  0.51100000000E-03 0. -1.
    9900012    2    1    2    0    0  0.12497115206E+02 -0.39491153680E+02 -0.17702667675E+02  0.46142317075E+02  0.99999937391E+01 0.  0.
        -12    1    1    2    0    0 -0.12497115206E+02  0.39491153680E+02  0.17702667675E+02  0.45045682925E+02  0.00000000000E+00 0.  1.
         11    1    3    3    0    0  0.21743808118E+01 -0.14754729452E+02 -0.22651729194E+01  0.15085124518E+02  0.51100000000E-03 0. -1.
        -11    1    3    3    0    0  0.18228372809E+01 -0.73950797770E+01 -0.38344682450E+01  0.85271969394E+01  0.51100000000E-03 0.  1.
        -12    1    3    3    0    0  0.84998971137E+01 -0.17341344451E+02 -0.11603026510E+02  0.22529995617E+02  0.00000000000E+00 0.  1.
</event>
<event>
 7    1  0.3910495E-008  0.4614232E+02  0.7816164E-02  0.1320468E+00
        -11   -1    0    0    0    0  0.00000000000E+00  0.00000000000E+00  0.45593999997E+02  0.45594000000E+02  0.51100000000E-03 0.  1.
         11   -1    0    0    0    0 -0.00000000000E+00 -0.00000000000E+00 -0.45593999997E+02  0.45594000000E+02  0.51100000000E-03 0. -1.
    9900012    2    1    2    0    0  0.15963400074E+02  0.40364423086E+02 -0.12041462894E+02  0.46142316282E+02  0.99999865108E+01 0.  0.
        -12    1    1    2    0    0 -0.15963400074E+02 -0.40364423086E+02  0.12041462894E+02  0.45045683718E+02  0.00000000000E+00 0.  1.
         11    1    3    3    0    0  0.23446396206E+01  0.14270804996E+01 -0.18836953847E+00  0.27512500880E+01  0.51100000000E-03 0. -1.
        -11    1    3    3    0    0  0.10577496484E+02  0.32692939457E+02 -0.74267972363E+01  0.35154929095E+02  0.51100000000E-03 0.  1.
        -12    1    3    3    0    0  0.30412639696E+01  0.62444031291E+01 -0.44262961194E+01  0.82361370986E+01  0.00000000000E+00 0.  1.
</event>
<event>
 7    1  0.3910495E-008  0.4614232E+02  0.7816164E-02  0.1320468E+00
        -11   -1    0    0    0    0  0.00000000000E+00  0.00000000000E+00  0.45593999997E+02  0.45594000000E+02  0.51100000000E-03 0.  1.
         11   -1    0    0    0    0 -0.00000000000E+00 -0.00000000000E+00 -0.45593999997E+02  0.45594000000E+02  0.51100000000E-03 0. -1.
    9900012    2    1    2    0    0  0.34318976130E+01  0.21078342529E+02 -0.39661558416E+02  0.46142315845E+02  0.99999825294E+01 0.  0.
        -12    1    1    2    0    0 -0.34318976130E+01 -0.21078342529E+02  0.39661558416E+02  0.45045684155E+02  0.00000000000E+00 0.  1.
         11    1    3    3    0    0  0.30617126247E+01  0.70447898685E+01 -0.89042335720E+01  0.11759614120E+02  0.51100000000E-03 0.  1.
        -11    1    3    3    0    0  0.28723847526E+01  0.11056660946E+02 -0.24157622078E+02  0.26722482111E+02  0.51100000000E-03 0. -1.
        -12    1    3    3    0    0 -0.25021997643E+01  0.29768917141E+01 -0.65997027661E+01  0.76602196143E+01  0.00000000000E+00 0.  1.
</event>
<event>
 7    1  0.3910495E-008  0.4614232E+02  0.7816164E-02  0.1320468E+00
        -11   -1    0    0    0    0  0.00000000000E+00  0.00000000000E+00  0.45593999997E+02  0.45594000000E+02  0.51100000000E-03 0.  1.
         11   -1    0    0    0    0 -0.00000000000E+00 -0.00000000000E+00 -0.45593999997E+02  0.45594000000E+02  0.51100000000E-03 0. -1.
    9900012    2    1    2    0    0 -0.18579107306E+02  0.31386494540E+02 -0.26435170353E+02  0.46142317638E+02  0.99999988802E+01 0.  0.
        -12    1    1    2    0    0  0.18579107306E+02 -0.31386494540E+02  0.26435170353E+02  0.45045682362E+02  0.00000000000E+00 0.  1.
         11    1    3    3    0    0 -0.52001701202E+01  0.77619960727E+01 -0.10333015990E+02  0.13930598408E+02  0.51100000000E-03 0. -1.
        -11    1    3    3    0    0  0.32727661297E+00  0.30623853195E+01 -0.94273414155E+00  0.32208790337E+01  0.51100000000E-03 0.  1.
         12    1    3    3    0    0 -0.13706213799E+02  0.20562113148E+02 -0.15159420222E+02  0.28990840196E+02  0.00000000000E+00 0. -1.
</event>
<event>
 7    1  0.3910495E-008  0.4614231E+02  0.7816164E-02  0.1320468E+00
        -11   -1    0    0    0    0  0.00000000000E+00  0.00000000000E+00  0.45593999997E+02  0.45594000000E+02  0.51100000000E-03 0. -1.
         11   -1    0    0    0    0 -0.00000000000E+00 -0.00000000000E+00 -0.45593999997E+02  0.45594000000E+02  0.51100000000E-03 0.  1.
    9900012    2    1    2    0    0  0.15396521398E+02  0.28016888626E+02  0.31735082932E+02  0.46142307552E+02  0.99999069010E+01 0.  0.
        -12    1    1    2    0    0 -0.15396521398E+02 -0.28016888626E+02 -0.31735082932E+02  0.45045692448E+02  0.00000000000E+00 0.  1.
         11    1    3    3    0    0  0.12833191449E+02  0.20324345948E+02  0.25715074507E+02  0.35199927531E+02  0.51100000000E-03 0. -1.
        -11    1    3    3    0    0  0.33878344461E+01  0.60780474224E+01  0.59043232891E+01  0.91258488080E+01  0.51100000000E-03 0.  1.
        -12    1    3    3    0    0 -0.82450449759E+00  0.16144952555E+01  0.11568513591E+00  0.18165312128E+01  0.00000000000E+00 0.  1.
</event>
<event>
 7    1  0.3910495E-008  0.4614232E+02  0.7816164E-02  0.1320468E+00
        -11   -1    0    0    0    0  0.00000000000E+00  0.00000000000E+00  0.45593999997E+02  0.45594000000E+02  0.51100000000E-03 0. -1.
         11   -1    0    0    0    0 -0.00000000000E+00 -0.00000000000E+00 -0.45593999997E+02  0.45594000000E+02  0.51100000000E-03 0.  1.
    9900012    2    1    2    0    0  0.46383486988E+01  0.42826460175E+02  0.13171684194E+02  0.46142320581E+02  0.10000025717E+02 0.  0.
        -12    1    1    2    0    0 -0.46383486988E+01 -0.42826460175E+02 -0.13171684194E+02  0.45045679419E+02  0.00000000000E+00 0.  1.
         11    1    3    3    0    0 -0.90892168738E-01  0.53979860353E+01  0.42818555263E+01  0.68906314393E+01  0.51100000000E-03 0. -1.
        -11    1    3    3    0    0  0.37313819845E+01  0.14930496674E+02  0.61198892908E+01  0.16561883578E+02  0.51100000000E-03 0.  1.
         12    1    3    3    0    0  0.99785888308E+00  0.22497977465E+02  0.27699393771E+01  0.22689805564E+02  0.00000000000E+00 0. -1.
</event>
<event>
 7    1  0.3910495E-008  0.4614232E+02  0.7816164E-02  0.1320468E+00
        -11   -1    0    0    0    0  0.00000000000E+00  0.00000000000E+00  0.45593999997E+02  0.45594000000E+02  0.51100000000E-03 0. -1.
         11   -1    0    0    0    0 -0.00000000000E+00 -0.00000000000E+00 -0.45593999997E+02  0.45594000000E+02  0.51100000000E-03 0.  1.
    9900012    2    1    2    0    0 -0.14306406657E+02 -0.38123536061E+02  0.19262301326E+02  0.46142317348E+02  0.99999962323E+01 0.  0.
        -12    1    1    2    0    0  0.14306406657E+02  0.38123536061E+02 -0.19262301326E+02  0.45045682652E+02  0.00000000000E+00 0.  1.
         11    1    3    3    0    0 -0.80285411355E+01 -0.15397486998E+02  0.63561053733E+01  0.18491623898E+02  0.51100000000E-03 0.  1.
        -11    1    3    3    0    0 -0.10478255139E+01 -0.15039543660E+02  0.90640238241E+01  0.17590973252E+02  0.51100000000E-03 0. -1.
         12    1    3    3    0    0 -0.52300400074E+01 -0.76865054024E+01  0.38421721287E+01  0.10059720197E+02  0.00000000000E+00 0. -1.
</event>
<event>
 7    1  0.3910495E-008  0.4614232E+02  0.7816164E-02  0.1320468E+00
        -11   -1    0    0    0    0  0.00000000000E+00  0.00000000000E+00  0.45593999997E+02  0.45594000000E+02  0.51100000000E-03 0. -1.
         11   -1    0    0    0    0 -0.00000000000E+00 -0.00000000000E+00 -0.45593999997E+02  0.45594000000E+02  0.51100000000E-03 0.  1.
    9900012    2    1    2    0    0 -0.35455081892E+01 -0.48557802104E+01  0.44642625830E+02  0.46142320176E+02  0.10000022025E+02 0.  0.
        -12    1    1    2    0    0  0.35455081892E+01  0.48557802104E+01 -0.44642625830E+02  0.45045679824E+02  0.00000000000E+00 0.  1.
         11    1    3    3    0    0 -0.40512965662E+01 -0.11165161602E+01  0.17098637860E+02  0.17607470833E+02  0.51100000000E-03 0. -1.
        -11    1    3    3    0    0 -0.29131977094E-01 -0.19981238633E+01  0.16910425116E+01  0.26178183058E+01  0.51100000000E-03 0.  1.
        -12    1    3    3    0    0  0.53492035412E+00 -0.17411401868E+01  0.25852945458E+02  0.25917031037E+02  0.00000000000E+00 0.  1.
</event>
<event>
 7    1  0.3910495E-008  0.4614232E+02  0.7816164E-02  0.1320468E+00
        -11   -1    0    0    0    0  0.00000000000E+00  0.00000000000E+00  0.45593999997E+02  0.45594000000E+02  0.51100000000E-03 0.  1.
         11   -1    0    0    0    0 -0.00000000000E+00 -0.00000000000E+00 -0.45593999997E+02  0.45594000000E+02  0.51100000000E-03 0. -1.
    9900012    2    1    2    0    0  0.10293214719E+02  0.25156705680E+02 -0.35920793862E+02  0.46142317170E+02  0.99999946129E+01 0.  0.
        -12    1    1    2    0    0 -0.10293214719E+02 -0.25156705680E+02  0.35920793862E+02  0.45045682830E+02  0.00000000000E+00 0.  1.
         11    1    3    3    0    0  0.61428814545E+00  0.11631765864E+02 -0.14650724907E+02  0.18716812431E+02  0.51100000000E-03 0. -1.
        -11    1    3    3    0    0  0.44226819523E+01  0.90709380072E+01 -0.99385744008E+01  0.14163943426E+02  0.51100000000E-03 0.  1.
        -12    1    3    3    0    0  0.52562446215E+01  0.44540018091E+01 -0.11331494554E+02  0.13261561314E+02  0.00000000000E+00 0.  1.
</event>
<event>
 7    1  0.3910495E-008  0.4614232E+02  0.7816164E-02  0.1320468E+00
        -11   -1    0    0    0    0  0.00000000000E+00  0.00000000000E+00  0.45593999997E+02  0.45594000000E+02  0.51100000000E-03 0. -1.
         11   -1    0    0    0    0 -0.00000000000E+00 -0.00000000000E+00 -0.45593999997E+02  0.45594000000E+02  0.51100000000E-03 0.  1.
    9900012    2    1    2    0    0  0.25289170638E+02  0.36720690672E+02  0.64157898496E+01  0.46142316141E+02  0.99999852232E+01 0.  0.
        -12    1    1    2    0    0 -0.25289170638E+02 -0.36720690672E+02 -0.64157898496E+01  0.45045683859E+02  0.00000000000E+00 0.  1.
         11    1    3    3    0    0  0.21340876835E+02  0.25946769170E+02  0.34177848378E+01  0.33769055478E+02  0.51100000000E-03 0. -1.
        -11    1    3    3    0    0  0.71920993344E+00  0.87126126001E+00 -0.68996980650E+00  0.13237891473E+01  0.51100000000E-03 0.  1.
        -12    1    3    3    0    0  0.32290838697E+01  0.99026602415E+01  0.36879748184E+01  0.11049471515E+02  0.00000000000E+00 0.  1.
</event>
<event>
 7    1  0.3910495E-008  0.4614231E+02  0.7816164E-02  0.1320468E+00
        -11   -1    0    0    0    0  0.00000000000E+00  0.00000000000E+00  0.45593999997E+02  0.45594000000E+02  0.51100000000E-03 0.  1.
         11   -1    0    0    0    0 -0.00000000000E+00 -0.00000000000E+00 -0.45593999997E+02  0.45594000000E+02  0.51100000000E-03 0. -1.
    9900012    2    1    2    0    0 -0.25665026733E+02 -0.17365397855E+00 -0.37018779353E+02  0.46142314549E+02  0.99999707124E+01 0.  0.
        -12    1    1    2    0    0  0.25665026733E+02  0.17365397855E+00  0.37018779353E+02  0.45045685451E+02  0.00000000000E+00 0.  1.
         11    1    3    3    0    0 -0.56909053891E+00  0.58495553461E+00 -0.80808053495E+00  0.11484909364E+01  0.51100000000E-03 0. -1.
        -11    1    3    3    0    0 -0.16224303295E+02  0.85208859355E+00 -0.15719507267E+02  0.22606569429E+02  0.51100000000E-03 0.  1.
         12    1    3    3    0    0 -0.88716328990E+01 -0.16106981067E+01 -0.20491191552E+02  0.22387254184E+02  0.00000000000E+00 0. -1.
</event>
<event>
 7    1  0.3910495E-008  0.4614232E+02  0.7816164E-02  0.1320468E+00
        -11   -1    0    0    0    0  0.00000000000E+00  0.00000000000E+00  0.45593999997E+02  0.45594000000E+02  0.51100000000E-03 0.  1.
         11   -1    0    0    0    0 -0.00000000000E+00 -0.00000000000E+00 -0.45593999997E+02  0.45594000000E+02  0.51100000000E-03 0. -1.
    9900012    2    1    2    0    0 -0.36432224083E+02  0.14440754078E+02 -0.22209707504E+02  0.46142318327E+02  0.10000005158E+02 0.  0.
        -12    1    1    2    0    0  0.36432224083E+02 -0.14440754078E+02  0.22209707504E+02  0.45045681673E+02  0.00000000000E+00 0.  1.
         11    1    3    3    0    0 -0.15416770671E+02  0.61044676947E+01 -0.10053824470E+02  0.19391253969E+02  0.51100000000E-03 0. -1.
        -11    1    3    3    0    0 -0.33122969833E+01  0.51227826399E+00 -0.51950107640E+01  0.61823844449E+01  0.51100000000E-03 0.  1.
        -12    1    3    3    0    0 -0.17703156429E+02  0.78240081196E+01 -0.69608722701E+01  0.20568679913E+02  0.00000000000E+00 0.  1.
</event>
<event>
 7    1  0.3910495E-008  0.4614232E+02  0.7816164E-02  0.1320468E+00
        -11   -1    0    0    0    0  0.00000000000E+00  0.00000000000E+00  0.45593999997E+02  0.45594000000E+02  0.51100000000E-03 0.  1.
         11   -1    0    0    0    0 -0.00000000000E+00 -0.00000000000E+00 -0.45593999997E+02  0.45594000000E+02  0.51100000000E-03 0. -1.
    9900012    2    1    2    0    0  0.99718715214E+01  0.30733092162E+01 -0.43820429306E+02  0.46142317901E+02  0.10000001277E+02 0.  0.
        -12    1    1    2    0    0 -0.99718715214E+01 -0.30733092162E+01  0.43820429306E+02  0.45045682099E+02  0.00000000000E+00 0.  1.
         11    1    3    3    0    0  0.17923990358E+01  0.23876468523E-01 -0.65449504655E+01  0.67859885976E+01  0.51100000000E-03 0. -1.
        -11    1    3    3    0    0  0.42081662324E+01 -0.73805268230E+00 -0.48233229973E+01  0.64434330755E+01  0.51100000000E-03 0.  1.
         12    1    3    3    0    0  0.39713062532E+01  0.37874854300E+01 -0.32452155843E+02  0.32912896228E+02  0.00000000000E+00 0. -1.
</event>
<event>
 7    1  0.3910495E-008  0.4614232E+02  0.7816164E-02  0.1320468E+00
        -11   -1    0    0    0    0  0.00000000000E+00  0.00000000000E+00  0.45593999997E+02  0.45594000000E+02  0.51100000000E-03 0.  1.
         11   -1    0    0    0    0 -0.00000000000E+00 -0.00000000000E+00 -0.45593999997E+02  0.45594000000E+02  0.51100000000E-03 0. -1.
    9900012    2    1    2    0    0  0.79945734400E+01  0.41583749263E+02 -0.15362033549E+02  0.46142317832E+02  0.10000000642E+02 0.  0.
        -12    1    1    2    0    0 -0.79945734400E+01 -0.41583749263E+02  0.15362033549E+02  0.45045682168E+02  0.00000000000E+00 0.  1.
         11    1    3    3    0    0  0.12299751749E+01  0.24413301024E+02 -0.11102427979E+02  0.26847458224E+02  0.51100000000E-03 0. -1.
        -11    1    3    3    0    0  0.25192427216E+01  0.30378420606E+01 -0.17886399102E+01  0.43329321787E+01  0.51100000000E-03 0.  1.
         12    1    3    3    0    0  0.42453555435E+01  0.14132606178E+02 -0.24709656604E+01  0.14961927429E+02  0.00000000000E+00 0. -1.
</event>
<event>
 7    1  0.3910495E-008  0.4614232E+02  0.7816164E-02  0.1320468E+00
        -11   -1    0    0    0    0  0.00000000000E+00  0.00000000000E+00  0.45593999997E+02  0.45594000000E+02  0.51100000000E-03 0.  1.
         11   -1    0    0    0    0 -0.00000000000E+00 -0.00000000000E+00 -0.45593999997E+02  0.45594000000E+02  0.51100000000E-03 0. -1.
    9900012    2    1    2    0    0  0.18715597267E+02 -0.21030148634E+02 -0.35164937663E+02  0.46142316816E+02  0.99999913847E+01 0.  0.
        -12    1    1    2    0    0 -0.18715597267E+02  0.21030148634E+02  0.35164937663E+02  0.45045683184E+02  0.00000000000E+00 0.  1.
         11    1    3    3    0    0  0.29812204319E+01 -0.46498727182E+01 -0.55335786590E+01  0.78185346833E+01  0.51100000000E-03 0.  1.
        -11    1    3    3    0    0  0.15761798332E+02 -0.12959744679E+02 -0.27670754303E+02  0.34381098190E+02  0.51100000000E-03 0. -1.
         12    1    3    3    0    0 -0.27421496253E-01 -0.34205312366E+01 -0.19606047009E+01  0.39426839428E+01  0.00000000000E+00 0. -1.
</event>
<event>
 7    1  0.4158194E-008  0.4614232E+02  0.7816164E-02  0.1320468E+00
        -11   -1    0    0    0    0  0.00000000000E+00  0.00000000000E+00  0.45593999997E+02  0.45594000000E+02  0.51100000000E-03 0.  1.
         11   -1    0    0    0    0 -0.00000000000E+00 -0.00000000000E+00 -0.45593999997E+02  0.45594000000E+02  0.51100000000E-03 0. -1.
    9900012    2    1    2    0    0 -0.42354258026E+02  0.14616792958E+02 -0.46453913366E+01  0.46142317965E+02  0.10000001859E+02 0.  0.
        -12    1    1    2    0    0  0.42354258026E+02 -0.14616792958E+02  0.46453913366E+01  0.45045682035E+02  0.00000000000E+00 0.  1.
         11    1    3    3    0    0 -0.13982628728E+02  0.12929699319E+01 -0.82766651486E+00  0.14066652392E+02  0.51100000000E-03 0. -1.
        -11    1    3    3    0    0 -0.37612531346E+01 -0.19674049779E+00 -0.55026295698E+00  0.38063790601E+01  0.51100000000E-03 0.  1.
         12    1    3    3    0    0 -0.24610376164E+02  0.13520563524E+02 -0.32674618647E+01  0.28269286513E+02  0.00000000000E+00 0. -1.
</event>
<event>
 7    1  0.3910495E-008  0.4614232E+02  0.7816164E-02  0.1320468E+00
        -11   -1    0    0    0    0  0.00000000000E+00  0.00000000000E+00  0.45593999997E+02  0.45594000000E+02  0.51100000000E-03 0.  1.
         11   -1    0    0    0    0 -0.00000000000E+00 -0.00000000000E+00 -0.45593999997E+02  0.45594000000E+02  0.51100000000E-03 0. -1.
    9900012    2    1    2    0    0  0.28422253004E+01  0.35639597687E+02 -0.27401720894E+02  0.46142317899E+02  0.10000001258E+02 0.  0.
        -12    1    1    2    0    0 -0.28422253004E+01 -0.35639597687E+02  0.27401720894E+02  0.45045682101E+02  0.00000000000E+00 0.  1.
         11    1    3    3    0    0  0.11790732629E+01  0.99852806103E+01 -0.62896160408E+01  0.11859819258E+02  0.51100000000E-03 0. -1.
        -11    1    3    3    0    0  0.29251767537E+01  0.65982307771E+01 -0.25626205209E+01  0.76590033701E+01  0.51100000000E-03 0.  1.
        -12    1    3    3    0    0 -0.12620247162E+01  0.19056086300E+02 -0.18549484333E+02  0.26623495271E+02  0.00000000000E+00 0.  1.
</event>
<event>
 7    1  0.3910495E-008  0.4614232E+02  0.7816164E-02  0.1320468E+00
        -11   -1    0    0    0    0  0.00000000000E+00  0.00000000000E+00  0.45593999997E+02  0.45594000000E+02  0.51100000000E-03 0. -1.
         11   -1    0    0    0    0 -0.00000000000E+00 -0.00000000000E+00 -0.45593999997E+02  0.45594000000E+02  0.51100000000E-03 0.  1.
    9900012    2    1    2    0    0 -0.11193489968E+02  0.43034739609E+02 -0.71993387448E+01  0.46142317529E+02  0.99999978837E+01 0.  0.
        -12    1    1    2    0    0  0.11193489968E+02 -0.43034739609E+02  0.71993387448E+01  0.45045682471E+02  0.00000000000E+00 0.  1.
         11    1    3    3    0    0 -0.72324948034E+01  0.16777319735E+02 -0.30983134188E+01  0.18530703842E+02  0.51100000000E-03 0. -1.
        -11    1    3    3    0    0 -0.32534097146E+01  0.24651779514E+02 -0.21057059062E+01  0.24954536774E+02  0.51100000000E-03 0.  1.
        -12    1    3    3    0    0 -0.70758545010E+00  0.16056403604E+01 -0.19953194198E+01  0.26570769133E+01  0.00000000000E+00 0.  1.
</event>
<event>
 7    1  0.3910495E-008  0.4614232E+02  0.7816164E-02  0.1320468E+00
        -11   -1    0    0    0    0  0.00000000000E+00  0.00000000000E+00  0.45593999997E+02  0.45594000000E+02  0.51100000000E-03 0.  1.
         11   -1    0    0    0    0 -0.00000000000E+00 -0.00000000000E+00 -0.45593999997E+02  0.45594000000E+02  0.51100000000E-03 0. -1.
    9900012    2    1    2    0    0 -0.40971462490E+02  0.75919184331E+01 -0.17111848502E+02  0.46142319594E+02  0.10000016714E+02 0.  0.
        -12    1    1    2    0    0  0.40971462490E+02 -0.75919184331E+01  0.17111848502E+02  0.45045680406E+02  0.00000000000E+00 0.  1.
         11    1    3    3    0    0 -0.20935970801E+01 -0.76676808258E+00 -0.10293222466E+01  0.24557252645E+01  0.51100000000E-03 0. -1.
        -11    1    3    3    0    0 -0.97658126528E+01 -0.13943338092E+00 -0.70418417253E+01  0.12040684099E+02  0.51100000000E-03 0.  1.
         12    1    3    3    0    0 -0.29112052757E+02  0.84981198966E+01 -0.90406845304E+01  0.31645910230E+02  0.00000000000E+00 0. -1.
</event>
<event>
 7    1  0.3910495E-008  0.4614232E+02  0.7816164E-02  0.1320468E+00
        -11   -1    0    0    0    0  0.00000000000E+00  0.00000000000E+00  0.45593999997E+02  0.45594000000E+02  0.51100000000E-03 0.  1.
         11   -1    0    0    0    0 -0.00000000000E+00 -0.00000000000E+00 -0.45593999997E+02  0.45594000000E+02  0.51100000000E-03 0. -1.
    9900012    2    1    2    0    0 -0.19577277931E+02 -0.10061095875E+02 -0.39301629073E+02  0.46142317530E+02  0.99999978922E+01 0.  0.
        -12    1    1    2    0    0  0.19577277931E+02  0.10061095875E+02  0.39301629073E+02  0.45045682470E+02  0.00000000000E+00 0.  1.
         11    1    3    3    0    0  0.32655775596E+00  0.33728449727E+00 -0.24728258262E+01  0.25169959531E+01  0.51100000000E-03 0. -1.
        -11    1    3    3    0    0 -0.10665141594E+01 -0.28708034777E+01 -0.56874704142E+01  0.64595886118E+01  0.51100000000E-03 0.  1.
         12    1    3    3    0    0 -0.18837321528E+02 -0.75275768948E+01 -0.31141332833E+02  0.37165732965E+02  0.00000000000E+00 0. -1.
</event>
<event>
 7    1  0.3910495E-008  0.4614232E+02  0.7816164E-02  0.1320468E+00
        -11   -1    0    0    0    0  0.00000000000E+00  0.00000000000E+00  0.45593999997E+02  0.45594000000E+02  0.51100000000E-03 0. -1.
         11   -1    0    0    0    0 -0.00000000000E+00 -0.00000000000E+00 -0.45593999997E+02  0.45594000000E+02  0.51100000000E-03 0.  1.
    9900012    2    1    2    0    0  0.24416776631E+02 -0.52926206162E+01  0.37482298200E+02  0.46142317717E+02  0.99999995983E+01 0.  0.
        -12    1    1    2    0    0 -0.24416776631E+02  0.52926206162E+01 -0.37482298200E+02  0.45045682283E+02  0.00000000000E+00 0.  1.
         11    1    3    3    0    0  0.53311314853E+01 -0.15198427244E+01  0.53056445456E+01  0.76733792508E+01  0.51100000000E-03 0. -1.
        -11    1    3    3    0    0  0.25053993407E+01  0.98953240020E+00  0.10685954631E+01  0.28979469892E+01  0.51100000000E-03 0.  1.
         12    1    3    3    0    0  0.16580245805E+02 -0.47623102920E+01  0.31108058191E+02  0.35570991477E+02  0.00000000000E+00 0. -1.
</event>
<event>
 7    1  0.3910495E-008  0.4614232E+02  0.7816164E-02  0.1320468E+00
        -11   -1    0    0    0    0  0.00000000000E+00  0.00000000000E+00  0.45593999997E+02  0.45594000000E+02  0.51100000000E-03 0.  1.
         11   -1    0    0    0    0 -0.00000000000E+00 -0.00000000000E+00 -0.45593999997E+02  0.45594000000E+02  0.51100000000E-03 0. -1.
    9900012    2    1    2    0    0  0.21048371624E+02  0.39090998217E+02  0.76140281933E+01  0.46142317466E+02  0.99999973064E+01 0.  0.
        -12    1    1    2    0    0 -0.21048371624E+02 -0.39090998217E+02 -0.76140281933E+01  0.45045682534E+02  0.00000000000E+00 0.  1.
         11    1    3    3    0    0  0.29628991541E+01  0.10819936250E+02  0.27308579839E+00  0.11221602736E+02  0.51100000000E-03 0. -1.
        -11    1    3    3    0    0  0.10038120887E+02  0.10012441195E+02  0.26518330725E+01  0.14423767487E+02  0.51100000000E-03 0.  1.
        -12    1    3    3    0    0  0.80473515828E+01  0.18258620773E+02  0.46891093224E+01  0.20496947242E+02  0.00000000000E+00 0.  1.
</event>
<event>
 7    1  0.3910495E-008  0.4614232E+02  0.7816164E-02  0.1320468E+00
        -11   -1    0    0    0    0  0.00000000000E+00  0.00000000000E+00  0.45593999997E+02  0.45594000000E+02  0.51100000000E-03 0.  1.
         11   -1    0    0    0    0 -0.00000000000E+00 -0.00000000000E+00 -0.45593999997E+02  0.45594000000E+02  0.51100000000E-03 0. -1.
    9900012    2    1    2    0    0  0.24582903235E+01 -0.44974736415E+02 -0.58598496436E+00  0.46142317795E+02  0.10000000307E+02 0.  0.
        -12    1    1    2    0    0 -0.24582903235E+01  0.44974736415E+02  0.58598496436E+00  0.45045682205E+02  0.00000000000E+00 0.  1.
         11    1    3    3    0    0  0.14376889391E+01 -0.77958046756E+01 -0.34099461628E+01  0.86295569481E+01  0.51100000000E-03 0. -1.
        -11    1    3    3    0    0  0.94311453737E+00 -0.49200314539E+01 -0.71441019423E+00  0.50602921581E+01  0.51100000000E-03 0.  1.
         12    1    3    3    0    0  0.77486846951E-01 -0.32258900286E+02  0.35383713927E+01  0.32452468689E+02  0.00000000000E+00 0. -1.
</event>
<event>
 7    1  0.3910495E-008  0.4614232E+02  0.7816164E-02  0.1320468E+00
        -11   -1    0    0    0    0  0.00000000000E+00  0.00000000000E+00  0.45593999997E+02  0.45594000000E+02  0.51100000000E-03 0.  1.
         11   -1    0    0    0    0 -0.00000000000E+00 -0.00000000000E+00 -0.45593999997E+02  0.45594000000E+02  0.51100000000E-03 0. -1.
    9900012    2    1    2    0    0  0.16742814326E+02 -0.25811185885E+02 -0.32902498933E+02  0.46142316695E+02  0.99999902789E+01 0.  0.
        -12    1    1    2    0    0 -0.16742814326E+02  0.25811185885E+02  0.32902498933E+02  0.45045683305E+02  0.00000000000E+00 0.  1.
         11    1    3    3    0    0  0.90120891798E+00 -0.11786591988E+00 -0.90915968498E+00  0.12855510425E+01  0.51100000000E-03 0. -1.
        -11    1    3    3    0    0  0.31443231844E+01 -0.46104294995E+01 -0.11682299607E+02  0.12946773839E+02  0.51100000000E-03 0.  1.
         12    1    3    3    0    0  0.12697282223E+02 -0.21082890466E+02 -0.20311039641E+02  0.31909991814E+02  0.00000000000E+00 0. -1.
</event>
<event>
 7    1  0.3910495E-008  0.4614232E+02  0.7816164E-02  0.1320468E+00
        -11   -1    0    0    0    0  0.00000000000E+00  0.00000000000E+00  0.45593999997E+02  0.45594000000E+02  0.51100000000E-03 0.  1.
         11   -1    0    0    0    0 -0.00000000000E+00 -0.00000000000E+00 -0.45593999997E+02  0.45594000000E+02  0.51100000000E-03 0. -1.
    9900012    2    1    2    0    0 -0.28152389880E+02  0.12836721911E+02 -0.32737977418E+02  0.46142315958E+02  0.99999835602E+01 0.  0.
        -12    1    1    2    0    0  0.28152389880E+02 -0.12836721911E+02  0.32737977418E+02  0.45045684042E+02  0.00000000000E+00 0.  1.
         11    1    3    3    0    0 -0.19638178797E+02  0.10879277574E+02 -0.26367695745E+02  0.34630508604E+02  0.51100000000E-03 0. -1.
        -11    1    3    3    0    0 -0.27999165231E+01 -0.22229244827E+00 -0.41380833424E+01  0.50012678872E+01  0.51100000000E-03 0.  1.
        -12    1    3    3    0    0 -0.57142945598E+01  0.21797367844E+01 -0.22321983305E+01  0.65105394670E+01  0.00000000000E+00 0.  1.
</event>
<event>
 7    1  0.3910495E-008  0.4614231E+02  0.7816164E-02  0.1320468E+00
        -11   -1    0    0    0    0  0.00000000000E+00  0.00000000000E+00  0.45593999997E+02  0.45594000000E+02  0.51100000000E-03 0.  1.
         11   -1    0    0    0    0 -0.00000000000E+00 -0.00000000000E+00 -0.45593999997E+02  0.45594000000E+02  0.51100000000E-03 0. -1.
    9900012    2    1    2    0    0  0.56455411914E+01  0.31952357580E+02 -0.31245616169E+02  0.46142314080E+02  0.99999664336E+01 0.  0.
        -12    1    1    2    0    0 -0.56455411914E+01 -0.31952357580E+02  0.31245616169E+02  0.45045685920E+02  0.00000000000E+00 0.  1.
         11    1    3    3    0    0  0.26122579448E+00  0.94454322695E+01 -0.13922123432E+02  0.16825871472E+02  0.51100000000E-03 0. -1.
        -11    1    3    3    0    0  0.31060928853E+00 -0.79731475689E-01 -0.83694496958E+00  0.89627695584E+00  0.51100000000E-03 0.  1.
         12    1    3    3    0    0  0.50737061084E+01  0.22586656786E+02 -0.16486547767E+02  0.28420165652E+02  0.00000000000E+00 0. -1.
</event>
<event>
 7    1  0.3910495E-008  0.4614232E+02  0.7816164E-02  0.1320468E+00
        -11   -1    0    0    0    0  0.00000000000E+00  0.00000000000E+00  0.45593999997E+02  0.45594000000E+02  0.51100000000E-03 0. -1.
         11   -1    0    0    0    0 -0.00000000000E+00 -0.00000000000E+00 -0.45593999997E+02  0.45594000000E+02  0.51100000000E-03 0.  1.
    9900012    2    1    2    0    0 -0.32934320957E+02 -0.25972142754E+02 -0.16428365643E+02  0.46142324361E+02  0.10000060180E+02 0.  0.
        -12    1    1    2    0    0  0.32934320957E+02  0.25972142754E+02  0.16428365643E+02  0.45045675639E+02  0.00000000000E+00 0.  1.
         11    1    3    3    0    0 -0.10336305124E+02 -0.69827099829E+01 -0.57269185479E+00  0.12487009992E+02  0.51100000000E-03 0. -1.
        -11    1    3    3    0    0 -0.17781478573E+02 -0.14053623359E+02 -0.13429232389E+02  0.26344441398E+02  0.51100000000E-03 0.  1.
         12    1    3    3    0    0 -0.48165372594E+01 -0.49358094119E+01 -0.24264413994E+01  0.73108729702E+01  0.00000000000E+00 0. -1.
</event>
<event>
 7    1  0.3910495E-008  0.4614231E+02  0.7816164E-02  0.1320468E+00
        -11   -1    0    0    0    0  0.00000000000E+00  0.00000000000E+00  0.45593999997E+02  0.45594000000E+02  0.51100000000E-03 0.  1.
         11   -1    0    0    0    0 -0.00000000000E+00 -0.00000000000E+00 -0.45593999997E+02  0.45594000000E+02  0.51100000000E-03 0. -1.
    9900012    2    1    2    0    0  0.39510433685E+02  0.11985533025E+02 -0.18010740961E+02  0.46142310286E+02  0.99999318313E+01 0.  0.
        -12    1    1    2    0    0 -0.39510433685E+02 -0.11985533025E+02  0.18010740961E+02  0.45045689714E+02  0.00000000000E+00 0.  1.
         11    1    3    3    0    0  0.42978415106E+01  0.16385456066E+01 -0.11011748170E+01  0.47295728764E+01  0.51100000000E-03 0. -1.
        -11    1    3    3    0    0  0.62575108130E+01 -0.10804603136E+01 -0.91572835062E+00  0.64157926040E+01  0.51100000000E-03 0.  1.
        -12    1    3    3    0    0  0.28955081362E+02  0.11427447732E+02 -0.15993837793E+02  0.34996944805E+02  0.00000000000E+00 0.  1.
</event>
<event>
 7    1  0.3910495E-008  0.4614232E+02  0.7816164E-02  0.1320468E+00
        -11   -1    0    0    0    0  0.00000000000E+00  0.00000000000E+00  0.45593999997E+02  0.45594000000E+02  0.51100000000E-03 0.  1.
         11   -1    0    0    0    0 -0.00000000000E+00 -0.00000000000E+00 -0.45593999997E+02  0.45594000000E+02  0.51100000000E-03 0. -1.
    9900012    2    1    2    0    0  0.20916469886E+01 -0.21762291734E+02 -0.39384528363E+02  0.46142318709E+02  0.10000008639E+02 0.  0.
        -12    1    1    2    0    0 -0.20916469886E+01  0.21762291734E+02  0.39384528363E+02  0.45045681291E+02  0.00000000000E+00 0.  1.
         11    1    3    3    0    0  0.47512621272E+00 -0.60406069111E+01 -0.80333270392E+01  0.10062257220E+02  0.51100000000E-03 0. -1.
        -11    1    3    3    0    0 -0.24715346678E+01 -0.11938151605E+02 -0.19726421039E+02  0.23189644987E+02  0.51100000000E-03 0.  1.
        -12    1    3    3    0    0  0.40880554438E+01 -0.37835332180E+01 -0.11624780285E+02  0.12890416502E+02  0.00000000000E+00 0.  1.
</event>
<event>
 7    1  0.3910495E-008  0.4614232E+02  0.7816164E-02  0.1320468E+00
        -11   -1    0    0    0    0  0.00000000000E+00  0.00000000000E+00  0.45593999997E+02  0.45594000000E+02  0.51100000000E-03 0.  1.
         11   -1    0    0    0    0 -0.00000000000E+00 -0.00000000000E+00 -0.45593999997E+02  0.45594000000E+02  0.51100000000E-03 0. -1.
    9900012    2    1    2    0    0  0.96892434126E+01  0.33080676528E+02 -0.28998286075E+02  0.46142321042E+02  0.10000029922E+02 0.  0.
        -12    1    1    2    0    0 -0.96892434126E+01 -0.33080676528E+02  0.28998286075E+02  0.45045678958E+02  0.00000000000E+00 0.  1.
         11    1    3    3    0    0  0.32368044262E+01  0.11924639361E+02 -0.10752974715E+02  0.16379877664E+02  0.51100000000E-03 0. -1.
        -11    1    3    3    0    0  0.21166030267E+01  0.39783775939E+01 -0.25555307354E+00  0.45136242961E+01  0.51100000000E-03 0.  1.
        -12    1    3    3    0    0  0.43358359597E+01  0.17177659573E+02 -0.17989758286E+02  0.25248819083E+02  0.00000000000E+00 0.  1.
</event>
<event>
 7    1  0.3910495E-008  0.4614232E+02  0.7816164E-02  0.1320468E+00
        -11   -1    0    0    0    0  0.00000000000E+00  0.00000000000E+00  0.45593999997E+02  0.45594000000E+02  0.51100000000E-03 0. -1.
         11   -1    0    0    0    0 -0.00000000000E+00 -0.00000000000E+00 -0.45593999997E+02  0.45594000000E+02  0.51100000000E-03 0.  1.
    9900012    2    1    2    0    0  0.34218954419E+02 -0.90329629444E+01 -0.27867224873E+02  0.46142317819E+02  0.10000000525E+02 0.  0.
        -12    1    1    2    0    0 -0.34218954419E+02  0.90329629444E+01  0.27867224873E+02  0.45045682181E+02  0.00000000000E+00 0.  1.
         11    1    3    3    0    0  0.18536821620E-02  0.73701891310E+00 -0.59339653928E+00  0.94621352154E+00  0.51100000000E-03 0. -1.
        -11    1    3    3    0    0  0.16978034875E+01  0.48854303988E-02 -0.92395698436E-01  0.17003228446E+01  0.51100000000E-03 0.  1.
         12    1    3    3    0    0  0.32519297249E+02 -0.97748672879E+01 -0.27181432635E+02  0.43495781453E+02  0.00000000000E+00 0. -1.
</event>
<event>
 7    1  0.3910495E-008  0.4614232E+02  0.7816164E-02  0.1320468E+00
        -11   -1    0    0    0    0  0.00000000000E+00  0.00000000000E+00  0.45593999997E+02  0.45594000000E+02  0.51100000000E-03 0.  1.
         11   -1    0    0    0    0 -0.00000000000E+00 -0.00000000000E+00 -0.45593999997E+02  0.45594000000E+02  0.51100000000E-03 0. -1.
    9900012    2    1    2    0    0 -0.13276607280E+02 -0.40118719052E+02 -0.15599154040E+02  0.46142317343E+02  0.99999961913E+01 0.  0.
        -12    1    1    2    0    0  0.13276607280E+02  0.40118719052E+02  0.15599154040E+02  0.45045682657E+02  0.00000000000E+00 0.  1.
         11    1    3    3    0    0 -0.79341706013E+01 -0.17333284184E+02 -0.61014807388E+01  0.20015540742E+02  0.51100000000E-03 0. -1.
        -11    1    3    3    0    0 -0.45186619785E+01 -0.18721998264E+02 -0.47756165581E+01  0.19842833438E+02  0.51100000000E-03 0.  1.
        -12    1    3    3    0    0 -0.82377470012E+00 -0.40634366032E+01 -0.47220567436E+01  0.62839431629E+01  0.00000000000E+00 0.  1.
</event>
<event>
 7    1  0.3910495E-008  0.4614232E+02  0.7816164E-02  0.1320468E+00
        -11   -1    0    0    0    0  0.00000000000E+00  0.00000000000E+00  0.45593999997E+02  0.45594000000E+02  0.51100000000E-03 0.  1.
         11   -1    0    0    0    0 -0.00000000000E+00 -0.00000000000E+00 -0.45593999997E+02  0.45594000000E+02  0.51100000000E-03 0. -1.
    9900012    2    1    2    0    0  0.16389116378E+01  0.42301085874E+02  0.15396283963E+02  0.46142318105E+02  0.10000003136E+02 0.  0.
        -12    1    1    2    0    0 -0.16389116378E+01 -0.42301085874E+02 -0.15396283963E+02  0.45045681895E+02  0.00000000000E+00 0.  1.
         11    1    3    3    0    0  0.19737712568E+00  0.25949506291E+02  0.94092599489E+01  0.27603441951E+02  0.51100000000E-03 0. -1.
        -11    1    3    3    0    0  0.16947651478E+00  0.11471573462E+02  0.69371514119E+01  0.13407079844E+02  0.51100000000E-03 0.  1.
        -12    1    3    3    0    0  0.12720579973E+01  0.48800061211E+01 -0.95012739765E+00  0.51317963095E+01  0.00000000000E+00 0.  1.
</event>
<event>
 7    1  0.3910495E-008  0.4614232E+02  0.7816164E-02  0.1320468E+00
        -11   -1    0    0    0    0  0.00000000000E+00  0.00000000000E+00  0.45593999997E+02  0.45594000000E+02  0.51100000000E-03 0.  1.
         11   -1    0    0    0    0 -0.00000000000E+00 -0.00000000000E+00 -0.45593999997E+02  0.45594000000E+02  0.51100000000E-03 0. -1.
    9900012    2    1    2    0    0  0.14535413549E+02  0.40800958559E+02  0.12374047178E+02  0.46142317522E+02  0.99999978192E+01 0.  0.
        -12    1    1    2    0    0 -0.14535413549E+02 -0.40800958559E+02 -0.12374047178E+02  0.45045682478E+02  0.00000000000E+00 0.  1.
         11    1    3    3    0    0  0.69358976155E-01  0.17084815282E+01 -0.14909721240E+00  0.17163770097E+01  0.51100000000E-03 0. -1.
        -11    1    3    3    0    0  0.86468041156E+01  0.12313185525E+02  0.63729411298E+01  0.16340016466E+02  0.51100000000E-03 0.  1.
         12    1    3    3    0    0  0.58192504576E+01  0.26779291505E+02  0.61502032608E+01  0.28085924046E+02  0.00000000000E+00 0. -1.
</event>
<event>
 7    1  0.3910495E-008  0.4614232E+02  0.7816164E-02  0.1320468E+00
        -11   -1    0    0    0    0  0.00000000000E+00  0.00000000000E+00  0.45593999997E+02  0.45594000000E+02  0.51100000000E-03 0. -1.
         11   -1    0    0    0    0 -0.00000000000E+00 -0.00000000000E+00 -0.45593999997E+02  0.45594000000E+02  0.51100000000E-03 0.  1.
    9900012    2    1    2    0    0  0.63838303908E+01 -0.14679659730E+02  0.42105438304E+02  0.46142316133E+02  0.99999851576E+01 0.  0.
        -12    1    1    2    0    0 -0.63838303908E+01  0.14679659730E+02 -0.42105438304E+02  0.45045683867E+02  0.00000000000E+00 0.  1.
         11    1    3    3    0    0 -0.79793946888E+00 -0.80646714903E+01  0.14013847647E+02  0.16188377306E+02  0.51100000000E-03 0. -1.
        -11    1    3    3    0    0  0.18885306487E+00 -0.14509979433E+01  0.22014955192E+01  0.26434150816E+01  0.51100000000E-03 0.  1.
         12    1    3    3    0    0  0.69929167948E+01 -0.51639902967E+01  0.25890095137E+02  0.27310523746E+02  0.00000000000E+00 0. -1.
</event>
<event>
 7    1  0.3910495E-008  0.4614232E+02  0.7816164E-02  0.1320468E+00
        -11   -1    0    0    0    0  0.00000000000E+00  0.00000000000E+00  0.45593999997E+02  0.45594000000E+02  0.51100000000E-03 0.  1.
         11   -1    0    0    0    0 -0.00000000000E+00 -0.00000000000E+00 -0.45593999997E+02  0.45594000000E+02  0.51100000000E-03 0. -1.
    9900012    2    1    2    0    0 -0.40795078132E+02  0.93456047096E+01 -0.16659374329E+02  0.46142317852E+02  0.10000000829E+02 0.  0.
        -12    1    1    2    0    0  0.40795078132E+02 -0.93456047096E+01  0.16659374329E+02  0.45045682148E+02  0.00000000000E+00 0.  1.
         11    1    3    3    0    0 -0.62580118835E+01  0.39240716258E+01 -0.41652286648E+01  0.84799870843E+01  0.51100000000E-03 0.  1.
        -11    1    3    3    0    0 -0.12718431807E+02  0.37119677053E+01 -0.20293137441E+01  0.13403556484E+02  0.51100000000E-03 0. -1.
         12    1    3    3    0    0 -0.21818634441E+02  0.17095653785E+01 -0.10464831920E+02  0.24258774284E+02  0.00000000000E+00 0. -1.
</event>
<event>
 7    1  0.3910495E-008  0.4614232E+02  0.7816164E-02  0.1320468E+00
        -11   -1    0    0    0    0  0.00000000000E+00  0.00000000000E+00  0.45593999997E+02  0.45594000000E+02  0.51100000000E-03 0.  1.
         11   -1    0    0    0    0 -0.00000000000E+00 -0.00000000000E+00 -0.45593999997E+02  0.45594000000E+02  0.51100000000E-03 0. -1.
    9900012    2    1    2    0    0 -0.11925123446E+02 -0.10958293104E+02 -0.42033565315E+02  0.46142319075E+02  0.10000011979E+02 0.  0.
        -12    1    1    2    0    0  0.11925123446E+02  0.10958293104E+02  0.42033565315E+02  0.45045680925E+02  0.00000000000E+00 0.  1.
         11    1    3    3    0    0 -0.14580246745E+01  0.12748228181E+01 -0.31036850066E+01  0.36583971969E+01  0.51100000000E-03 0.  1.
        -11    1    3    3    0    0 -0.34952200554E+00 -0.31200024336E+01 -0.47736269033E+01  0.57135011062E+01  0.51100000000E-03 0. -1.
        -12    1    3    3    0    0 -0.10117576766E+02 -0.91131134884E+01 -0.34156253405E+02  0.36770420772E+02  0.00000000000E+00 0.  1.
</event>
<event>
 7    1  0.3910495E-008  0.4614232E+02  0.7816164E-02  0.1320468E+00
        -11   -1    0    0    0    0  0.00000000000E+00  0.00000000000E+00  0.45593999997E+02  0.45594000000E+02  0.51100000000E-03 0. -1.
         11   -1    0    0    0    0 -0.00000000000E+00 -0.00000000000E+00 -0.45593999997E+02  0.45594000000E+02  0.51100000000E-03 0.  1.
    9900012    2    1    2    0    0 -0.30253168146E+01  0.40096709505E+02  0.20303073145E+02  0.46142318364E+02  0.10000005499E+02 0.  0.
        -12    1    1    2    0    0  0.30253168146E+01 -0.40096709505E+02 -0.20303073145E+02  0.45045681636E+02  0.00000000000E+00 0.  1.
         11    1    3    3    0    0 -0.29321202159E+01  0.18714812721E+02  0.83142279880E+01  0.20687385805E+02  0.51100000000E-03 0. -1.
        -11    1    3    3    0    0 -0.16960883058E+01  0.25638409373E+01 -0.19942134179E-01  0.30741492876E+01  0.51100000000E-03 0.  1.
        -12    1    3    3    0    0  0.16028917071E+01  0.18818055846E+02  0.12008787291E+02  0.22380783272E+02  0.00000000000E+00 0.  1.
</event>
<event>
 7    1  0.3910495E-008  0.4614232E+02  0.7816164E-02  0.1320468E+00
        -11   -1    0    0    0    0  0.00000000000E+00  0.00000000000E+00  0.45593999997E+02  0.45594000000E+02  0.51100000000E-03 0.  1.
         11   -1    0    0    0    0 -0.00000000000E+00 -0.00000000000E+00 -0.45593999997E+02  0.45594000000E+02  0.51100000000E-03 0. -1.
    9900012    2    1    2    0    0 -0.30780703803E+02 -0.31255794371E+02 -0.10234119414E+02  0.46142316427E+02  0.99999878345E+01 0.  0.
        -12    1    1    2    0    0  0.30780703803E+02  0.31255794371E+02  0.10234119414E+02  0.45045683573E+02  0.00000000000E+00 0.  1.
         11    1    3    3    0    0 -0.10205652321E+02 -0.10264809419E+02 -0.21539467744E+01  0.14634245409E+02  0.51100000000E-03 0. -1.
        -11    1    3    3    0    0 -0.10410583675E+02 -0.63673657833E+01 -0.67924275811E+00  0.12222314448E+02  0.51100000000E-03 0.  1.
         12    1    3    3    0    0 -0.10164467806E+02 -0.14623619169E+02 -0.74009298817E+01  0.19285756571E+02  0.00000000000E+00 0. -1.
</event>
<event>
 7    1  0.3910495E-008  0.4614232E+02  0.7816164E-02  0.1320468E+00
        -11   -1    0    0    0    0  0.00000000000E+00  0.00000000000E+00  0.45593999997E+02  0.45594000000E+02  0.51100000000E-03 0. -1.
         11   -1    0    0    0    0 -0.00000000000E+00 -0.00000000000E+00 -0.45593999997E+02  0.45594000000E+02  0.51100000000E-03 0.  1.
    9900012    2    1    2    0    0  0.15959927305E+01 -0.32959841241E+02 -0.30662927173E+02  0.46142318406E+02  0.10000005878E+02 0.  0.
        -12    1    1    2    0    0 -0.15959927305E+01  0.32959841241E+02  0.30662927173E+02  0.45045681594E+02  0.00000000000E+00 0.  1.
         11    1    3    3    0    0 -0.19382736694E+00  0.97414979474E-01 -0.13681349137E+01  0.13852263821E+01  0.51100000000E-03 0. -1.
        -11    1    3    3    0    0  0.31335829769E+01 -0.73550214171E+01 -0.84981140703E+01  0.11667631522E+02  0.51100000000E-03 0.  1.
         12    1    3    3    0    0 -0.13437628795E+01 -0.25702234804E+02 -0.20796678189E+02  0.33089460502E+02  0.00000000000E+00 0. -1.
</event>
<event>
 7    1  0.3910495E-008  0.4614232E+02  0.7816164E-02  0.1320468E+00
        -11   -1    0    0    0    0  0.00000000000E+00  0.00000000000E+00  0.45593999997E+02  0.45594000000E+02  0.51100000000E-03 0.  1.
         11   -1    0    0    0    0 -0.00000000000E+00 -0.00000000000E+00 -0.45593999997E+02  0.45594000000E+02  0.51100000000E-03 0. -1.
    9900012    2    1    2    0    0  0.71521413287E+01 -0.23913230750E+02 -0.37498236667E+02  0.46142317814E+02  0.10000000481E+02 0.  0.
        -12    1    1    2    0    0 -0.71521413287E+01  0.23913230750E+02  0.37498236667E+02  0.45045682186E+02  0.00000000000E+00 0.  1.
         11    1    3    3    0    0  0.37683926011E+01 -0.90860214565E+01 -0.12601626523E+02  0.15986167771E+02  0.51100000000E-03 0. -1.
        -11    1    3    3    0    0  0.48627572876E+01 -0.14749351667E+02 -0.22519184154E+02  0.27355135500E+02  0.51100000000E-03 0.  1.
        -12    1    3    3    0    0 -0.14790085600E+01 -0.77857626497E-01 -0.23774259907E+01  0.28010145434E+01  0.00000000000E+00 0.  1.
</event>
<event>
 7    1  0.3910495E-008  0.4614232E+02  0.7816164E-02  0.1320468E+00
        -11   -1    0    0    0    0  0.00000000000E+00  0.00000000000E+00  0.45593999997E+02  0.45594000000E+02  0.51100000000E-03 0.  1.
         11   -1    0    0    0    0 -0.00000000000E+00 -0.00000000000E+00 -0.45593999997E+02  0.45594000000E+02  0.51100000000E-03 0. -1.
    9900012    2    1    2    0    0  0.38756378754E+02 -0.15087846990E+02 -0.17303557545E+02  0.46142321798E+02  0.10000036812E+02 0.  0.
        -12    1    1    2    0    0 -0.38756378754E+02  0.15087846990E+02  0.17303557545E+02  0.45045678202E+02  0.00000000000E+00 0.  1.
         11    1    3    3    0    0  0.10736648387E+02 -0.49651499110E+01 -0.56751966344E+01  0.13120068191E+02  0.51100000000E-03 0. -1.
        -11    1    3    3    0    0  0.15724521834E+02 -0.62942609051E+01 -0.10863746766E+02  0.20122109763E+02  0.51100000000E-03 0.  1.
         12    1    3    3    0    0  0.12295208533E+02 -0.38284361739E+01 -0.76461414473E+00  0.12900143845E+02  0.00000000000E+00 0. -1.
</event>
<event>
 7    1  0.3910495E-008  0.4614232E+02  0.7816164E-02  0.1320468E+00
        -11   -1    0    0    0    0  0.00000000000E+00  0.00000000000E+00  0.45593999997E+02  0.45594000000E+02  0.51100000000E-03 0. -1.
         11   -1    0    0    0    0 -0.00000000000E+00 -0.00000000000E+00 -0.45593999997E+02  0.45594000000E+02  0.51100000000E-03 0.  1.
    9900012    2    1    2    0    0  0.12473938265E+02 -0.28547322907E+02  0.32535586914E+02  0.46142320997E+02  0.10000029508E+02 0.  0.
        -12    1    1    2    0    0 -0.12473938265E+02  0.28547322907E+02 -0.32535586914E+02  0.45045679003E+02  0.00000000000E+00 0.  1.
         11    1    3    3    0    0 -0.44499495159E+00 -0.42529920872E+00 -0.13223491982E+00  0.62959213704E+00  0.51100000000E-03 0. -1.
        -11    1    3    3    0    0  0.25523551780E+01 -0.11620667647E+01  0.28074395801E+01  0.39682027893E+01  0.51100000000E-03 0.  1.
         12    1    3    3    0    0  0.10366578038E+02 -0.26959956934E+02  0.29860382254E+02  0.41544526071E+02  0.00000000000E+00 0. -1.
</event>
<event>
 7    1  0.3910495E-008  0.4614232E+02  0.7816164E-02  0.1320468E+00
        -11   -1    0    0    0    0  0.00000000000E+00  0.00000000000E+00  0.45593999997E+02  0.45594000000E+02  0.51100000000E-03 0.  1.
         11   -1    0    0    0    0 -0.00000000000E+00 -0.00000000000E+00 -0.45593999997E+02  0.45594000000E+02  0.51100000000E-03 0. -1.
    9900012    2    1    2    0    0  0.53785906811E+01  0.14246465485E+02 -0.42393660649E+02  0.46142317857E+02  0.10000000876E+02 0.  0.
        -12    1    1    2    0    0 -0.53785906811E+01 -0.14246465485E+02  0.42393660649E+02  0.45045682143E+02  0.00000000000E+00 0.  1.
         11    1    3    3    0    0  0.28210446999E+01 -0.42043731292E+00 -0.50321832559E+01  0.57842829560E+01  0.51100000000E-03 0.  1.
        -11    1    3    3    0    0  0.18494638999E+01  0.65978697913E+01 -0.21207773532E+02  0.22287262302E+02  0.51100000000E-03 0. -1.
         12    1    3    3    0    0  0.70808208125E+00  0.80690330062E+01 -0.16153703861E+02  0.18070772599E+02  0.00000000000E+00 0. -1.
</event>
<event>
 7    1  0.3910495E-008  0.4614232E+02  0.7816164E-02  0.1320468E+00
        -11   -1    0    0    0    0  0.00000000000E+00  0.00000000000E+00  0.45593999997E+02  0.45594000000E+02  0.51100000000E-03 0.  1.
         11   -1    0    0    0    0 -0.00000000000E+00 -0.00000000000E+00 -0.45593999997E+02  0.45594000000E+02  0.51100000000E-03 0. -1.
    9900012    2    1    2    0    0 -0.77808643898E+01 -0.23259189303E+01 -0.44307580930E+02  0.46142317883E+02  0.10000001112E+02 0.  0.
        -12    1    1    2    0    0  0.77808643898E+01  0.23259189303E+01  0.44307580930E+02  0.45045682117E+02  0.00000000000E+00 0.  1.
         11    1    3    3    0    0 -0.57240341948E+01 -0.31165348250E+01 -0.21162860478E+02  0.22143712892E+02  0.51100000000E-03 0. -1.
        -11    1    3    3    0    0 -0.80464448123E+00 -0.25724743477E+01 -0.11597457023E+02  0.11906556457E+02  0.51100000000E-03 0.  1.
        -12    1    3    3    0    0 -0.12521857138E+01  0.33630902424E+01 -0.11547263429E+02  0.12092048534E+02  0.00000000000E+00 0.  1.
</event>
<event>
 7    1  0.3910495E-008  0.4614232E+02  0.7816164E-02  0.1320468E+00
        -11   -1    0    0    0    0  0.00000000000E+00  0.00000000000E+00  0.45593999997E+02  0.45594000000E+02  0.51100000000E-03 0.  1.
         11   -1    0    0    0    0 -0.00000000000E+00 -0.00000000000E+00 -0.45593999997E+02  0.45594000000E+02  0.51100000000E-03 0. -1.
    9900012    2    1    2    0    0  0.12707748976E+02 -0.36334049705E+02 -0.23397937681E+02  0.46142317191E+02  0.99999947984E+01 0.  0.
        -12    1    1    2    0    0 -0.12707748976E+02  0.36334049705E+02  0.23397937681E+02  0.45045682809E+02  0.00000000000E+00 0.  1.
         11    1    3    3    0    0  0.88396271425E+01 -0.22032865262E+02 -0.11565367607E+02  0.26407269602E+02  0.51100000000E-03 0.  1.
        -11    1    3    3    0    0  0.48806132867E+01 -0.13837744965E+02 -0.10835713237E+02  0.18240511324E+02  0.51100000000E-03 0. -1.
        -12    1    3    3    0    0 -0.10124914528E+01 -0.46343947875E+00 -0.99685683732E+00  0.14945362647E+01  0.00000000000E+00 0.  1.
</event>
<event>
 7    1  0.3910495E-008  0.4614232E+02  0.7816164E-02  0.1320468E+00
        -11   -1    0    0    0    0  0.00000000000E+00  0.00000000000E+00  0.45593999997E+02  0.45594000000E+02  0.51100000000E-03 0. -1.
         11   -1    0    0    0    0 -0.00000000000E+00 -0.00000000000E+00 -0.45593999997E+02  0.45594000000E+02  0.51100000000E-03 0.  1.
    9900012    2    1    2    0    0  0.36295628313E+02 -0.70423602889E+01  0.25732198555E+02  0.46142317459E+02  0.99999972474E+01 0.  0.
        -12    1    1    2    0    0 -0.36295628313E+02  0.70423602889E+01 -0.25732198555E+02  0.45045682541E+02  0.00000000000E+00 0.  1.
         11    1    3    3    0    0  0.12152012961E+02 -0.18635830454E+01  0.90554387836E+01  0.15269097308E+02  0.51100000000E-03 0. -1.
        -11    1    3    3    0    0  0.11918979575E+02 -0.43490085544E+01  0.12797868629E+02  0.18021137345E+02  0.51100000000E-03 0.  1.
        -12    1    3    3    0    0  0.12224635778E+02 -0.82976868910E+00  0.38788911432E+01  0.12852082807E+02  0.00000000000E+00 0.  1.
</event>
<event>
 7    1  0.3910495E-008  0.4614232E+02  0.7816164E-02  0.1320468E+00
        -11   -1    0    0    0    0  0.00000000000E+00  0.00000000000E+00  0.45593999997E+02  0.45594000000E+02  0.51100000000E-03 0. -1.
         11   -1    0    0    0    0 -0.00000000000E+00 -0.00000000000E+00 -0.45593999997E+02  0.45594000000E+02  0.51100000000E-03 0.  1.
    9900012    2    1    2    0    0 -0.95039436624E+01 -0.43153459632E+02 -0.87502794405E+01  0.46142318591E+02  0.10000007566E+02 0.  0.
        -12    1    1    2    0    0  0.95039436624E+01  0.43153459632E+02  0.87502794405E+01  0.45045681409E+02  0.00000000000E+00 0.  1.
         11    1    3    3    0    0 -0.12562782533E+01 -0.30271336813E+00 -0.30179307433E-01  0.12925871284E+01  0.51100000000E-03 0. -1.
        -11    1    3    3    0    0  0.25789585282E-01 -0.26196673368E+01  0.69717781129E+00  0.27109738508E+01  0.51100000000E-03 0.  1.
         12    1    3    3    0    0 -0.82734549944E+01 -0.40231078927E+02 -0.94172779444E+01  0.42138757612E+02  0.00000000000E+00 0. -1.
</event>
<event>
 7    1  0.3910495E-008  0.4614232E+02  0.7816164E-02  0.1320468E+00
        -11   -1    0    0    0    0  0.00000000000E+00  0.00000000000E+00  0.45593999997E+02  0.45594000000E+02  0.51100000000E-03 0.  1.
         11   -1    0    0    0    0 -0.00000000000E+00 -0.00000000000E+00 -0.45593999997E+02  0.45594000000E+02  0.51100000000E-03 0. -1.
    9900012    2    1    2    0    0 -0.22367116562E+02 -0.22702476271E+02 -0.31834307667E+02  0.46142317890E+02  0.10000001175E+02 0.  0.
        -12    1    1    2    0    0  0.22367116562E+02  0.22702476271E+02  0.31834307667E+02  0.45045682110E+02  0.00000000000E+00 0.  1.
         11    1    3    3    0    0 -0.84064670097E+01 -0.12622674687E+02 -0.17401519517E+02  0.23082752990E+02  0.51100000000E-03 0. -1.
        -11    1    3    3    0    0 -0.25776500047E+01  0.49871546952E-01 -0.10652552186E+01  0.27895404029E+01  0.51100000000E-03 0.  1.
         12    1    3    3    0    0 -0.11382999547E+02 -0.10129673130E+02 -0.13367532932E+02  0.20270024497E+02  0.00000000000E+00 0. -1.
</event>
<event>
 7    1  0.3910495E-008  0.4614232E+02  0.7816164E-02  0.1320468E+00
        -11   -1    0    0    0    0  0.00000000000E+00  0.00000000000E+00  0.45593999997E+02  0.45594000000E+02  0.51100000000E-03 0. -1.
         11   -1    0    0    0    0 -0.00000000000E+00 -0.00000000000E+00 -0.45593999997E+02  0.45594000000E+02  0.51100000000E-03 0.  1.
    9900012    2    1    2    0    0  0.41668099962E+02 -0.16727292773E+02 -0.36166947403E+01  0.46142319200E+02  0.10000013119E+02 0.  0.
        -12    1    1    2    0    0 -0.41668099962E+02  0.16727292773E+02  0.36166947403E+01  0.45045680800E+02  0.00000000000E+00 0.  1.
         11    1    3    3    0    0  0.12683370660E+02 -0.28116143368E+01 -0.44390597005E+00  0.12998850689E+02  0.51100000000E-03 0.  1.
        -11    1    3    3    0    0  0.28295984223E+02 -0.11748310776E+02 -0.35327848510E+01  0.30840980826E+02  0.51100000000E-03 0. -1.
        -12    1    3    3    0    0  0.68874507854E+00 -0.21673676605E+01  0.35999608080E+00  0.23024876845E+01  0.00000000000E+00 0.  1.
</event>
<event>
 7    1  0.3910495E-008  0.4614232E+02  0.7816164E-02  0.1320468E+00
        -11   -1    0    0    0    0  0.00000000000E+00  0.00000000000E+00  0.45593999997E+02  0.45594000000E+02  0.51100000000E-03 0. -1.
         11   -1    0    0    0    0 -0.00000000000E+00 -0.00000000000E+00 -0.45593999997E+02  0.45594000000E+02  0.51100000000E-03 0.  1.
    9900012    2    1    2    0    0 -0.43885175847E+02 -0.81643385880E+01  0.60454954557E+01  0.46142322083E+02  0.10000039414E+02 0.  0.
        -12    1    1    2    0    0  0.43885175847E+02  0.81643385880E+01 -0.60454954557E+01  0.45045677917E+02  0.00000000000E+00 0.  1.
         11    1    3    3    0    0 -0.65252386547E+01 -0.31642900977E+01 -0.94912585635E+00  0.73138438236E+01  0.51100000000E-03 0. -1.
        -11    1    3    3    0    0 -0.37138065922E+01 -0.55490463808E+00 -0.11484757283E+01  0.39267385094E+01  0.51100000000E-03 0.  1.
         12    1    3    3    0    0 -0.33646130600E+02 -0.44451438522E+01  0.81430970403E+01  0.34901739750E+02  0.00000000000E+00 0. -1.
</event>
<event>
 7    1  0.3910495E-008  0.4614232E+02  0.7816164E-02  0.1320468E+00
        -11   -1    0    0    0    0  0.00000000000E+00  0.00000000000E+00  0.45593999997E+02  0.45594000000E+02  0.51100000000E-03 0.  1.
         11   -1    0    0    0    0 -0.00000000000E+00 -0.00000000000E+00 -0.45593999997E+02  0.45594000000E+02  0.51100000000E-03 0. -1.
    9900012    2    1    2    0    0 -0.29690898132E+01 -0.58050809040E+01 -0.44571279613E+02  0.46142318465E+02  0.10000006418E+02 0.  0.
        -12    1    1    2    0    0  0.29690898132E+01  0.58050809040E+01  0.44571279613E+02  0.45045681535E+02  0.00000000000E+00 0.  1.
         11    1    3    3    0    0 -0.58012543935E+00  0.26680805498E+00 -0.21916926698E+02  0.21926226493E+02  0.51100000000E-03 0. -1.
        -11    1    3    3    0    0  0.30197060024E+00  0.97554134667E-01  0.21072440178E+00  0.38093055433E+00  0.51100000000E-03 0.  1.
        -12    1    3    3    0    0 -0.26909349741E+01 -0.61694430936E+01 -0.22865077317E+02  0.23835161418E+02  0.00000000000E+00 0.  1.
</event>
<event>
 7    1  0.3910495E-008  0.4614232E+02  0.7816164E-02  0.1320468E+00
        -11   -1    0    0    0    0  0.00000000000E+00  0.00000000000E+00  0.45593999997E+02  0.45594000000E+02  0.51100000000E-03 0. -1.
         11   -1    0    0    0    0 -0.00000000000E+00 -0.00000000000E+00 -0.45593999997E+02  0.45594000000E+02  0.51100000000E-03 0.  1.
    9900012    2    1    2    0    0  0.22803171231E+02  0.75566729253E+01  0.38105454952E+02  0.46142316289E+02  0.99999865759E+01 0.  0.
        -12    1    1    2    0    0 -0.22803171231E+02 -0.75566729253E+01 -0.38105454952E+02  0.45045683711E+02  0.00000000000E+00 0.  1.
         11    1    3    3    0    0  0.10552280184E+02  0.55547765558E+01  0.24160767796E+02  0.26943438170E+02  0.51100000000E-03 0. -1.
        -11    1    3    3    0    0  0.13005531522E+01  0.97200492753E+00  0.42052803777E+01  0.45078393269E+01  0.51100000000E-03 0.  1.
         12    1    3    3    0    0  0.10950337895E+02  0.10298914419E+01  0.97394067783E+01  0.14691038792E+02  0.00000000000E+00 0. -1.
</event>
<event>
 7    1  0.3910495E-008  0.4614232E+02  0.7816164E-02  0.1320468E+00
        -11   -1    0    0    0    0  0.00000000000E+00  0.00000000000E+00  0.45593999997E+02  0.45594000000E+02  0.51100000000E-03 0. -1.
         11   -1    0    0    0    0 -0.00000000000E+00 -0.00000000000E+00 -0.45593999997E+02  0.45594000000E+02  0.51100000000E-03 0.  1.
    9900012    2    1    2    0    0  0.10234796836E+02 -0.25639129548E+02  0.35594908106E+02  0.46142317484E+02  0.99999974716E+01 0.  0.
        -12    1    1    2    0    0 -0.10234796836E+02  0.25639129548E+02 -0.35594908106E+02  0.45045682516E+02  0.00000000000E+00 0.  1.
         11    1    3    3    0    0  0.17310132391E+01 -0.15744422612E+02  0.23433452297E+02  0.28284446911E+02  0.51100000000E-03 0. -1.
        -11    1    3    3    0    0  0.37451247837E+01 -0.39717150594E+01  0.55747537418E+01  0.78024585677E+01  0.51100000000E-03 0.  1.
        -12    1    3    3    0    0  0.47586588136E+01 -0.59229918766E+01  0.65867020666E+01  0.10055412005E+02  0.00000000000E+00 0.  1.
</event>
<event>
 7    1  0.3910495E-008  0.4614232E+02  0.7816164E-02  0.1320468E+00
        -11   -1    0    0    0    0  0.00000000000E+00  0.00000000000E+00  0.45593999997E+02  0.45594000000E+02  0.51100000000E-03 0.  1.
         11   -1    0    0    0    0 -0.00000000000E+00 -0.00000000000E+00 -0.45593999997E+02  0.45594000000E+02  0.51100000000E-03 0. -1.
    9900012    2    1    2    0    0 -0.44661436805E+01  0.38783313913E+02 -0.22472687275E+02  0.46142317068E+02  0.99999936824E+01 0.  0.
        -12    1    1    2    0    0  0.44661436805E+01 -0.38783313913E+02  0.22472687275E+02  0.45045682932E+02  0.00000000000E+00 0.  1.
         11    1    3    3    0    0 -0.88863611067E+00  0.73973937722E+01 -0.58286626636E+01  0.94596203659E+01  0.51100000000E-03 0. -1.
        -11    1    3    3    0    0 -0.32909124073E+01  0.35099372358E+01 -0.23766304476E+01  0.53663895141E+01  0.51100000000E-03 0.  1.
         12    1    3    3    0    0 -0.28659516246E+00  0.27875982905E+02 -0.14267394164E+02  0.31316307188E+02  0.00000000000E+00 0. -1.
</event>
<event>
 7    1  0.3910495E-008  0.4614233E+02  0.7816164E-02  0.1320468E+00
        -11   -1    0    0    0    0  0.00000000000E+00  0.00000000000E+00  0.45593999997E+02  0.45594000000E+02  0.51100000000E-03 0.  1.
         11   -1    0    0    0    0 -0.00000000000E+00 -0.00000000000E+00 -0.45593999997E+02  0.45594000000E+02  0.51100000000E-03 0. -1.
    9900012    2    1    2    0    0  0.38422978381E+02 -0.23471826669E+02 -0.13641248171E+01  0.46142325941E+02  0.10000074594E+02 0.  0.
        -12    1    1    2    0    0 -0.38422978381E+02  0.23471826669E+02  0.13641248171E+01  0.45045674059E+02  0.00000000000E+00 0.  1.
         11    1    3    3    0    0  0.19595847021E+02 -0.93066237289E+01  0.18637593200E+01  0.21773471583E+02  0.51100000000E-03 0.  1.
        -11    1    3    3    0    0  0.14415672327E+02 -0.11574624786E+02 -0.33229193724E+00  0.18490374950E+02  0.51100000000E-03 0. -1.
        -12    1    3    3    0    0  0.44114590328E+01 -0.25905781543E+01 -0.28955921999E+01  0.58784794088E+01  0.00000000000E+00 0.  1.
</event>
<event>
 7    1  0.3910495E-008  0.4614232E+02  0.7816164E-02  0.1320468E+00
        -11   -1    0    0    0    0  0.00000000000E+00  0.00000000000E+00  0.45593999997E+02  0.45594000000E+02  0.51100000000E-03 0.  1.
         11   -1    0    0    0    0 -0.00000000000E+00 -0.00000000000E+00 -0.45593999997E+02  0.45594000000E+02  0.51100000000E-03 0. -1.
    9900012    2    1    2    0    0 -0.17863841282E+02  0.38311203589E+02  0.15564322509E+02  0.46142320063E+02  0.10000020990E+02 0.  0.
        -12    1    1    2    0    0  0.17863841282E+02 -0.38311203589E+02 -0.15564322509E+02  0.45045679937E+02  0.00000000000E+00 0.  1.
         11    1    3    3    0    0 -0.34624461918E+01  0.72252164179E+01  0.36546552223E+01  0.88061791358E+01  0.51100000000E-03 0. -1.
        -11    1    3    3    0    0 -0.30507623627E+01  0.10471561132E+02  0.78923959081E+01  0.13462936417E+02  0.51100000000E-03 0.  1.
         12    1    3    3    0    0 -0.11350632728E+02  0.20614426039E+02  0.40172713788E+01  0.23873204510E+02  0.00000000000E+00 0. -1.
</event>
<event>
 7    1  0.3910495E-008  0.4614232E+02  0.7816164E-02  0.1320468E+00
        -11   -1    0    0    0    0  0.00000000000E+00  0.00000000000E+00  0.45593999997E+02  0.45594000000E+02  0.51100000000E-03 0. -1.
         11   -1    0    0    0    0 -0.00000000000E+00 -0.00000000000E+00 -0.45593999997E+02  0.45594000000E+02  0.51100000000E-03 0.  1.
    9900012    2    1    2    0    0 -0.29765048248E+02  0.33536807296E+02 -0.42939422501E+01  0.46142317845E+02  0.10000000763E+02 0.  0.
        -12    1    1    2    0    0  0.29765048248E+02 -0.33536807296E+02  0.42939422501E+01  0.45045682155E+02  0.00000000000E+00 0.  1.
         11    1    3    3    0    0 -0.46980485139E+01  0.35252815231E+01 -0.24108117364E+01  0.63491167217E+01  0.51100000000E-03 0. -1.
        -11    1    3    3    0    0 -0.10610662807E+02  0.17532722745E+02 -0.27449012032E+01  0.20676484589E+02  0.51100000000E-03 0.  1.
        -12    1    3    3    0    0 -0.14456336927E+02  0.12478803027E+02  0.86177068954E+00  0.19116716534E+02  0.00000000000E+00 0.  1.
</event>
<event>
 7    1  0.3910495E-008  0.4614232E+02  0.7816164E-02  0.1320468E+00
        -11   -1    0    0    0    0  0.00000000000E+00  0.00000000000E+00  0.45593999997E+02  0.45594000000E+02  0.51100000000E-03 0.  1.
         11   -1    0    0    0    0 -0.00000000000E+00 -0.00000000000E+00 -0.45593999997E+02  0.45594000000E+02  0.51100000000E-03 0. -1.
    9900012    2    1    2    0    0 -0.11249789690E+02 -0.34623403397E+02 -0.26528770242E+02  0.46142317838E+02  0.10000000699E+02 0.  0.
        -12    1    1    2    0    0  0.11249789690E+02  0.34623403397E+02  0.26528770242E+02  0.45045682162E+02  0.00000000000E+00 0.  1.
         11    1    3    3    0    0 -0.15520516534E+01 -0.82759949884E+01 -0.71682274088E+01  0.11058229597E+02  0.51100000000E-03 0. -1.
        -11    1    3    3    0    0 -0.71684126284E+01 -0.24273886023E+02 -0.14334408112E+02  0.29087504851E+02  0.51100000000E-03 0.  1.
         12    1    3    3    0    0 -0.25293254087E+01 -0.20735223855E+01 -0.50261347214E+01  0.59965833892E+01  0.00000000000E+00 0. -1.
</event>
<event>
 7    1  0.3910495E-008  0.4614232E+02  0.7816164E-02  0.1320468E+00
        -11   -1    0    0    0    0  0.00000000000E+00  0.00000000000E+00  0.45593999997E+02  0.45594000000E+02  0.51100000000E-03 0.  1.
         11   -1    0    0    0    0 -0.00000000000E+00 -0.00000000000E+00 -0.45593999997E+02  0.45594000000E+02  0.51100000000E-03 0. -1.
    9900012    2    1    2    0    0 -0.95596514616E+01  0.56948237570E+01 -0.43649691999E+02  0.46142316907E+02  0.99999922125E+01 0.  0.
        -12    1    1    2    0    0  0.95596514616E+01 -0.56948237570E+01  0.43649691999E+02  0.45045683093E+02  0.00000000000E+00 0.  1.
         11    1    3    3    0    0 -0.11167585422E+02  0.49330082028E+01 -0.33136386340E+02  0.35313873109E+02  0.51100000000E-03 0. -1.
        -11    1    3    3    0    0  0.37111467193E+00 -0.23493674543E+00 -0.64611903669E+01  0.64761024229E+01  0.51100000000E-03 0.  1.
         12    1    3    3    0    0  0.12368192881E+01  0.99675229966E+00 -0.40521152925E+01  0.43523413747E+01  0.00000000000E+00 0. -1.
</event>
<event>
 7    1  0.3910495E-008  0.4614233E+02  0.7816164E-02  0.1320468E+00
        -11   -1    0    0    0    0  0.00000000000E+00  0.00000000000E+00  0.45593999997E+02  0.45594000000E+02  0.51100000000E-03 0.  1.
         11   -1    0    0    0    0 -0.00000000000E+00 -0.00000000000E+00 -0.45593999997E+02  0.45594000000E+02  0.51100000000E-03 0. -1.
    9900012    2    1    2    0    0  0.45569508791E+01  0.62155881299E+01 -0.44381448614E+02  0.46142330750E+02  0.10000118443E+02 0.  0.
        -12    1    1    2    0    0 -0.45569508791E+01 -0.62155881299E+01  0.44381448614E+02  0.45045669250E+02  0.00000000000E+00 0.  1.
         11    1    3    3    0    0 -0.54382782357E+00 -0.19111494730E+01 -0.68459652803E+01  0.71284978705E+01  0.51100000000E-03 0. -1.
        -11    1    3    3    0    0  0.17449593968E+01  0.39700364572E+01 -0.90951424655E+01  0.10076094953E+02  0.51100000000E-03 0.  1.
        -12    1    3    3    0    0  0.33558193059E+01  0.41567011457E+01 -0.28440340868E+02  0.28937737927E+02  0.00000000000E+00 0.  1.
</event>
<event>
 7    1  0.3910495E-008  0.4614232E+02  0.7816164E-02  0.1320468E+00
        -11   -1    0    0    0    0  0.00000000000E+00  0.00000000000E+00  0.45593999997E+02  0.45594000000E+02  0.51100000000E-03 0.  1.
         11   -1    0    0    0    0 -0.00000000000E+00 -0.00000000000E+00 -0.45593999997E+02  0.45594000000E+02  0.51100000000E-03 0. -1.
    9900012    2    1    2    0    0 -0.23638068748E+02  0.91095704954E+01 -0.37247430080E+02  0.46142316341E+02  0.99999870462E+01 0.  0.
        -12    1    1    2    0    0  0.23638068748E+02 -0.91095704954E+01  0.37247430080E+02  0.45045683659E+02  0.00000000000E+00 0.  1.
         11    1    3    3    0    0 -0.11027013069E+02  0.36951794148E+01 -0.13871308539E+02  0.18101452124E+02  0.51100000000E-03 0. -1.
        -11    1    3    3    0    0 -0.75976930715E+01  0.63718210507E+01 -0.18458471353E+02  0.20953286340E+02  0.51100000000E-03 0.  1.
        -12    1    3    3    0    0 -0.50133626074E+01 -0.95742997007E+00 -0.49176501878E+01  0.70875778762E+01  0.00000000000E+00 0.  1.
</event>
<event>
 7    1  0.3910495E-008  0.4614233E+02  0.7816164E-02  0.1320468E+00
        -11   -1    0    0    0    0  0.00000000000E+00  0.00000000000E+00  0.45593999997E+02  0.45594000000E+02  0.51100000000E-03 0.  1.
         11   -1    0    0    0    0 -0.00000000000E+00 -0.00000000000E+00 -0.45593999997E+02  0.45594000000E+02  0.51100000000E-03 0. -1.
    9900012    2    1    2    0    0  0.36888888486E+02  0.25100218745E+02  0.61888084448E+01  0.46142329567E+02  0.10000107652E+02 0.  0.
        -12    1    1    2    0    0 -0.36888888486E+02 -0.25100218745E+02 -0.61888084448E+01  0.45045670433E+02  0.00000000000E+00 0.  1.
         11    1    3    3    0    0  0.23635038061E+02  0.19896312671E+02  0.44653152273E+01  0.31215658288E+02  0.51100000000E-03 0. -1.
        -11    1    3    3    0    0  0.59261255135E+01  0.42727344381E+01 -0.14532674420E+00  0.73072801577E+01  0.51100000000E-03 0.  1.
         12    1    3    3    0    0  0.73277249122E+01  0.93117163670E+00  0.18688199617E+01  0.76193911210E+01  0.00000000000E+00 0. -1.
</event>
<event>
 7    1  0.3910495E-008  0.4614232E+02  0.7816164E-02  0.1320468E+00
        -11   -1    0    0    0    0  0.00000000000E+00  0.00000000000E+00  0.45593999997E+02  0.45594000000E+02  0.51100000000E-03 0. -1.
         11   -1    0    0    0    0 -0.00000000000E+00 -0.00000000000E+00 -0.45593999997E+02  0.45594000000E+02  0.51100000000E-03 0.  1.
    9900012    2    1    2    0    0 -0.60052560010E+01  0.13108588167E+02  0.42675699231E+02  0.46142317762E+02  0.10000000012E+02 0.  0.
        -12    1    1    2    0    0  0.60052560010E+01 -0.13108588167E+02 -0.42675699231E+02  0.45045682238E+02  0.00000000000E+00 0.  1.
         11    1    3    3    0    0 -0.47852815141E+01  0.11911577235E+02  0.29174353641E+02  0.31873617649E+02  0.51100000000E-03 0. -1.
        -11    1    3    3    0    0  0.15326797344E+01  0.57648355286E+00  0.32948329480E+01  0.36793158157E+01  0.51100000000E-03 0.  1.
        -12    1    3    3    0    0 -0.27526542214E+01  0.62052737911E+00  0.10206512643E+02  0.10589384298E+02  0.00000000000E+00 0.  1.
</event>
<event>
 7    1  0.3910495E-008  0.4614232E+02  0.7816164E-02  0.1320468E+00
        -11   -1    0    0    0    0  0.00000000000E+00  0.00000000000E+00  0.45593999997E+02  0.45594000000E+02  0.51100000000E-03 0.  1.
         11   -1    0    0    0    0 -0.00000000000E+00 -0.00000000000E+00 -0.45593999997E+02  0.45594000000E+02  0.51100000000E-03 0. -1.
    9900012    2    1    2    0    0  0.24157502030E+01 -0.44956605287E+02 -0.14769788816E+01  0.46142315694E+02  0.99999811544E+01 0.  0.
        -12    1    1    2    0    0 -0.24157502030E+01  0.44956605287E+02  0.14769788816E+01  0.45045684306E+02  0.00000000000E+00 0.  1.
         11    1    3    3    0    0  0.21150521215E+01 -0.84048157751E+01  0.30757764297E+01  0.91964544579E+01  0.51100000000E-03 0. -1.
        -11    1    3    3    0    0  0.52826728906E+00 -0.20005540550E+01 -0.67758002333E+00  0.21772454626E+01  0.51100000000E-03 0.  1.
         12    1    3    3    0    0 -0.22756920752E+00 -0.34551235457E+02 -0.38751752880E+01  0.34768615774E+02  0.00000000000E+00 0. -1.
</event>
<event>
 7    1  0.3910495E-008  0.4614232E+02  0.7816164E-02  0.1320468E+00
        -11   -1    0    0    0    0  0.00000000000E+00  0.00000000000E+00  0.45593999997E+02  0.45594000000E+02  0.51100000000E-03 0.  1.
         11   -1    0    0    0    0 -0.00000000000E+00 -0.00000000000E+00 -0.45593999997E+02  0.45594000000E+02  0.51100000000E-03 0. -1.
    9900012    2    1    2    0    0 -0.24697830396E+02 -0.28140249158E+02 -0.25045101381E+02  0.46142317053E+02  0.99999935419E+01 0.  0.
        -12    1    1    2    0    0  0.24697830396E+02  0.28140249158E+02  0.25045101381E+02  0.45045682947E+02  0.00000000000E+00 0.  1.
         11    1    3    3    0    0 -0.11149150849E+02 -0.10856868565E+02 -0.15800753702E+02  0.22177442988E+02  0.51100000000E-03 0. -1.
        -11    1    3    3    0    0 -0.95735769584E+01 -0.12539654124E+02 -0.78462409542E+01  0.17619869429E+02  0.51100000000E-03 0.  1.
         12    1    3    3    0    0 -0.39751025895E+01 -0.47437264698E+01 -0.13981067251E+01  0.63450046361E+01  0.00000000000E+00 0. -1.
</event>
<event>
 7    1  0.3910495E-008  0.4614232E+02  0.7816164E-02  0.1320468E+00
        -11   -1    0    0    0    0  0.00000000000E+00  0.00000000000E+00  0.45593999997E+02  0.45594000000E+02  0.51100000000E-03 0. -1.
         11   -1    0    0    0    0 -0.00000000000E+00 -0.00000000000E+00 -0.45593999997E+02  0.45594000000E+02  0.51100000000E-03 0.  1.
    9900012    2    1    2    0    0 -0.40816921061E+02  0.15614813354E+02  0.10921093352E+02  0.46142315179E+02  0.99999764588E+01 0.  0.
        -12    1    1    2    0    0  0.40816921061E+02 -0.15614813354E+02 -0.10921093352E+02  0.45045684821E+02  0.00000000000E+00 0.  1.
         11    1    3    3    0    0 -0.29257906570E+02  0.11153445709E+02  0.56131817362E+01  0.31810882690E+02  0.51100000000E-03 0. -1.
        -11    1    3    3    0    0 -0.36358615113E+01  0.12267634374E+01 -0.66603920077E+00  0.38946175600E+01  0.51100000000E-03 0.  1.
        -12    1    3    3    0    0 -0.79231529790E+01  0.32346042069E+01  0.59739508170E+01  0.10436814929E+02  0.00000000000E+00 0.  1.
</event>
<event>
 7    1  0.3910495E-008  0.4614232E+02  0.7816164E-02  0.1320468E+00
        -11   -1    0    0    0    0  0.00000000000E+00  0.00000000000E+00  0.45593999997E+02  0.45594000000E+02  0.51100000000E-03 0.  1.
         11   -1    0    0    0    0 -0.00000000000E+00 -0.00000000000E+00 -0.45593999997E+02  0.45594000000E+02  0.51100000000E-03 0. -1.
    9900012    2    1    2    0    0  0.29262307595E+01  0.21572556387E+02 -0.39435713991E+02  0.46142317038E+02  0.99999934047E+01 0.  0.
        -12    1    1    2    0    0 -0.29262307595E+01 -0.21572556387E+02  0.39435713991E+02  0.45045682962E+02  0.00000000000E+00 0.  1.
         11    1    3    3    0    0 -0.19733769378E+01  0.80246581391E+01 -0.20442635798E+02  0.22049732729E+02  0.51100000000E-03 0. -1.
        -11    1    3    3    0    0  0.90840774391E+00  0.62992208436E+00 -0.27172874796E+01  0.29335401769E+01  0.51100000000E-03 0.  1.
         12    1    3    3    0    0  0.39911999534E+01  0.12917976163E+02 -0.16275790714E+02  0.21159044132E+02  0.00000000000E+00 0. -1.
</event>
<event>
 7    1  0.3910495E-008  0.4614232E+02  0.7816164E-02  0.1320468E+00
        -11   -1    0    0    0    0  0.00000000000E+00  0.00000000000E+00  0.45593999997E+02  0.45594000000E+02  0.51100000000E-03 0.  1.
         11   -1    0    0    0    0 -0.00000000000E+00 -0.00000000000E+00 -0.45593999997E+02  0.45594000000E+02  0.51100000000E-03 0. -1.
    9900012    2    1    2    0    0  0.39488733740E+02 -0.56244369426E+01 -0.20931295537E+02  0.46142317452E+02  0.99999971831E+01 0.  0.
        -12    1    1    2    0    0 -0.39488733740E+02  0.56244369426E+01  0.20931295537E+02  0.45045682548E+02  0.00000000000E+00 0.  1.
         11    1    3    3    0    0  0.29563329174E+02 -0.30362901196E+01 -0.19351989617E+02  0.35464193096E+02  0.51100000000E-03 0. -1.
        -11    1    3    3    0    0  0.10680267571E+01 -0.41510312360E+00 -0.10313235782E+01  0.15416291191E+01  0.51100000000E-03 0.  1.
        -12    1    3    3    0    0  0.88573778090E+01 -0.21730436994E+01 -0.54798234215E+00  0.91364952371E+01  0.00000000000E+00 0.  1.
</event>
<event>
 7    1  0.3910495E-008  0.4614232E+02  0.7816164E-02  0.1320468E+00
        -11   -1    0    0    0    0  0.00000000000E+00  0.00000000000E+00  0.45593999997E+02  0.45594000000E+02  0.51100000000E-03 0.  1.
         11   -1    0    0    0    0 -0.00000000000E+00 -0.00000000000E+00 -0.45593999997E+02  0.45594000000E+02  0.51100000000E-03 0. -1.
    9900012    2    1    2    0    0 -0.35192696748E+01  0.24565399500E+02 -0.37593474467E+02  0.46142318363E+02  0.10000005484E+02 0.  0.
        -12    1    1    2    0    0  0.35192696748E+01 -0.24565399500E+02  0.37593474467E+02  0.45045681637E+02  0.00000000000E+00 0.  1.
         11    1    3    3    0    0 -0.17071633664E+00  0.11884771968E+02 -0.13875741372E+02  0.18270554116E+02  0.51100000000E-03 0. -1.
        -11    1    3    3    0    0 -0.49183437830E+01  0.11569704065E+02 -0.21739429701E+02  0.25112764915E+02  0.51100000000E-03 0.  1.
        -12    1    3    3    0    0  0.15697904449E+01  0.11109234672E+01 -0.19783033948E+01  0.27589993318E+01  0.00000000000E+00 0.  1.
</event>
<event>
 7    1  0.3910495E-008  0.4614231E+02  0.7816164E-02  0.1320468E+00
        -11   -1    0    0    0    0  0.00000000000E+00  0.00000000000E+00  0.45593999997E+02  0.45594000000E+02  0.51100000000E-03 0.  1.
         11   -1    0    0    0    0 -0.00000000000E+00 -0.00000000000E+00 -0.45593999997E+02  0.45594000000E+02  0.51100000000E-03 0. -1.
    9900012    2    1    2    0    0 -0.11292077366E+02  0.43336931681E+02  0.48490548503E+01  0.46142312174E+02  0.99999490562E+01 0.  0.
        -12    1    1    2    0    0  0.11292077366E+02 -0.43336931681E+02 -0.48490548503E+01  0.45045687826E+02  0.00000000000E+00 0.  1.
         11    1    3    3    0    0 -0.13540682680E+01  0.31136944028E+01  0.82575470464E+00  0.34943475502E+01  0.51100000000E-03 0. -1.
        -11    1    3    3    0    0 -0.65165417235E+01  0.37290205214E+02  0.44746441316E+01  0.38118855718E+02  0.51100000000E-03 0.  1.
        -12    1    3    3    0    0 -0.34214673751E+01  0.29330320641E+01 -0.45134398600E+00  0.45291089059E+01  0.00000000000E+00 0.  1.
</event>
<event>
 7    1  0.3910495E-008  0.4614232E+02  0.7816164E-02  0.1320468E+00
        -11   -1    0    0    0    0  0.00000000000E+00  0.00000000000E+00  0.45593999997E+02  0.45594000000E+02  0.51100000000E-03 0. -1.
         11   -1    0    0    0    0 -0.00000000000E+00 -0.00000000000E+00 -0.45593999997E+02  0.45594000000E+02  0.51100000000E-03 0.  1.
    9900012    2    1    2    0    0  0.47728639289E+01 -0.43715865511E+02  0.97599247227E+01  0.46142320318E+02  0.10000023315E+02 0.  0.
        -12    1    1    2    0    0 -0.47728639289E+01  0.43715865511E+02 -0.97599247227E+01  0.45045679682E+02  0.00000000000E+00 0.  1.
         11    1    3    3    0    0  0.12672245574E+01 -0.84683744210E+01  0.25244947121E+01  0.89270542300E+01  0.51100000000E-03 0. -1.
        -11    1    3    3    0    0  0.34734565875E+01 -0.10386279412E+02  0.55997589957E+01  0.12300284621E+02  0.51100000000E-03 0.  1.
        -12    1    3    3    0    0  0.32182783933E-01 -0.24861211678E+02  0.16356710148E+01  0.24914981467E+02  0.00000000000E+00 0.  1.
</event>
<event>
 7    1  0.3910495E-008  0.4614232E+02  0.7816164E-02  0.1320468E+00
        -11   -1    0    0    0    0  0.00000000000E+00  0.00000000000E+00  0.45593999997E+02  0.45594000000E+02  0.51100000000E-03 0.  1.
         11   -1    0    0    0    0 -0.00000000000E+00 -0.00000000000E+00 -0.45593999997E+02  0.45594000000E+02  0.51100000000E-03 0. -1.
    9900012    2    1    2    0    0  0.34680148025E+01  0.19108955005E+02 -0.40643994029E+02  0.46142317202E+02  0.99999949060E+01 0.  0.
        -12    1    1    2    0    0 -0.34680148025E+01 -0.19108955005E+02  0.40643994029E+02  0.45045682798E+02  0.00000000000E+00 0.  1.
         11    1    3    3    0    0  0.25572951277E+01  0.17606538861E+02 -0.35878504580E+02  0.40047435127E+02  0.51100000000E-03 0. -1.
        -11    1    3    3    0    0 -0.69548447979E+00  0.19931726359E+01 -0.28628695978E+01  0.35570294367E+01  0.51100000000E-03 0.  1.
        -12    1    3    3    0    0  0.16062041546E+01 -0.49075649213E+00 -0.19026198512E+01  0.25378526393E+01  0.00000000000E+00 0.  1.
</event>
<event>
 7    1  0.3910495E-008  0.4614232E+02  0.7816164E-02  0.1320468E+00
        -11   -1    0    0    0    0  0.00000000000E+00  0.00000000000E+00  0.45593999997E+02  0.45594000000E+02  0.51100000000E-03 0. -1.
         11   -1    0    0    0    0 -0.00000000000E+00 -0.00000000000E+00 -0.45593999997E+02  0.45594000000E+02  0.51100000000E-03 0.  1.
    9900012    2    1    2    0    0 -0.73654288796E+01  0.44057278430E+02 -0.58155144573E+01  0.46142317258E+02  0.99999954150E+01 0.  0.
        -12    1    1    2    0    0  0.73654288796E+01 -0.44057278430E+02  0.58155144573E+01  0.45045682742E+02  0.00000000000E+00 0.  1.
         11    1    3    3    0    0 -0.17151987222E+01  0.17499856962E+02  0.88660810975E-01  0.17583934751E+02  0.51100000000E-03 0. -1.
        -11    1    3    3    0    0 -0.32213341622E+01  0.20668302669E+02 -0.18324432947E+01  0.20997942225E+02  0.51100000000E-03 0.  1.
        -12    1    3    3    0    0 -0.24288959951E+01  0.58891187995E+01 -0.40717319736E+01  0.75604402818E+01  0.00000000000E+00 0.  1.
</event>
<event>
 7    1  0.3910495E-008  0.4614232E+02  0.7816164E-02  0.1320468E+00
        -11   -1    0    0    0    0  0.00000000000E+00  0.00000000000E+00  0.45593999997E+02  0.45594000000E+02  0.51100000000E-03 0.  1.
         11   -1    0    0    0    0 -0.00000000000E+00 -0.00000000000E+00 -0.45593999997E+02  0.45594000000E+02  0.51100000000E-03 0. -1.
    9900012    2    1    2    0    0  0.16043750165E+02 -0.37678175961E+02 -0.18763437608E+02  0.46142318143E+02  0.10000003479E+02 0.  0.
        -12    1    1    2    0    0 -0.16043750165E+02  0.37678175961E+02  0.18763437608E+02  0.45045681857E+02  0.00000000000E+00 0.  1.
         11    1    3    3    0    0 -0.15641643969E+00 -0.17897277050E+01 -0.15511760872E+01  0.23735498468E+01  0.51100000000E-03 0.  1.
        -11    1    3    3    0    0  0.12508030169E+02 -0.22927984330E+02 -0.75517375393E+01  0.27187718261E+02  0.51100000000E-03 0. -1.
         12    1    3    3    0    0  0.36921364364E+01 -0.12960463926E+02 -0.96605239815E+01  0.16581050035E+02  0.00000000000E+00 0. -1.
</event>
<event>
 7    1  0.3910495E-008  0.4614232E+02  0.7816164E-02  0.1320468E+00
        -11   -1    0    0    0    0  0.00000000000E+00  0.00000000000E+00  0.45593999997E+02  0.45594000000E+02  0.51100000000E-03 0.  1.
         11   -1    0    0    0    0 -0.00000000000E+00 -0.00000000000E+00 -0.45593999997E+02  0.45594000000E+02  0.51100000000E-03 0. -1.
    9900012    2    1    2    0    0  0.34377770996E+02  0.17896544848E+02  0.22956393998E+02  0.46142317837E+02  0.10000000692E+02 0.  0.
        -12    1    1    2    0    0 -0.34377770996E+02 -0.17896544848E+02 -0.22956393998E+02  0.45045682163E+02  0.00000000000E+00 0.  1.
         11    1    3    3    0    0  0.12009860090E+02  0.74304389922E+01  0.52152017968E+01  0.15054783062E+02  0.51100000000E-03 0. -1.
        -11    1    3    3    0    0 -0.25462006291E+00  0.27224555081E+00  0.12243119844E+01  0.12798004191E+01  0.51100000000E-03 0.  1.
        -12    1    3    3    0    0  0.22622530969E+02  0.10193860305E+02  0.16516880217E+02  0.29807734356E+02  0.00000000000E+00 0.  1.
</event>
<event>
 7    1  0.3910495E-008  0.4614232E+02  0.7816164E-02  0.1320468E+00
        -11   -1    0    0    0    0  0.00000000000E+00  0.00000000000E+00  0.45593999997E+02  0.45594000000E+02  0.51100000000E-03 0.  1.
         11   -1    0    0    0    0 -0.00000000000E+00 -0.00000000000E+00 -0.45593999997E+02  0.45594000000E+02  0.51100000000E-03 0. -1.
    9900012    2    1    2    0    0  0.10712613367E+02  0.43609942798E+02 -0.35392357400E+01  0.46142318901E+02  0.10000010397E+02 0.  0.
        -12    1    1    2    0    0 -0.10712613367E+02 -0.43609942798E+02  0.35392357400E+01  0.45045681099E+02  0.00000000000E+00 0.  1.
         11    1    3    3    0    0  0.51887605951E+01  0.11896080640E+02 -0.22041668926E+01  0.13164282095E+02  0.51100000000E-03 0. -1.
        -11    1    3    3    0    0  0.44835952393E+01  0.18344775812E+02  0.24539276858E+01  0.19043507744E+02  0.51100000000E-03 0.  1.
        -12    1    3    3    0    0  0.10402575327E+01  0.13369086346E+02 -0.37889965332E+01  0.13934529063E+02  0.00000000000E+00 0.  1.
</event>
<event>
 7    1  0.3910495E-008  0.4614232E+02  0.7816164E-02  0.1320468E+00
        -11   -1    0    0    0    0  0.00000000000E+00  0.00000000000E+00  0.45593999997E+02  0.45594000000E+02  0.51100000000E-03 0.  1.
         11   -1    0    0    0    0 -0.00000000000E+00 -0.00000000000E+00 -0.45593999997E+02  0.45594000000E+02  0.51100000000E-03 0. -1.
    9900012    2    1    2    0    0  0.21003461468E+02  0.76137295193E+01 -0.39115204854E+02  0.46142317392E+02  0.99999966352E+01 0.  0.
        -12    1    1    2    0    0 -0.21003461468E+02 -0.76137295193E+01  0.39115204854E+02  0.45045682608E+02  0.00000000000E+00 0.  1.
         11    1    3    3    0    0  0.80544362507E+01  0.30453215711E+01 -0.86735373838E+01  0.12222036565E+02  0.51100000000E-03 0. -1.
        -11    1    3    3    0    0  0.88458261935E+01  0.31406839280E+01 -0.13583671496E+02  0.16511470806E+02  0.51100000000E-03 0.  1.
        -12    1    3    3    0    0  0.41031990238E+01  0.14277240202E+01 -0.16857995974E+02  0.17408810022E+02  0.00000000000E+00 0.  1.
</event>
<event>
 7    1  0.3910495E-008  0.4614232E+02  0.7816164E-02  0.1320468E+00
        -11   -1    0    0    0    0  0.00000000000E+00  0.00000000000E+00  0.45593999997E+02  0.45594000000E+02  0.51100000000E-03 0. -1.
         11   -1    0    0    0    0 -0.00000000000E+00 -0.00000000000E+00 -0.45593999997E+02  0.45594000000E+02  0.51100000000E-03 0.  1.
    9900012    2    1    2    0    0 -0.39963575552E+02  0.20768640909E+02  0.83047588062E+00  0.46142317562E+02  0.99999981867E+01 0.  0.
        -12    1    1    2    0    0  0.39963575552E+02 -0.20768640909E+02 -0.83047588062E+00  0.45045682438E+02  0.00000000000E+00 0.  1.
         11    1    3    3    0    0 -0.19924628516E+02  0.14277485666E+02 -0.55794647638E+00  0.24518334426E+02  0.51100000000E-03 0. -1.
        -11    1    3    3    0    0 -0.11375364125E+01  0.17572060470E+01  0.76842413532E-01  0.20946759174E+01  0.51100000000E-03 0.  1.
        -12    1    3    3    0    0 -0.18901410623E+02  0.47339491961E+01  0.13115799435E+01  0.19529307219E+02  0.00000000000E+00 0.  1.
</event>
<event>
 7    1  0.3910495E-008  0.4614231E+02  0.7816164E-02  0.1320468E+00
        -11   -1    0    0    0    0  0.00000000000E+00  0.00000000000E+00  0.45593999997E+02  0.45594000000E+02  0.51100000000E-03 0. -1.
         11   -1    0    0    0    0 -0.00000000000E+00 -0.00000000000E+00 -0.45593999997E+02  0.45594000000E+02  0.51100000000E-03 0.  1.
    9900012    2    1    2    0    0  0.38372199250E+02 -0.13805931844E+02  0.19133335257E+02  0.46142312665E+02  0.99999535315E+01 0.  0.
        -12    1    1    2    0    0 -0.38372199250E+02  0.13805931844E+02 -0.19133335257E+02  0.45045687335E+02  0.00000000000E+00 0.  1.
         11    1    3    3    0    0  0.90504188839E+01 -0.59680060104E+00  0.29196809653E+01  0.95284201278E+01  0.51100000000E-03 0. -1.
        -11    1    3    3    0    0 -0.26866352631E+00  0.19329974595E+00  0.27438130947E+00  0.42991888335E+00  0.51100000000E-03 0.  1.
         12    1    3    3    0    0  0.29590443893E+02 -0.13402430989E+02  0.15939272982E+02  0.36183973654E+02  0.00000000000E+00 0. -1.
</event>
<event>
 7    1  0.3910495E-008  0.4614232E+02  0.7816164E-02  0.1320468E+00
        -11   -1    0    0    0    0  0.00000000000E+00  0.00000000000E+00  0.45593999997E+02  0.45594000000E+02  0.51100000000E-03 0.  1.
         11   -1    0    0    0    0 -0.00000000000E+00 -0.00000000000E+00 -0.45593999997E+02  0.45594000000E+02  0.51100000000E-03 0. -1.
    9900012    2    1    2    0    0  0.10730344548E+02 -0.25328204324E+02 -0.35671492557E+02  0.46142316415E+02  0.99999877258E+01 0.  0.
        -12    1    1    2    0    0 -0.10730344548E+02  0.25328204324E+02  0.35671492557E+02  0.45045683585E+02  0.00000000000E+00 0.  1.
         11    1    3    3    0    0 -0.71651068851E+00 -0.18977205819E+01 -0.68909783908E+01  0.71833358837E+01  0.51100000000E-03 0. -1.
        -11    1    3    3    0    0  0.39069635292E+01 -0.62112734527E+01 -0.64480681605E+01  0.97684115999E+01  0.51100000000E-03 0.  1.
         12    1    3    3    0    0  0.75398917075E+01 -0.17219210290E+02 -0.22332446005E+02  0.29190568931E+02  0.00000000000E+00 0. -1.
</event>
<event>
 7    1  0.3910495E-008  0.4614232E+02  0.7816164E-02  0.1320468E+00
        -11   -1    0    0    0    0  0.00000000000E+00  0.00000000000E+00  0.45593999997E+02  0.45594000000E+02  0.51100000000E-03 0. -1.
         11   -1    0    0    0    0 -0.00000000000E+00 -0.00000000000E+00 -0.45593999997E+02  0.45594000000E+02  0.51100000000E-03 0.  1.
    9900012    2    1    2    0    0  0.38174718316E+02  0.36175264815E+01  0.23637210138E+02  0.46142319636E+02  0.10000017100E+02 0.  0.
        -12    1    1    2    0    0 -0.38174718316E+02 -0.36175264815E+01 -0.23637210138E+02  0.45045680364E+02  0.00000000000E+00 0.  1.
         11    1    3    3    0    0  0.10337435837E+00  0.31229796735E+00  0.36498334178E+00  0.49135463697E+00  0.51100000000E-03 0. -1.
        -11    1    3    3    0    0  0.14033647961E+02 -0.16923318184E+01  0.48065991111E+01  0.14930192811E+02  0.51100000000E-03 0.  1.
         12    1    3    3    0    0  0.24037695996E+02  0.49975603325E+01  0.18465627685E+02  0.30720772189E+02  0.00000000000E+00 0. -1.
</event>
<event>
 7    1  0.3910495E-008  0.4614232E+02  0.7816164E-02  0.1320468E+00
        -11   -1    0    0    0    0  0.00000000000E+00  0.00000000000E+00  0.45593999997E+02  0.45594000000E+02  0.51100000000E-03 0.  1.
         11   -1    0    0    0    0 -0.00000000000E+00 -0.00000000000E+00 -0.45593999997E+02  0.45594000000E+02  0.51100000000E-03 0. -1.
    9900012    2    1    2    0    0  0.27688807267E+02 -0.14513337255E+02 -0.32431566312E+02  0.46142317636E+02  0.99999988601E+01 0.  0.
        -12    1    1    2    0    0 -0.27688807267E+02  0.14513337255E+02  0.32431566312E+02  0.45045682364E+02  0.00000000000E+00 0.  1.
         11    1    3    3    0    0  0.10723257881E+01 -0.19943394585E+01 -0.10055624359E+01  0.24775852246E+01  0.51100000000E-03 0. -1.
        -11    1    3    3    0    0  0.99279882014E+01 -0.23384527937E+01 -0.14955631933E+02  0.18102603071E+02  0.51100000000E-03 0.  1.
         12    1    3    3    0    0  0.16688493278E+02 -0.10180545003E+02 -0.16470371944E+02  0.25562129340E+02  0.00000000000E+00 0. -1.
</event>
<event>
 7    1  0.3910495E-008  0.4614232E+02  0.7816164E-02  0.1320468E+00
        -11   -1    0    0    0    0  0.00000000000E+00  0.00000000000E+00  0.45593999997E+02  0.45594000000E+02  0.51100000000E-03 0.  1.
         11   -1    0    0    0    0 -0.00000000000E+00 -0.00000000000E+00 -0.45593999997E+02  0.45594000000E+02  0.51100000000E-03 0. -1.
    9900012    2    1    2    0    0 -0.67194225139E+01  0.80943481394E+01 -0.43800043469E+02  0.46142324085E+02  0.10000057669E+02 0.  0.
        -12    1    1    2    0    0  0.67194225139E+01 -0.80943481394E+01  0.43800043469E+02  0.45045675915E+02  0.00000000000E+00 0.  1.
         11    1    3    3    0    0 -0.26187144600E+01  0.54467136398E+01 -0.34480049432E+02  0.35005687595E+02  0.51100000000E-03 0. -1.
        -11    1    3    3    0    0 -0.12764351139E+01  0.28044786788E+01 -0.34827931887E+01  0.46501866539E+01  0.51100000000E-03 0.  1.
         12    1    3    3    0    0 -0.28242729401E+01 -0.15684417919E+00 -0.58372008479E+01  0.64864498360E+01  0.00000000000E+00 0. -1.
</event>
<event>
 7    1  0.3910495E-008  0.4614232E+02  0.7816164E-02  0.1320468E+00
        -11   -1    0    0    0    0  0.00000000000E+00  0.00000000000E+00  0.45593999997E+02  0.45594000000E+02  0.51100000000E-03 0. -1.
         11   -1    0    0    0    0 -0.00000000000E+00 -0.00000000000E+00 -0.45593999997E+02  0.45594000000E+02  0.51100000000E-03 0.  1.
    9900012    2    1    2    0    0 -0.20511427185E+01  0.41513043117E+02  0.17365873252E+02  0.46142317753E+02  0.99999999247E+01 0.  0.
        -12    1    1    2    0    0  0.20511427185E+01 -0.41513043117E+02 -0.17365873252E+02  0.45045682247E+02  0.00000000000E+00 0.  1.
         11    1    3    3    0    0 -0.38422982904E+00  0.31737168647E+02  0.10190951203E+02  0.33335431495E+02  0.51100000000E-03 0. -1.
        -11    1    3    3    0    0 -0.12669835563E+01  0.70846521141E+00  0.15760367512E+01  0.21426764548E+01  0.51100000000E-03 0.  1.
         12    1    3    3    0    0 -0.39992933310E+00  0.90674092588E+01  0.55988852981E+01  0.10664209803E+02  0.00000000000E+00 0. -1.
</event>
<event>
 7    1  0.3910495E-008  0.4614232E+02  0.7816164E-02  0.1320468E+00
        -11   -1    0    0    0    0  0.00000000000E+00  0.00000000000E+00  0.45593999997E+02  0.45594000000E+02  0.51100000000E-03 0.  1.
         11   -1    0    0    0    0 -0.00000000000E+00 -0.00000000000E+00 -0.45593999997E+02  0.45594000000E+02  0.51100000000E-03 0. -1.
    9900012    2    1    2    0    0 -0.31739623357E+02  0.24550309611E+02 -0.20469300906E+02  0.46142315718E+02  0.99999813699E+01 0.  0.
        -12    1    1    2    0    0  0.31739623357E+02 -0.24550309611E+02  0.20469300906E+02  0.45045684282E+02  0.00000000000E+00 0.  1.
         11    1    3    3    0    0 -0.15790882673E+01  0.41236122753E+00 -0.24462522396E+00  0.16502737043E+01  0.51100000000E-03 0. -1.
        -11    1    3    3    0    0 -0.15255769944E+01  0.39165093612E+01 -0.40688145065E+00  0.42227933312E+01  0.51100000000E-03 0.  1.
         12    1    3    3    0    0 -0.28634958096E+02  0.20221439022E+02 -0.19817794232E+02  0.40269248683E+02  0.00000000000E+00 0. -1.
</event>
<event>
 7    1  0.3910495E-008  0.4614232E+02  0.7816164E-02  0.1320468E+00
        -11   -1    0    0    0    0  0.00000000000E+00  0.00000000000E+00  0.45593999997E+02  0.45594000000E+02  0.51100000000E-03 0.  1.
         11   -1    0    0    0    0 -0.00000000000E+00 -0.00000000000E+00 -0.45593999997E+02  0.45594000000E+02  0.51100000000E-03 0. -1.
    9900012    2    1    2    0    0 -0.25911123128E+02  0.46820947398E+01 -0.36548671295E+02  0.46142315563E+02  0.99999799581E+01 0.  0.
        -12    1    1    2    0    0  0.25911123128E+02 -0.46820947398E+01  0.36548671295E+02  0.45045684437E+02  0.00000000000E+00 0.  1.
         11    1    3    3    0    0 -0.36965258771E+01  0.94945379090E+00 -0.69953985541E+01  0.79687745138E+01  0.51100000000E-03 0. -1.
        -11    1    3    3    0    0 -0.73505264201E+01  0.16364038294E+01 -0.39735442078E+01  0.85145234733E+01  0.51100000000E-03 0.  1.
        -12    1    3    3    0    0 -0.14864070831E+02  0.20962371195E+01 -0.25579728533E+02  0.29659017576E+02  0.00000000000E+00 0.  1.
</event>
<event>
 7    1  0.3910495E-008  0.4614232E+02  0.7816164E-02  0.1320468E+00
        -11   -1    0    0    0    0  0.00000000000E+00  0.00000000000E+00  0.45593999997E+02  0.45594000000E+02  0.51100000000E-03 0. -1.
         11   -1    0    0    0    0 -0.00000000000E+00 -0.00000000000E+00 -0.45593999997E+02  0.45594000000E+02  0.51100000000E-03 0.  1.
    9900012    2    1    2    0    0 -0.14741176754E+02  0.42562468660E+02 -0.49725663923E+00  0.46142319911E+02  0.10000019602E+02 0.  0.
        -12    1    1    2    0    0  0.14741176754E+02 -0.42562468660E+02  0.49725663923E+00  0.45045680089E+02  0.00000000000E+00 0.  1.
         11    1    3    3    0    0 -0.12395641338E+02  0.30342205701E+02  0.90219538674E+00  0.32788951306E+02  0.51100000000E-03 0. -1.
        -11    1    3    3    0    0 -0.17910258195E+01  0.12217955118E+01  0.37079393223E+00  0.21995559006E+01  0.51100000000E-03 0.  1.
         12    1    3    3    0    0 -0.55450959657E+00  0.10998467448E+02 -0.17702459582E+01  0.11153812704E+02  0.00000000000E+00 0. -1.
</event>
<event>
 7    1  0.3910495E-008  0.4614232E+02  0.7816164E-02  0.1320468E+00
        -11   -1    0    0    0    0  0.00000000000E+00  0.00000000000E+00  0.45593999997E+02  0.45594000000E+02  0.51100000000E-03 0.  1.
         11   -1    0    0    0    0 -0.00000000000E+00 -0.00000000000E+00 -0.45593999997E+02  0.45594000000E+02  0.51100000000E-03 0. -1.
    9900012    2    1    2    0    0 -0.19398518173E+01 -0.42052941002E+02 -0.16028118379E+02  0.46142318179E+02  0.10000003808E+02 0.  0.
        -12    1    1    2    0    0  0.19398518173E+01  0.42052941002E+02  0.16028118379E+02  0.45045681821E+02  0.00000000000E+00 0.  1.
         11    1    3    3    0    0 -0.16449551855E+01 -0.20184911215E+02 -0.73960729975E+01  0.21560111650E+02  0.51100000000E-03 0. -1.
        -11    1    3    3    0    0 -0.16511323154E+01 -0.11677505099E+02 -0.11140107222E+01  0.11846154795E+02  0.51100000000E-03 0.  1.
        -12    1    3    3    0    0  0.13562356836E+01 -0.10190524687E+02 -0.75180346589E+01  0.12736051734E+02  0.00000000000E+00 0.  1.
</event>
<event>
 7    1  0.3910495E-008  0.4614232E+02  0.7816164E-02  0.1320468E+00
        -11   -1    0    0    0    0  0.00000000000E+00  0.00000000000E+00  0.45593999997E+02  0.45594000000E+02  0.51100000000E-03 0.  1.
         11   -1    0    0    0    0 -0.00000000000E+00 -0.00000000000E+00 -0.45593999997E+02  0.45594000000E+02  0.51100000000E-03 0. -1.
    9900012    2    1    2    0    0 -0.66687106575E+01 -0.44430259383E+02  0.32548033568E+01  0.46142318791E+02  0.10000009395E+02 0.  0.
        -12    1    1    2    0    0  0.66687106575E+01  0.44430259383E+02 -0.32548033568E+01  0.45045681209E+02  0.00000000000E+00 0.  1.
         11    1    3    3    0    0 -0.84382250643E-01  0.20737739421E+00  0.66852481848E+00  0.70501875287E+00  0.51100000000E-03 0. -1.
        -11    1    3    3    0    0 -0.50449669986E+01 -0.19931555378E+02  0.22304435194E+01  0.20680751204E+02  0.51100000000E-03 0.  1.
         12    1    3    3    0    0 -0.15393614083E+01 -0.24706081399E+02  0.35583501892E+00  0.24756548834E+02  0.00000000000E+00 0. -1.
</event>
<event>
 7    1  0.4784819E-008  0.4614232E+02  0.7816164E-02  0.1320468E+00
        -11   -1    0    0    0    0  0.00000000000E+00  0.00000000000E+00  0.45593999997E+02  0.45594000000E+02  0.51100000000E-03 0.  1.
         11   -1    0    0    0    0 -0.00000000000E+00 -0.00000000000E+00 -0.45593999997E+02  0.45594000000E+02  0.51100000000E-03 0. -1.
    9900012    2    1    2    0    0  0.75872665789E+01  0.27770772517E+02 -0.34645794098E+02  0.46142317976E+02  0.10000001962E+02 0.  0.
        -12    1    1    2    0    0 -0.75872665789E+01 -0.27770772517E+02  0.34645794098E+02  0.45045682024E+02  0.00000000000E+00 0.  1.
         11    1    3    3    0    0  0.27865591986E+01  0.30505374831E+01 -0.30705177473E+01  0.51476956593E+01  0.51100000000E-03 0. -1.
        -11    1    3    3    0    0 -0.22002146191E+00  0.40633985629E-01 -0.25758366288E+01  0.25855357596E+01  0.51100000000E-03 0.  1.
         12    1    3    3    0    0  0.50207288421E+01  0.24679601048E+02 -0.28999439722E+02  0.38409086557E+02  0.00000000000E+00 0. -1.
</event>
<event>
 7    1  0.3910495E-008  0.4614232E+02  0.7816164E-02  0.1320468E+00
        -11   -1    0    0    0    0  0.00000000000E+00  0.00000000000E+00  0.45593999997E+02  0.45594000000E+02  0.51100000000E-03 0. -1.
         11   -1    0    0    0    0 -0.00000000000E+00 -0.00000000000E+00 -0.45593999997E+02  0.45594000000E+02  0.51100000000E-03 0.  1.
    9900012    2    1    2    0    0 -0.42485455391E+02 -0.14206827961E+02  0.47186412446E+01  0.46142318124E+02  0.10000003311E+02 0.  0.
        -12    1    1    2    0    0  0.42485455391E+02  0.14206827961E+02 -0.47186412446E+01  0.45045681876E+02  0.00000000000E+00 0.  1.
         11    1    3    3    0    0 -0.10580056125E+02 -0.51237135459E+01 -0.20231142782E+01  0.11928244622E+02  0.51100000000E-03 0. -1.
        -11    1    3    3    0    0 -0.15673371245E+02 -0.48854022657E+01  0.83624925569E+00  0.16438401216E+02  0.51100000000E-03 0.  1.
        -12    1    3    3    0    0 -0.16232028021E+02 -0.41977121495E+01  0.59055062671E+01  0.17775672286E+02  0.00000000000E+00 0.  1.
</event>
<event>
 7    1  0.3910495E-008  0.4614232E+02  0.7816164E-02  0.1320468E+00
        -11   -1    0    0    0    0  0.00000000000E+00  0.00000000000E+00  0.45593999997E+02  0.45594000000E+02  0.51100000000E-03 0. -1.
         11   -1    0    0    0    0 -0.00000000000E+00 -0.00000000000E+00 -0.45593999997E+02  0.45594000000E+02  0.51100000000E-03 0.  1.
    9900012    2    1    2    0    0  0.37696957117E+02 -0.24518907110E+02  0.26222582473E+01  0.46142316299E+02  0.99999866711E+01 0.  0.
        -12    1    1    2    0    0 -0.37696957117E+02  0.24518907110E+02 -0.26222582473E+01  0.45045683701E+02  0.00000000000E+00 0.  1.
         11    1    3    3    0    0  0.42225600947E+01 -0.54311514149E+01  0.13287760557E+01  0.70066443832E+01  0.51100000000E-03 0. -1.
        -11    1    3    3    0    0  0.15175075877E+02 -0.56658616183E+01  0.25933807542E+01  0.16404588984E+02  0.51100000000E-03 0.  1.
         12    1    3    3    0    0  0.18299321145E+02 -0.13421894076E+02 -0.12998985626E+01  0.22731082932E+02  0.00000000000E+00 0. -1.
</event>
<event>
 7    1  0.3910495E-008  0.4614232E+02  0.7816164E-02  0.1320468E+00
        -11   -1    0    0    0    0  0.00000000000E+00  0.00000000000E+00  0.45593999997E+02  0.45594000000E+02  0.51100000000E-03 0. -1.
         11   -1    0    0    0    0 -0.00000000000E+00 -0.00000000000E+00 -0.45593999997E+02  0.45594000000E+02  0.51100000000E-03 0.  1.
    9900012    2    1    2    0    0 -0.65739561011E+01  0.34052212862E+02  0.28746189205E+02  0.46142317705E+02  0.99999994905E+01 0.  0.
        -12    1    1    2    0    0  0.65739561011E+01 -0.34052212862E+02 -0.28746189205E+02  0.45045682295E+02  0.00000000000E+00 0.  1.
         11    1    3    3    0    0 -0.28181922304E+01  0.21082262594E+02  0.17833184253E+02  0.27756557142E+02  0.51100000000E-03 0. -1.
        -11    1    3    3    0    0 -0.16407850483E+01  0.12507300123E+02  0.96196078563E+01  0.15863845294E+02  0.51100000000E-03 0.  1.
        -12    1    3    3    0    0 -0.21149788225E+01  0.46265014426E+00  0.12933970958E+01  0.25219152688E+01  0.00000000000E+00 0.  1.
</event>
<event>
 7    1  0.3910495E-008  0.4614232E+02  0.7816164E-02  0.1320468E+00
        -11   -1    0    0    0    0  0.00000000000E+00  0.00000000000E+00  0.45593999997E+02  0.45594000000E+02  0.51100000000E-03 0. -1.
         11   -1    0    0    0    0 -0.00000000000E+00 -0.00000000000E+00 -0.45593999997E+02  0.45594000000E+02  0.51100000000E-03 0.  1.
    9900012    2    1    2    0    0  0.28984286995E+01 -0.43887066995E+02 -0.97282009269E+01  0.46142318391E+02  0.10000005744E+02 0.  0.
        -12    1    1    2    0    0 -0.28984286995E+01  0.43887066995E+02  0.97282009269E+01  0.45045681609E+02  0.00000000000E+00 0.  1.
         11    1    3    3    0    0  0.22551307514E+01 -0.37835876112E+02 -0.81658198218E+01  0.38772667557E+02  0.51100000000E-03 0. -1.
        -11    1    3    3    0    0  0.14127554443E+01 -0.62131578309E+01 -0.16402494042E+01  0.65794852798E+01  0.51100000000E-03 0.  1.
        -12    1    3    3    0    0 -0.76945749632E+00  0.16196694803E+00  0.77868299040E-01  0.79016555410E+00  0.00000000000E+00 0.  1.
</event>
<event>
 7    1  0.3910495E-008  0.4614232E+02  0.7816164E-02  0.1320468E+00
        -11   -1    0    0    0    0  0.00000000000E+00  0.00000000000E+00  0.45593999997E+02  0.45594000000E+02  0.51100000000E-03 0.  1.
         11   -1    0    0    0    0 -0.00000000000E+00 -0.00000000000E+00 -0.45593999997E+02  0.45594000000E+02  0.51100000000E-03 0. -1.
    9900012    2    1    2    0    0 -0.26491406271E+02  0.25845722142E+02 -0.25677179119E+02  0.46142317779E+02  0.10000000166E+02 0.  0.
        -12    1    1    2    0    0  0.26491406271E+02 -0.25845722142E+02  0.25677179119E+02  0.45045682221E+02  0.00000000000E+00 0.  1.
         11    1    3    3    0    0 -0.17631532744E-02 -0.27093040431E+00 -0.47961241546E+00  0.55084909265E+00  0.51100000000E-03 0.  1.
        -11    1    3    3    0    0 -0.69079793942E+01  0.49524683164E+01 -0.95539913015E+01  0.12787723479E+02  0.51100000000E-03 0. -1.
         12    1    3    3    0    0 -0.19581663723E+02  0.21164184229E+02 -0.15643575402E+02  0.32803745207E+02  0.00000000000E+00 0. -1.
</event>
<event>
 7    1  0.3910495E-008  0.4614232E+02  0.7816164E-02  0.1320468E+00
        -11   -1    0    0    0    0  0.00000000000E+00  0.00000000000E+00  0.45593999997E+02  0.45594000000E+02  0.51100000000E-03 0.  1.
         11   -1    0    0    0    0 -0.00000000000E+00 -0.00000000000E+00 -0.45593999997E+02  0.45594000000E+02  0.51100000000E-03 0. -1.
    9900012    2    1    2    0    0  0.32548797295E+02 -0.13969305693E+02 -0.27830697829E+02  0.46142318203E+02  0.10000004032E+02 0.  0.
        -12    1    1    2    0    0 -0.32548797295E+02  0.13969305693E+02  0.27830697829E+02  0.45045681797E+02  0.00000000000E+00 0.  1.
         11    1    3    3    0    0  0.57106346722E+01 -0.41819530483E+01 -0.46202936697E+01  0.84526441729E+01  0.51100000000E-03 0. -1.
        -11    1    3    3    0    0  0.15417698591E+02 -0.19830814116E+01 -0.95218565496E+01  0.18229201687E+02  0.51100000000E-03 0.  1.
         12    1    3    3    0    0  0.11420464032E+02 -0.78042712331E+01 -0.13688547609E+02  0.19460472344E+02  0.00000000000E+00 0. -1.
</event>
<event>
 7    1  0.3910495E-008  0.4614232E+02  0.7816164E-02  0.1320468E+00
        -11   -1    0    0    0    0  0.00000000000E+00  0.00000000000E+00  0.45593999997E+02  0.45594000000E+02  0.51100000000E-03 0.  1.
         11   -1    0    0    0    0 -0.00000000000E+00 -0.00000000000E+00 -0.45593999997E+02  0.45594000000E+02  0.51100000000E-03 0. -1.
    9900012    2    1    2    0    0 -0.14911103838E+02  0.34446943318E+02 -0.24903425481E+02  0.46142317384E+02  0.99999965628E+01 0.  0.
        -12    1    1    2    0    0  0.14911103838E+02 -0.34446943318E+02  0.24903425481E+02  0.45045682616E+02  0.00000000000E+00 0.  1.
         11    1    3    3    0    0 -0.11329434904E+02  0.28994138913E+02 -0.19813750448E+02  0.36899876607E+02  0.51100000000E-03 0.  1.
        -11    1    3    3    0    0 -0.41462533384E+01  0.50709092859E+01 -0.33148661266E+01  0.73412448148E+01  0.51100000000E-03 0. -1.
        -12    1    3    3    0    0  0.56458440502E+00  0.38189511951E+00 -0.17748089060E+01  0.19011959619E+01  0.00000000000E+00 0.  1.
</event>
<event>
 7    1  0.3910495E-008  0.4614233E+02  0.7816164E-02  0.1320468E+00
        -11   -1    0    0    0    0  0.00000000000E+00  0.00000000000E+00  0.45593999997E+02  0.45594000000E+02  0.51100000000E-03 0. -1.
         11   -1    0    0    0    0 -0.00000000000E+00 -0.00000000000E+00 -0.45593999997E+02  0.45594000000E+02  0.51100000000E-03 0.  1.
    9900012    2    1    2    0    0  0.32952602821E+02 -0.20874908384E+02  0.22527232864E+02  0.46142333691E+02  0.10000145257E+02 0.  0.
        -12    1    1    2    0    0 -0.32952602821E+02  0.20874908384E+02 -0.22527232864E+02  0.45045666309E+02  0.00000000000E+00 0.  1.
         11    1    3    3    0    0  0.18820838070E+02 -0.70426016476E+01  0.13430520282E+02  0.24170251528E+02  0.51100000000E-03 0. -1.
        -11    1    3    3    0    0  0.94331928102E+01 -0.83797566737E+01  0.43337657630E+01  0.13341175902E+02  0.51100000000E-03 0.  1.
        -12    1    3    3    0    0  0.46985719413E+01 -0.54525500629E+01  0.47629468188E+01  0.86309062603E+01  0.00000000000E+00 0.  1.
</event>
<event>
 7    1  0.3910495E-008  0.4614232E+02  0.7816164E-02  0.1320468E+00
        -11   -1    0    0    0    0  0.00000000000E+00  0.00000000000E+00  0.45593999997E+02  0.45594000000E+02  0.51100000000E-03 0.  1.
         11   -1    0    0    0    0 -0.00000000000E+00 -0.00000000000E+00 -0.45593999997E+02  0.45594000000E+02  0.51100000000E-03 0. -1.
    9900012    2    1    2    0    0 -0.28285642521E+02  0.26223737293E+01 -0.34959392107E+02  0.46142317484E+02  0.99999974769E+01 0.  0.
        -12    1    1    2    0    0  0.28285642521E+02 -0.26223737293E+01  0.34959392107E+02  0.45045682516E+02  0.00000000000E+00 0.  1.
         11    1    3    3    0    0 -0.63112142818E+01  0.26424941061E+01 -0.12476835459E+02  0.14229744346E+02  0.51100000000E-03 0. -1.
        -11    1    3    3    0    0 -0.37195538792E+01  0.14374080746E+01 -0.20828268628E+01  0.44988210717E+01  0.51100000000E-03 0.  1.
        -12    1    3    3    0    0 -0.18254874360E+02 -0.14575284514E+01 -0.20399729785E+02  0.27413752067E+02  0.00000000000E+00 0.  1.
</event>
<event>
 7    1  0.3910495E-008  0.4614232E+02  0.7816164E-02  0.1320468E+00
        -11   -1    0    0    0    0  0.00000000000E+00  0.00000000000E+00  0.45593999997E+02  0.45594000000E+02  0.51100000000E-03 0.  1.
         11   -1    0    0    0    0 -0.00000000000E+00 -0.00000000000E+00 -0.45593999997E+02  0.45594000000E+02  0.51100000000E-03 0. -1.
    9900012    2    1    2    0    0  0.12036161385E+01 -0.16968389796E+02 -0.41710172660E+02  0.46142318216E+02  0.10000004150E+02 0.  0.
        -12    1    1    2    0    0 -0.12036161385E+01  0.16968389796E+02  0.41710172660E+02  0.45045681784E+02  0.00000000000E+00 0.  1.
         11    1    3    3    0    0  0.24040795644E+01 -0.25648091649E+01 -0.27422158236E+01  0.44584293747E+01  0.51100000000E-03 0. -1.
        -11    1    3    3    0    0  0.60934676140E+00 -0.52617366480E+00 -0.21640053696E+01  0.23089135328E+01  0.51100000000E-03 0.  1.
         12    1    3    3    0    0 -0.18098101873E+01 -0.13877406966E+02 -0.36803951466E+02  0.39374975309E+02  0.00000000000E+00 0. -1.
</event>
<event>
 7    1  0.3910495E-008  0.4614232E+02  0.7816164E-02  0.1320468E+00
        -11   -1    0    0    0    0  0.00000000000E+00  0.00000000000E+00  0.45593999997E+02  0.45594000000E+02  0.51100000000E-03 0.  1.
         11   -1    0    0    0    0 -0.00000000000E+00 -0.00000000000E+00 -0.45593999997E+02  0.45594000000E+02  0.51100000000E-03 0. -1.
    9900012    2    1    2    0    0  0.17126601817E+02 -0.13834494168E+02 -0.39298854917E+02  0.46142315229E+02  0.99999769096E+01 0.  0.
        -12    1    1    2    0    0 -0.17126601817E+02  0.13834494168E+02  0.39298854917E+02  0.45045684771E+02  0.00000000000E+00 0.  1.
         11    1    3    3    0    0  0.14369164983E+01 -0.31926090921E+01 -0.19959639460E+01  0.40300563486E+01  0.51100000000E-03 0. -1.
        -11    1    3    3    0    0  0.72452315917E+01 -0.22128373370E+01 -0.13253248337E+02  0.15265602564E+02  0.51100000000E-03 0.  1.
         12    1    3    3    0    0  0.84444537272E+01 -0.84290477390E+01 -0.24049642634E+02  0.26846656316E+02  0.00000000000E+00 0. -1.
</event>
<event>
 7    1  0.3910495E-008  0.4614232E+02  0.7816164E-02  0.1320468E+00
        -11   -1    0    0    0    0  0.00000000000E+00  0.00000000000E+00  0.45593999997E+02  0.45594000000E+02  0.51100000000E-03 0.  1.
         11   -1    0    0    0    0 -0.00000000000E+00 -0.00000000000E+00 -0.45593999997E+02  0.45594000000E+02  0.51100000000E-03 0. -1.
    9900012    2    1    2    0    0 -0.26889328735E+02  0.31587898364E+02 -0.17557964377E+02  0.46142318343E+02  0.10000005310E+02 0.  0.
        -12    1    1    2    0    0  0.26889328735E+02 -0.31587898364E+02  0.17557964377E+02  0.45045681657E+02  0.00000000000E+00 0.  1.
         11    1    3    3    0    0 -0.69831179367E+01  0.73873658934E+01 -0.25292070792E+01  0.10475399738E+02  0.51100000000E-03 0. -1.
        -11    1    3    3    0    0 -0.36895024785E+01  0.25078435436E+01 -0.52072680866E+01  0.68569197870E+01  0.51100000000E-03 0.  1.
         12    1    3    3    0    0 -0.16216708320E+02  0.21692688927E+02 -0.98214892109E+01  0.28809998818E+02  0.00000000000E+00 0. -1.
</event>
<event>
 7    1  0.3910495E-008  0.4614232E+02  0.7816164E-02  0.1320468E+00
        -11   -1    0    0    0    0  0.00000000000E+00  0.00000000000E+00  0.45593999997E+02  0.45594000000E+02  0.51100000000E-03 0. -1.
         11   -1    0    0    0    0 -0.00000000000E+00 -0.00000000000E+00 -0.45593999997E+02  0.45594000000E+02  0.51100000000E-03 0.  1.
    9900012    2    1    2    0    0  0.34039955511E+02 -0.26020114096E+02  0.13904980740E+02  0.46142318763E+02  0.10000009132E+02 0.  0.
        -12    1    1    2    0    0 -0.34039955511E+02  0.26020114096E+02 -0.13904980740E+02  0.45045681237E+02  0.00000000000E+00 0.  1.
         11    1    3    3    0    0  0.92662089236E+01 -0.60429172484E+01  0.67976789592E+01  0.12984140949E+02  0.51100000000E-03 0. -1.
        -11    1    3    3    0    0  0.51236796306E+01 -0.21717538246E+01  0.30085405129E+01  0.63261302477E+01  0.51100000000E-03 0.  1.
        -12    1    3    3    0    0  0.19650066956E+02 -0.17805443023E+02  0.40987612684E+01  0.26832047566E+02  0.00000000000E+00 0.  1.
</event>
<event>
 7    1  0.3910495E-008  0.4614232E+02  0.7816164E-02  0.1320468E+00
        -11   -1    0    0    0    0  0.00000000000E+00  0.00000000000E+00  0.45593999997E+02  0.45594000000E+02  0.51100000000E-03 0.  1.
         11   -1    0    0    0    0 -0.00000000000E+00 -0.00000000000E+00 -0.45593999997E+02  0.45594000000E+02  0.51100000000E-03 0. -1.
    9900012    2    1    2    0    0  0.28807723708E+02  0.29722538062E+02  0.17770738854E+02  0.46142319036E+02  0.10000011626E+02 0.  0.
        -12    1    1    2    0    0 -0.28807723708E+02 -0.29722538062E+02 -0.17770738854E+02  0.45045680964E+02  0.00000000000E+00 0.  1.
         11    1    3    3    0    0  0.68851307649E+01  0.59393505140E+01  0.15554950621E+01  0.92249918876E+01  0.51100000000E-03 0.  1.
        -11    1    3    3    0    0  0.21921270228E+02  0.21451597537E+02  0.15950727917E+02  0.34570780244E+02  0.51100000000E-03 0. -1.
         12    1    3    3    0    0  0.13227151690E-02  0.23315900107E+01  0.26451587448E+00  0.23465469046E+01  0.00000000000E+00 0. -1.
</event>
<event>
 7    1  0.3910495E-008  0.4614232E+02  0.7816164E-02  0.1320468E+00
        -11   -1    0    0    0    0  0.00000000000E+00  0.00000000000E+00  0.45593999997E+02  0.45594000000E+02  0.51100000000E-03 0.  1.
         11   -1    0    0    0    0 -0.00000000000E+00 -0.00000000000E+00 -0.45593999997E+02  0.45594000000E+02  0.51100000000E-03 0. -1.
    9900012    2    1    2    0    0 -0.22950209024E+02 -0.15800000088E+02 -0.35394371859E+02  0.46142315897E+02  0.99999830015E+01 0.  0.
        -12    1    1    2    0    0  0.22950209024E+02  0.15800000088E+02  0.35394371859E+02  0.45045684103E+02  0.00000000000E+00 0.  1.
         11    1    3    3    0    0 -0.40331253342E+01 -0.80454283092E+00 -0.84459777726E+01  0.93940369344E+01  0.51100000000E-03 0. -1.
        -11    1    3    3    0    0 -0.10541047692E+01 -0.26992534544E+01 -0.13438685084E+01  0.31942274347E+01  0.51100000000E-03 0.  1.
         12    1    3    3    0    0 -0.17862978920E+02 -0.12296203802E+02 -0.25604525578E+02  0.33554051528E+02  0.00000000000E+00 0. -1.
</event>
<event>
 7    1  0.3910495E-008  0.4614232E+02  0.7816164E-02  0.1320468E+00
        -11   -1    0    0    0    0  0.00000000000E+00  0.00000000000E+00  0.45593999997E+02  0.45594000000E+02  0.51100000000E-03 0.  1.
         11   -1    0    0    0    0 -0.00000000000E+00 -0.00000000000E+00 -0.45593999997E+02  0.45594000000E+02  0.51100000000E-03 0. -1.
    9900012    2    1    2    0    0 -0.77731193314E-01 -0.13622235595E+02 -0.42936489387E+02  0.46142318014E+02  0.10000002304E+02 0.  0.
        -12    1    1    2    0    0  0.77731193314E-01  0.13622235595E+02  0.42936489387E+02  0.45045681986E+02  0.00000000000E+00 0.  1.
         11    1    3    3    0    0 -0.63126202001E+00 -0.65917886166E+01 -0.22453086373E+02  0.23409213076E+02  0.51100000000E-03 0. -1.
        -11    1    3    3    0    0  0.18318906940E+01 -0.27665362828E+01 -0.16266395365E+02  0.16601360334E+02  0.51100000000E-03 0.  1.
        -12    1    3    3    0    0 -0.12783598673E+01 -0.42639106960E+01 -0.42170076490E+01  0.61317446038E+01  0.00000000000E+00 0.  1.
</event>
<event>
 7    1  0.3910495E-008  0.4614232E+02  0.7816164E-02  0.1320468E+00
        -11   -1    0    0    0    0  0.00000000000E+00  0.00000000000E+00  0.45593999997E+02  0.45594000000E+02  0.51100000000E-03 0.  1.
         11   -1    0    0    0    0 -0.00000000000E+00 -0.00000000000E+00 -0.45593999997E+02  0.45594000000E+02  0.51100000000E-03 0. -1.
    9900012    2    1    2    0    0 -0.16735385279E+02 -0.12980419318E+02 -0.39756119541E+02  0.46142318220E+02  0.10000004184E+02 0.  0.
        -12    1    1    2    0    0  0.16735385279E+02  0.12980419318E+02  0.39756119541E+02  0.45045681780E+02  0.00000000000E+00 0.  1.
         11    1    3    3    0    0 -0.42807290317E+01 -0.76514962220E+01 -0.17715266632E+02  0.19766150550E+02  0.51100000000E-03 0. -1.
        -11    1    3    3    0    0 -0.89035917735E+01 -0.24259427813E+01 -0.18150954087E+02  0.20362128557E+02  0.51100000000E-03 0.  1.
         12    1    3    3    0    0 -0.35510644740E+01 -0.29029803145E+01 -0.38898988223E+01  0.60140391130E+01  0.00000000000E+00 0. -1.
</event>
<event>
 7    1  0.3910495E-008  0.4614232E+02  0.7816164E-02  0.1320468E+00
        -11   -1    0    0    0    0  0.00000000000E+00  0.00000000000E+00  0.45593999997E+02  0.45594000000E+02  0.51100000000E-03 0. -1.
         11   -1    0    0    0    0 -0.00000000000E+00 -0.00000000000E+00 -0.45593999997E+02  0.45594000000E+02  0.51100000000E-03 0.  1.
    9900012    2    1    2    0    0 -0.13700465175E+01 -0.37441957041E+02  0.25006726436E+02  0.46142317171E+02  0.99999946151E+01 0.  0.
        -12    1    1    2    0    0  0.13700465175E+01  0.37441957041E+02 -0.25006726436E+02  0.45045682829E+02  0.00000000000E+00 0.  1.
         11    1    3    3    0    0 -0.20833940844E+01 -0.20861221629E+02  0.13740287333E+02  0.25066443605E+02  0.51100000000E-03 0. -1.
        -11    1    3    3    0    0  0.76195710563E+00 -0.11926685477E+02  0.43067827089E+01  0.12703337462E+02  0.51100000000E-03 0.  1.
        -12    1    3    3    0    0 -0.48609538705E-01 -0.46540499352E+01  0.69596563939E+01  0.83725361037E+01  0.00000000000E+00 0.  1.
</event>
<event>
 7    1  0.3910495E-008  0.4614232E+02  0.7816164E-02  0.1320468E+00
        -11   -1    0    0    0    0  0.00000000000E+00  0.00000000000E+00  0.45593999997E+02  0.45594000000E+02  0.51100000000E-03 0.  1.
         11   -1    0    0    0    0 -0.00000000000E+00 -0.00000000000E+00 -0.45593999997E+02  0.45594000000E+02  0.51100000000E-03 0. -1.
    9900012    2    1    2    0    0  0.13310427411E+02 -0.16572605039E+02 -0.39715169399E+02  0.46142318785E+02  0.10000009341E+02 0.  0.
        -12    1    1    2    0    0 -0.13310427411E+02  0.16572605039E+02  0.39715169399E+02  0.45045681215E+02  0.00000000000E+00 0.  1.
         11    1    3    3    0    0  0.29501940221E+01 -0.13377779213E+01 -0.26084141220E+01  0.41589805274E+01  0.51100000000E-03 0. -1.
        -11    1    3    3    0    0  0.15211703628E+01 -0.94224750562E+00 -0.94762495522E+01  0.96437075584E+01  0.51100000000E-03 0.  1.
         12    1    3    3    0    0  0.88390630262E+01 -0.14292579612E+02 -0.27630505725E+02  0.32339630700E+02  0.00000000000E+00 0. -1.
</event>
<event>
 7    1  0.3910495E-008  0.4614232E+02  0.7816164E-02  0.1320468E+00
        -11   -1    0    0    0    0  0.00000000000E+00  0.00000000000E+00  0.45593999997E+02  0.45594000000E+02  0.51100000000E-03 0.  1.
         11   -1    0    0    0    0 -0.00000000000E+00 -0.00000000000E+00 -0.45593999997E+02  0.45594000000E+02  0.51100000000E-03 0. -1.
    9900012    2    1    2    0    0  0.40670801776E+02  0.13063989116E+02  0.14294462855E+02  0.46142316555E+02  0.99999890034E+01 0.  0.
        -12    1    1    2    0    0 -0.40670801776E+02 -0.13063989116E+02 -0.14294462855E+02  0.45045683445E+02  0.00000000000E+00 0.  1.
         11    1    3    3    0    0  0.13189112291E+02  0.11407015599E+01  0.25921863619E+01  0.13489748458E+02  0.51100000000E-03 0.  1.
        -11    1    3    3    0    0  0.99587391433E+01  0.18517606638E+01  0.24344898963E+01  0.10417880984E+02  0.51100000000E-03 0. -1.
        -12    1    3    3    0    0  0.17522950342E+02  0.10071526892E+02  0.92677865970E+01  0.22234687113E+02  0.00000000000E+00 0.  1.
</event>
<event>
 7    1  0.3910495E-008  0.4614232E+02  0.7816164E-02  0.1320468E+00
        -11   -1    0    0    0    0  0.00000000000E+00  0.00000000000E+00  0.45593999997E+02  0.45594000000E+02  0.51100000000E-03 0.  1.
         11   -1    0    0    0    0 -0.00000000000E+00 -0.00000000000E+00 -0.45593999997E+02  0.45594000000E+02  0.51100000000E-03 0. -1.
    9900012    2    1    2    0    0 -0.12254582437E+02  0.36317721567E+02 -0.23663511499E+02  0.46142317998E+02  0.10000002164E+02 0.  0.
        -12    1    1    2    0    0  0.12254582437E+02 -0.36317721567E+02  0.23663511499E+02  0.45045682002E+02  0.00000000000E+00 0.  1.
         11    1    3    3    0    0 -0.33034433520E+01  0.16121190777E+02 -0.11091841139E+02  0.19845263167E+02  0.51100000000E-03 0. -1.
        -11    1    3    3    0    0 -0.75016619949E+00  0.23843152558E+01 -0.43848344330E+01  0.50472251616E+01  0.51100000000E-03 0.  1.
        -12    1    3    3    0    0 -0.82009728854E+01  0.17812215535E+02 -0.81868359267E+01  0.21249829670E+02  0.00000000000E+00 0.  1.
</event>
<event>
 7    1  0.3910495E-008  0.4614232E+02  0.7816164E-02  0.1320468E+00
        -11   -1    0    0    0    0  0.00000000000E+00  0.00000000000E+00  0.45593999997E+02  0.45594000000E+02  0.51100000000E-03 0. -1.
         11   -1    0    0    0    0 -0.00000000000E+00 -0.00000000000E+00 -0.45593999997E+02  0.45594000000E+02  0.51100000000E-03 0.  1.
    9900012    2    1    2    0    0 -0.28891137751E+02  0.34187901453E+02 -0.50599438058E+01  0.46142317880E+02  0.10000001086E+02 0.  0.
        -12    1    1    2    0    0  0.28891137751E+02 -0.34187901453E+02  0.50599438058E+01  0.45045682120E+02  0.00000000000E+00 0.  1.
         11    1    3    3    0    0 -0.43011497989E+01  0.31607137874E+01 -0.11432735228E+01  0.54586697874E+01  0.51100000000E-03 0. -1.
        -11    1    3    3    0    0 -0.10804787077E+02  0.78273196166E+01 -0.30347798969E+01  0.13682844932E+02  0.51100000000E-03 0.  1.
         12    1    3    3    0    0 -0.13785200876E+02  0.23199868049E+02 -0.88189038611E+00  0.27000803161E+02  0.00000000000E+00 0. -1.
</event>
<event>
 7    1  0.3910495E-008  0.4614231E+02  0.7816164E-02  0.1320468E+00
        -11   -1    0    0    0    0  0.00000000000E+00  0.00000000000E+00  0.45593999997E+02  0.45594000000E+02  0.51100000000E-03 0.  1.
         11   -1    0    0    0    0 -0.00000000000E+00 -0.00000000000E+00 -0.45593999997E+02  0.45594000000E+02  0.51100000000E-03 0. -1.
    9900012    2    1    2    0    0  0.24704883430E+02  0.14116068815E+02 -0.34921619837E+02  0.46142309905E+02  0.99999283627E+01 0.  0.
        -12    1    1    2    0    0 -0.24704883430E+02 -0.14116068815E+02  0.34921619837E+02  0.45045690095E+02  0.00000000000E+00 0.  1.
         11    1    3    3    0    0  0.16647998856E+02  0.62820144583E+01 -0.21541297329E+02  0.27940061962E+02  0.51100000000E-03 0. -1.
        -11    1    3    3    0    0  0.61619411410E+01  0.24532033148E+01 -0.69785015901E+01  0.96274196872E+01  0.51100000000E-03 0.  1.
        -12    1    3    3    0    0  0.18949434328E+01  0.53808510423E+01 -0.64018209175E+01  0.85748282556E+01  0.00000000000E+00 0.  1.
</event>
<event>
 7    1  0.3910495E-008  0.4614232E+02  0.7816164E-02  0.1320468E+00
        -11   -1    0    0    0    0  0.00000000000E+00  0.00000000000E+00  0.45593999997E+02  0.45594000000E+02  0.51100000000E-03 0.  1.
         11   -1    0    0    0    0 -0.00000000000E+00 -0.00000000000E+00 -0.45593999997E+02  0.45594000000E+02  0.51100000000E-03 0. -1.
    9900012    2    1    2    0    0 -0.39471400199E+02  0.13824786053E+02 -0.16733122352E+02  0.46142317335E+02  0.99999961146E+01 0.  0.
        -12    1    1    2    0    0  0.39471400199E+02 -0.13824786053E+02  0.16733122352E+02  0.45045682665E+02  0.00000000000E+00 0.  1.
         11    1    3    3    0    0 -0.15063035933E+02  0.76085788678E+01 -0.39797740801E+01  0.17338515677E+02  0.51100000000E-03 0. -1.
        -11    1    3    3    0    0 -0.40192198071E+01  0.31282760060E+01 -0.36285957361E+01  0.62535546615E+01  0.51100000000E-03 0.  1.
         12    1    3    3    0    0 -0.20389144459E+02  0.30879311795E+01 -0.91247525361E+01  0.22550246996E+02  0.00000000000E+00 0. -1.
</event>
<event>
 7    1  0.3910495E-008  0.4614232E+02  0.7816164E-02  0.1320468E+00
        -11   -1    0    0    0    0  0.00000000000E+00  0.00000000000E+00  0.45593999997E+02  0.45594000000E+02  0.51100000000E-03 0.  1.
         11   -1    0    0    0    0 -0.00000000000E+00 -0.00000000000E+00 -0.45593999997E+02  0.45594000000E+02  0.51100000000E-03 0. -1.
    9900012    2    1    2    0    0 -0.11883087408E+02  0.22360899273E+02 -0.37254474409E+02  0.46142318230E+02  0.10000004273E+02 0.  0.
        -12    1    1    2    0    0  0.11883087408E+02 -0.22360899273E+02  0.37254474409E+02  0.45045681770E+02  0.00000000000E+00 0.  1.
         11    1    3    3    0    0 -0.30599187815E+01  0.31073604592E+01 -0.79277511420E+01  0.90480954020E+01  0.51100000000E-03 0. -1.
        -11    1    3    3    0    0 -0.40926419620E+01  0.19455250876E+01 -0.39282880186E+01  0.59971854327E+01  0.51100000000E-03 0.  1.
        -12    1    3    3    0    0 -0.47305266642E+01  0.17308013726E+02 -0.25398435249E+02  0.31097037395E+02  0.00000000000E+00 0.  1.
</event>
<event>
 7    1  0.3910495E-008  0.4614232E+02  0.7816164E-02  0.1320468E+00
        -11   -1    0    0    0    0  0.00000000000E+00  0.00000000000E+00  0.45593999997E+02  0.45594000000E+02  0.51100000000E-03 0.  1.
         11   -1    0    0    0    0 -0.00000000000E+00 -0.00000000000E+00 -0.45593999997E+02  0.45594000000E+02  0.51100000000E-03 0. -1.
    9900012    2    1    2    0    0 -0.16403289638E+02 -0.12410380337E+01 -0.41934536198E+02  0.46142318604E+02  0.10000007682E+02 0.  0.
        -12    1    1    2    0    0  0.16403289638E+02  0.12410380337E+01  0.41934536198E+02  0.45045681396E+02  0.00000000000E+00 0.  1.
         11    1    3    3    0    0 -0.62972996741E+01  0.41695015756E+00 -0.19864576808E+02  0.20843014241E+02  0.51100000000E-03 0. -1.
        -11    1    3    3    0    0 -0.86729377867E+01 -0.20764015883E+01 -0.22072927441E+02  0.23806415511E+02  0.51100000000E-03 0.  1.
        -12    1    3    3    0    0 -0.14330521769E+01  0.41841339701E+00  0.29680516153E-02  0.14928888512E+01  0.00000000000E+00 0.  1.
</event>
<event>
 7    1  0.3910495E-008  0.4614232E+02  0.7816164E-02  0.1320468E+00
        -11   -1    0    0    0    0  0.00000000000E+00  0.00000000000E+00  0.45593999997E+02  0.45594000000E+02  0.51100000000E-03 0.  1.
         11   -1    0    0    0    0 -0.00000000000E+00 -0.00000000000E+00 -0.45593999997E+02  0.45594000000E+02  0.51100000000E-03 0. -1.
    9900012    2    1    2    0    0 -0.18880502933E+02 -0.22973381995E+02 -0.33835835716E+02  0.46142318188E+02  0.10000003890E+02 0.  0.
        -12    1    1    2    0    0  0.18880502933E+02  0.22973381995E+02  0.33835835716E+02  0.45045681812E+02  0.00000000000E+00 0.  1.
         11    1    3    3    0    0 -0.10415653749E+02 -0.12979726395E+02 -0.20170043031E+02  0.26149374303E+02  0.51100000000E-03 0. -1.
        -11    1    3    3    0    0  0.67174868852E+00 -0.10436440163E+00 -0.22190188738E+01  0.23208152128E+01  0.51100000000E-03 0.  1.
         12    1    3    3    0    0 -0.91365978729E+01 -0.98892911984E+01 -0.11446773812E+02  0.17672128672E+02  0.00000000000E+00 0. -1.
</event>
<event>
 7    1  0.3910495E-008  0.4614232E+02  0.7816164E-02  0.1320468E+00
        -11   -1    0    0    0    0  0.00000000000E+00  0.00000000000E+00  0.45593999997E+02  0.45594000000E+02  0.51100000000E-03 0.  1.
         11   -1    0    0    0    0 -0.00000000000E+00 -0.00000000000E+00 -0.45593999997E+02  0.45594000000E+02  0.51100000000E-03 0. -1.
    9900012    2    1    2    0    0  0.10174504090E+02  0.31760223339E+02 -0.30280046981E+02  0.46142316908E+02  0.99999922231E+01 0.  0.
        -12    1    1    2    0    0 -0.10174504090E+02 -0.31760223339E+02  0.30280046981E+02  0.45045683092E+02  0.00000000000E+00 0.  1.
         11    1    3    3    0    0 -0.59841280655E+00  0.61010884565E-01 -0.73375716909E+00  0.94879927245E+00  0.51100000000E-03 0. -1.
        -11    1    3    3    0    0  0.31557697547E+00  0.78301403129E+00  0.36830896949E+00  0.92106001909E+00  0.51100000000E-03 0.  1.
         12    1    3    3    0    0  0.10457339921E+02  0.30916198424E+02 -0.29914598781E+02  0.44272457617E+02  0.00000000000E+00 0. -1.
</event>
<event>
 7    1  0.3910495E-008  0.4614232E+02  0.7816164E-02  0.1320468E+00
        -11   -1    0    0    0    0  0.00000000000E+00  0.00000000000E+00  0.45593999997E+02  0.45594000000E+02  0.51100000000E-03 0. -1.
         11   -1    0    0    0    0 -0.00000000000E+00 -0.00000000000E+00 -0.45593999997E+02  0.45594000000E+02  0.51100000000E-03 0.  1.
    9900012    2    1    2    0    0 -0.14246560045E+02  0.42681004395E+02  0.21167951991E+01  0.46142318396E+02  0.10000005790E+02 0.  0.
        -12    1    1    2    0    0  0.14246560045E+02 -0.42681004395E+02 -0.21167951991E+01  0.45045681604E+02  0.00000000000E+00 0.  1.
         11    1    3    3    0    0 -0.99408057925E+01  0.31780516641E+02  0.58600298373E+01  0.33810661155E+02  0.51100000000E-03 0. -1.
        -11    1    3    3    0    0 -0.10654323956E+01  0.28778288326E+01 -0.13637409881E+01  0.33580998679E+01  0.51100000000E-03 0.  1.
         12    1    3    3    0    0 -0.32403218568E+01  0.80226589215E+01 -0.23794936502E+01  0.89735573736E+01  0.00000000000E+00 0. -1.
</event>
<event>
 7    1  0.3910495E-008  0.4614232E+02  0.7816164E-02  0.1320468E+00
        -11   -1    0    0    0    0  0.00000000000E+00  0.00000000000E+00  0.45593999997E+02  0.45594000000E+02  0.51100000000E-03 0.  1.
         11   -1    0    0    0    0 -0.00000000000E+00 -0.00000000000E+00 -0.45593999997E+02  0.45594000000E+02  0.51100000000E-03 0. -1.
    9900012    2    1    2    0    0  0.20872393566E+02  0.43759470324E+01 -0.39677547790E+02  0.46142317363E+02  0.99999963739E+01 0.  0.
        -12    1    1    2    0    0 -0.20872393566E+02 -0.43759470324E+01  0.39677547790E+02  0.45045682637E+02  0.00000000000E+00 0.  1.
         11    1    3    3    0    0  0.32873822591E+01  0.25691343082E+01 -0.11129931808E+02  0.11886240597E+02  0.51100000000E-03 0. -1.
        -11    1    3    3    0    0  0.24876366737E+01  0.28661326622E+01 -0.54190402538E+01  0.66158181801E+01  0.51100000000E-03 0.  1.
        -12    1    3    3    0    0  0.15097374633E+02 -0.10593199381E+01 -0.23128575727E+02  0.27640258586E+02  0.00000000000E+00 0.  1.
</event>
<event>
 7    1  0.3910495E-008  0.4614232E+02  0.7816164E-02  0.1320468E+00
        -11   -1    0    0    0    0  0.00000000000E+00  0.00000000000E+00  0.45593999997E+02  0.45594000000E+02  0.51100000000E-03 0.  1.
         11   -1    0    0    0    0 -0.00000000000E+00 -0.00000000000E+00 -0.45593999997E+02  0.45594000000E+02  0.51100000000E-03 0. -1.
    9900012    2    1    2    0    0  0.39075732473E+02  0.36184236905E+01 -0.22115780832E+02  0.46142316298E+02  0.99999866612E+01 0.  0.
        -12    1    1    2    0    0 -0.39075732473E+02 -0.36184236905E+01  0.22115780832E+02  0.45045683702E+02  0.00000000000E+00 0.  1.
         11    1    3    3    0    0  0.16802889755E+01  0.11011575443E+01 -0.32367394024E+01  0.38095145621E+01  0.51100000000E-03 0. -1.
        -11    1    3    3    0    0  0.21498774564E+02  0.41780944384E+01 -0.11277900175E+02  0.24634220376E+02  0.51100000000E-03 0.  1.
         12    1    3    3    0    0  0.15896668934E+02 -0.16608282922E+01 -0.76011412545E+01  0.17698581360E+02  0.00000000000E+00 0. -1.
</event>
<event>
 7    1  0.3910495E-008  0.4614232E+02  0.7816164E-02  0.1320468E+00
        -11   -1    0    0    0    0  0.00000000000E+00  0.00000000000E+00  0.45593999997E+02  0.45594000000E+02  0.51100000000E-03 0.  1.
         11   -1    0    0    0    0 -0.00000000000E+00 -0.00000000000E+00 -0.45593999997E+02  0.45594000000E+02  0.51100000000E-03 0. -1.
    9900012    2    1    2    0    0  0.38985801447E+02 -0.19432069546E+02 -0.11472387862E+02  0.46142315140E+02  0.99999760946E+01 0.  0.
        -12    1    1    2    0    0 -0.38985801447E+02  0.19432069546E+02  0.11472387862E+02  0.45045684860E+02  0.00000000000E+00 0.  1.
         11    1    3    3    0    0  0.40757414900E+01 -0.25400760927E+01 -0.30506094064E+01  0.56894528087E+01  0.51100000000E-03 0.  1.
        -11    1    3    3    0    0  0.24813803580E+02 -0.13318293861E+02 -0.94214812569E+01  0.29696230549E+02  0.51100000000E-03 0. -1.
        -12    1    3    3    0    0  0.10096256377E+02 -0.35736995921E+01  0.99970280150E+00  0.10756631782E+02  0.00000000000E+00 0.  1.
</event>
<event>
 7    1  0.3910495E-008  0.4614232E+02  0.7816164E-02  0.1320468E+00
        -11   -1    0    0    0    0  0.00000000000E+00  0.00000000000E+00  0.45593999997E+02  0.45594000000E+02  0.51100000000E-03 0.  1.
         11   -1    0    0    0    0 -0.00000000000E+00 -0.00000000000E+00 -0.45593999997E+02  0.45594000000E+02  0.51100000000E-03 0. -1.
    9900012    2    1    2    0    0 -0.22640429065E+02  0.26096073545E+02 -0.28905350429E+02  0.46142319118E+02  0.10000012373E+02 0.  0.
        -12    1    1    2    0    0  0.22640429065E+02 -0.26096073545E+02  0.28905350429E+02  0.45045680882E+02  0.00000000000E+00 0.  1.
         11    1    3    3    0    0 -0.12403548713E+02  0.11066757134E+02 -0.15392519934E+02  0.22655039270E+02  0.51100000000E-03 0. -1.
        -11    1    3    3    0    0 -0.37980356821E+01  0.12776456296E+01 -0.24022953848E+01  0.46720955442E+01  0.51100000000E-03 0.  1.
         12    1    3    3    0    0 -0.64388446696E+01  0.13751670781E+02 -0.11110535110E+02  0.18815184304E+02  0.00000000000E+00 0. -1.
</event>
<event>
 7    1  0.3910495E-008  0.4614232E+02  0.7816164E-02  0.1320468E+00
        -11   -1    0    0    0    0  0.00000000000E+00  0.00000000000E+00  0.45593999997E+02  0.45594000000E+02  0.51100000000E-03 0.  1.
         11   -1    0    0    0    0 -0.00000000000E+00 -0.00000000000E+00 -0.45593999997E+02  0.45594000000E+02  0.51100000000E-03 0. -1.
    9900012    2    1    2    0    0 -0.28938318054E+02 -0.13513219060E+02 -0.31766023446E+02  0.46142316670E+02  0.99999900469E+01 0.  0.
        -12    1    1    2    0    0  0.28938318054E+02  0.13513219060E+02  0.31766023446E+02  0.45045683330E+02  0.00000000000E+00 0.  1.
         11    1    3    3    0    0 -0.18073015321E+02 -0.10020294703E+02 -0.19719506400E+02  0.28563947935E+02  0.51100000000E-03 0.  1.
        -11    1    3    3    0    0 -0.27950542394E+01 -0.52105355938E+00 -0.71211408471E+01  0.76677553585E+01  0.51100000000E-03 0. -1.
        -12    1    3    3    0    0 -0.80702484941E+01 -0.29718707972E+01 -0.49253761982E+01  0.99106133758E+01  0.00000000000E+00 0.  1.
</event>
<event>
 7    1  0.3910495E-008  0.4614232E+02  0.7816164E-02  0.1320468E+00
        -11   -1    0    0    0    0  0.00000000000E+00  0.00000000000E+00  0.45593999997E+02  0.45594000000E+02  0.51100000000E-03 0.  1.
         11   -1    0    0    0    0 -0.00000000000E+00 -0.00000000000E+00 -0.45593999997E+02  0.45594000000E+02  0.51100000000E-03 0. -1.
    9900012    2    1    2    0    0 -0.19425859665E+02  0.25121362637E+02 -0.31947873466E+02  0.46142317593E+02  0.99999984705E+01 0.  0.
        -12    1    1    2    0    0  0.19425859665E+02 -0.25121362637E+02  0.31947873466E+02  0.45045682407E+02  0.00000000000E+00 0.  1.
         11    1    3    3    0    0 -0.83005690086E+00  0.11398073559E+01 -0.28792469245E+01  0.32059660605E+01  0.51100000000E-03 0. -1.
        -11    1    3    3    0    0 -0.13444341129E+02  0.21975573090E+02 -0.21446924437E+02  0.33520839624E+02  0.51100000000E-03 0.  1.
        -12    1    3    3    0    0 -0.51514616354E+01  0.20059821906E+01 -0.76217021050E+01  0.94155119090E+01  0.00000000000E+00 0.  1.
</event>
<event>
 7    1  0.3910495E-008  0.4614232E+02  0.7816164E-02  0.1320468E+00
        -11   -1    0    0    0    0  0.00000000000E+00  0.00000000000E+00  0.45593999997E+02  0.45594000000E+02  0.51100000000E-03 0.  1.
         11   -1    0    0    0    0 -0.00000000000E+00 -0.00000000000E+00 -0.45593999997E+02  0.45594000000E+02  0.51100000000E-03 0. -1.
    9900012    2    1    2    0    0 -0.20780103885E+02 -0.18580818614E+02 -0.35384374721E+02  0.46142317496E+02  0.99999975868E+01 0.  0.
        -12    1    1    2    0    0  0.20780103885E+02  0.18580818614E+02  0.35384374721E+02  0.45045682504E+02  0.00000000000E+00 0.  1.
         11    1    3    3    0    0 -0.16368309121E+02 -0.17890370360E+02 -0.28185718274E+02  0.37180930730E+02  0.51100000000E-03 0. -1.
        -11    1    3    3    0    0 -0.33682506445E+00 -0.88622414479E+00 -0.39234724517E+00  0.10260511589E+01  0.51100000000E-03 0.  1.
        -12    1    3    3    0    0 -0.40749696992E+01  0.19577589071E+00 -0.68063092022E+01  0.79353356076E+01  0.00000000000E+00 0.  1.
</event>
<event>
 7    1  0.3910495E-008  0.4614232E+02  0.7816164E-02  0.1320468E+00
        -11   -1    0    0    0    0  0.00000000000E+00  0.00000000000E+00  0.45593999997E+02  0.45594000000E+02  0.51100000000E-03 0. -1.
         11   -1    0    0    0    0 -0.00000000000E+00 -0.00000000000E+00 -0.45593999997E+02  0.45594000000E+02  0.51100000000E-03 0.  1.
    9900012    2    1    2    0    0 -0.12698466981E+02 -0.33032225652E+02 -0.27869957112E+02  0.46142317581E+02  0.99999983540E+01 0.  0.
        -12    1    1    2    0    0  0.12698466981E+02  0.33032225652E+02  0.27869957112E+02  0.45045682419E+02  0.00000000000E+00 0.  1.
         11    1    3    3    0    0  0.50163790552E+00 -0.27969439997E+01 -0.84515743246E+00  0.29645957014E+01  0.51100000000E-03 0. -1.
        -11    1    3    3    0    0 -0.58397676736E+00 -0.59674969224E+00 -0.26628176569E+01  0.27906517509E+01  0.51100000000E-03 0.  1.
         12    1    3    3    0    0 -0.12616128119E+02 -0.29638531960E+02 -0.24361982023E+02  0.40387070128E+02  0.00000000000E+00 0. -1.
</event>
<event>
 7    1  0.3910495E-008  0.4614232E+02  0.7816164E-02  0.1320468E+00
        -11   -1    0    0    0    0  0.00000000000E+00  0.00000000000E+00  0.45593999997E+02  0.45594000000E+02  0.51100000000E-03 0. -1.
         11   -1    0    0    0    0 -0.00000000000E+00 -0.00000000000E+00 -0.45593999997E+02  0.45594000000E+02  0.51100000000E-03 0.  1.
    9900012    2    1    2    0    0  0.77845363211E+01  0.14446649069E+02  0.41950074822E+02  0.46142318158E+02  0.10000003620E+02 0.  0.
        -12    1    1    2    0    0 -0.77845363211E+01 -0.14446649069E+02 -0.41950074822E+02  0.45045681842E+02  0.00000000000E+00 0.  1.
         11    1    3    3    0    0  0.54962675560E+01  0.51290326132E+01  0.26797767527E+02  0.27832288394E+02  0.51100000000E-03 0. -1.
        -11    1    3    3    0    0  0.22962304158E+01  0.23415728092E+01  0.54379194720E+01  0.63503232822E+01  0.51100000000E-03 0.  1.
        -12    1    3    3    0    0 -0.79616507787E-02  0.69760436467E+01  0.97143878230E+01  0.11959706482E+02  0.00000000000E+00 0.  1.
</event>
<event>
 7    1  0.3910495E-008  0.4614232E+02  0.7816164E-02  0.1320468E+00
        -11   -1    0    0    0    0  0.00000000000E+00  0.00000000000E+00  0.45593999997E+02  0.45594000000E+02  0.51100000000E-03 0.  1.
         11   -1    0    0    0    0 -0.00000000000E+00 -0.00000000000E+00 -0.45593999997E+02  0.45594000000E+02  0.51100000000E-03 0. -1.
    9900012    2    1    2    0    0 -0.12085091511E+02 -0.37567556895E+02 -0.21719639351E+02  0.46142317616E+02  0.99999986806E+01 0.  0.
        -12    1    1    2    0    0  0.12085091511E+02  0.37567556895E+02  0.21719639351E+02  0.45045682384E+02  0.00000000000E+00 0.  1.
         11    1    3    3    0    0 -0.80901026255E+01 -0.20218593738E+02 -0.12670298508E+02  0.25194796244E+02  0.51100000000E-03 0.  1.
        -11    1    3    3    0    0 -0.54398898221E+01 -0.16025140010E+02 -0.83048952785E+01  0.18851228063E+02  0.51100000000E-03 0. -1.
        -12    1    3    3    0    0  0.14449009371E+01 -0.13238231462E+01 -0.74444556436E+00  0.20962933093E+01  0.00000000000E+00 0.  1.
</event>
<event>
 7    1  0.3910495E-008  0.4614232E+02  0.7816164E-02  0.1320468E+00
        -11   -1    0    0    0    0  0.00000000000E+00  0.00000000000E+00  0.45593999997E+02  0.45594000000E+02  0.51100000000E-03 0.  1.
         11   -1    0    0    0    0 -0.00000000000E+00 -0.00000000000E+00 -0.45593999997E+02  0.45594000000E+02  0.51100000000E-03 0. -1.
    9900012    2    1    2    0    0  0.34138830870E+02 -0.27451111984E+02 -0.10492381159E+02  0.46142318912E+02  0.10000010495E+02 0.  0.
        -12    1    1    2    0    0 -0.34138830870E+02  0.27451111984E+02  0.10492381159E+02  0.45045681088E+02  0.00000000000E+00 0.  1.
         11    1    3    3    0    0  0.12048856327E+01 -0.27348962006E+01 -0.15170688967E+00  0.29923940010E+01  0.51100000000E-03 0. -1.
        -11    1    3    3    0    0  0.91168304615E+01 -0.11420360412E+02 -0.33823919630E+01  0.14999393496E+02  0.51100000000E-03 0.  1.
         12    1    3    3    0    0  0.23817114776E+02 -0.13295855371E+02 -0.69582823062E+01  0.28150531415E+02  0.00000000000E+00 0. -1.
</event>
<event>
 7    1  0.3910495E-008  0.4614232E+02  0.7816164E-02  0.1320468E+00
        -11   -1    0    0    0    0  0.00000000000E+00  0.00000000000E+00  0.45593999997E+02  0.45594000000E+02  0.51100000000E-03 0.  1.
         11   -1    0    0    0    0 -0.00000000000E+00 -0.00000000000E+00 -0.45593999997E+02  0.45594000000E+02  0.51100000000E-03 0. -1.
    9900012    2    1    2    0    0 -0.23113709474E+01 -0.40042928403E+02 -0.20502064055E+02  0.46142321169E+02  0.10000031079E+02 0.  0.
        -12    1    1    2    0    0  0.23113709474E+01  0.40042928403E+02  0.20502064055E+02  0.45045678831E+02  0.00000000000E+00 0.  1.
         11    1    3    3    0    0  0.63114093253E-01 -0.22127704322E+02 -0.91037195306E+01  0.23927327295E+02  0.51100000000E-03 0. -1.
        -11    1    3    3    0    0  0.14643547986E+01 -0.17850313686E+01 -0.46827471627E+00  0.23558339148E+01  0.51100000000E-03 0.  1.
         12    1    3    3    0    0 -0.38388398393E+01 -0.16130192713E+02 -0.10930069808E+02  0.19859159959E+02  0.00000000000E+00 0. -1.
</event>
<event>
 7    1  0.3910495E-008  0.4614232E+02  0.7816164E-02  0.1320468E+00
        -11   -1    0    0    0    0  0.00000000000E+00  0.00000000000E+00  0.45593999997E+02  0.45594000000E+02  0.51100000000E-03 0.  1.
         11   -1    0    0    0    0 -0.00000000000E+00 -0.00000000000E+00 -0.45593999997E+02  0.45594000000E+02  0.51100000000E-03 0. -1.
    9900012    2    1    2    0    0 -0.32011500156E+02  0.67366939655E+01 -0.30967632769E+02  0.46142317996E+02  0.10000002145E+02 0.  0.
        -12    1    1    2    0    0  0.32011500156E+02 -0.67366939655E+01  0.30967632769E+02  0.45045682004E+02  0.00000000000E+00 0.  1.
         11    1    3    3    0    0 -0.53131736865E+00  0.17817607399E+00  0.21745103037E+00  0.60110737086E+00  0.51100000000E-03 0. -1.
        -11    1    3    3    0    0 -0.58858886016E+01 -0.17317813130E+01 -0.41932852511E+01  0.74314461987E+01  0.51100000000E-03 0.  1.
         12    1    3    3    0    0 -0.25594294186E+02  0.82902992045E+01 -0.26991798548E+02  0.38109764427E+02  0.00000000000E+00 0. -1.
</event>
<event>
 7    1  0.3910495E-008  0.4614232E+02  0.7816164E-02  0.1320468E+00
        -11   -1    0    0    0    0  0.00000000000E+00  0.00000000000E+00  0.45593999997E+02  0.45594000000E+02  0.51100000000E-03 0.  1.
         11   -1    0    0    0    0 -0.00000000000E+00 -0.00000000000E+00 -0.45593999997E+02  0.45594000000E+02  0.51100000000E-03 0. -1.
    9900012    2    1    2    0    0 -0.34220656020E+02 -0.23048739725E+02 -0.18078047483E+02  0.46142317608E+02  0.99999986040E+01 0.  0.
        -12    1    1    2    0    0  0.34220656020E+02  0.23048739725E+02  0.18078047483E+02  0.45045682392E+02  0.00000000000E+00 0.  1.
         11    1    3    3    0    0 -0.12607861331E+02 -0.57426668343E+01 -0.44054702724E+01  0.14537694394E+02  0.51100000000E-03 0. -1.
        -11    1    3    3    0    0 -0.58150611265E+01 -0.87320992777E+01 -0.43614207393E+01  0.11361623336E+02  0.51100000000E-03 0.  1.
         12    1    3    3    0    0 -0.15797733563E+02 -0.85739736133E+01 -0.93111564717E+01  0.20242999878E+02  0.00000000000E+00 0. -1.
</event>
<event>
 7    1  0.3910495E-008  0.4614232E+02  0.7816164E-02  0.1320468E+00
        -11   -1    0    0    0    0  0.00000000000E+00  0.00000000000E+00  0.45593999997E+02  0.45594000000E+02  0.51100000000E-03 0.  1.
         11   -1    0    0    0    0 -0.00000000000E+00 -0.00000000000E+00 -0.45593999997E+02  0.45594000000E+02  0.51100000000E-03 0. -1.
    9900012    2    1    2    0    0  0.31944307753E+02  0.44994911947E+01 -0.31439295059E+02  0.46142317713E+02  0.99999995640E+01 0.  0.
        -12    1    1    2    0    0 -0.31944307753E+02 -0.44994911947E+01  0.31439295059E+02  0.45045682287E+02  0.00000000000E+00 0.  1.
         11    1    3    3    0    0  0.37602307716E+01 -0.15592791010E+01 -0.20719478443E+01  0.45676749996E+01  0.51100000000E-03 0. -1.
        -11    1    3    3    0    0  0.17021331792E+01  0.78438447691E-01 -0.18083888375E+00  0.17135089474E+01  0.51100000000E-03 0.  1.
         12    1    3    3    0    0  0.26481943803E+02  0.59803318480E+01 -0.29186508331E+02  0.39861133766E+02  0.00000000000E+00 0. -1.
</event>
<event>
 7    1  0.3910495E-008  0.4614232E+02  0.7816164E-02  0.1320468E+00
        -11   -1    0    0    0    0  0.00000000000E+00  0.00000000000E+00  0.45593999997E+02  0.45594000000E+02  0.51100000000E-03 0.  1.
         11   -1    0    0    0    0 -0.00000000000E+00 -0.00000000000E+00 -0.45593999997E+02  0.45594000000E+02  0.51100000000E-03 0. -1.
    9900012    2    1    2    0    0 -0.17767959084E+02 -0.29528110674E+02 -0.29008685097E+02  0.46142317620E+02  0.99999987137E+01 0.  0.
        -12    1    1    2    0    0  0.17767959084E+02  0.29528110674E+02  0.29008685097E+02  0.45045682380E+02  0.00000000000E+00 0.  1.
         11    1    3    3    0    0 -0.12663664537E+02 -0.22081161638E+02 -0.19758919256E+02  0.32223609189E+02  0.51100000000E-03 0. -1.
        -11    1    3    3    0    0 -0.42320439080E+01 -0.71665435203E+01 -0.53069260242E+01  0.98708158607E+01  0.51100000000E-03 0.  1.
        -12    1    3    3    0    0 -0.87225063867E+00 -0.28040551606E+00 -0.39428398176E+01  0.40478925698E+01  0.00000000000E+00 0.  1.
</event>
<event>
 7    1  0.3910495E-008  0.4614232E+02  0.7816164E-02  0.1320468E+00
        -11   -1    0    0    0    0  0.00000000000E+00  0.00000000000E+00  0.45593999997E+02  0.45594000000E+02  0.51100000000E-03 0. -1.
         11   -1    0    0    0    0 -0.00000000000E+00 -0.00000000000E+00 -0.45593999997E+02  0.45594000000E+02  0.51100000000E-03 0.  1.
    9900012    2    1    2    0    0 -0.13641175452E+02  0.40523515503E+02  0.14173090732E+02  0.46142317884E+02  0.10000001119E+02 0.  0.
        -12    1    1    2    0    0  0.13641175452E+02 -0.40523515503E+02 -0.14173090732E+02  0.45045682116E+02  0.00000000000E+00 0.  1.
         11    1    3    3    0    0 -0.34030433489E+01  0.90307241903E+01  0.30593499004E+01  0.10123947131E+02  0.51100000000E-03 0. -1.
        -11    1    3    3    0    0 -0.88955696414E+01  0.30067860586E+02  0.80339638315E+01  0.32368997121E+02  0.51100000000E-03 0.  1.
        -12    1    3    3    0    0 -0.13425624619E+01  0.14249307261E+01  0.30797769999E+01  0.36493736322E+01  0.00000000000E+00 0.  1.
</event>
<event>
 7    1  0.3910495E-008  0.4614232E+02  0.7816164E-02  0.1320468E+00
        -11   -1    0    0    0    0  0.00000000000E+00  0.00000000000E+00  0.45593999997E+02  0.45594000000E+02  0.51100000000E-03 0.  1.
         11   -1    0    0    0    0 -0.00000000000E+00 -0.00000000000E+00 -0.45593999997E+02  0.45594000000E+02  0.51100000000E-03 0. -1.
    9900012    2    1    2    0    0  0.40204763345E+02  0.94268641150E+01 -0.17995130612E+02  0.46142317760E+02  0.99999999939E+01 0.  0.
        -12    1    1    2    0    0 -0.40204763345E+02 -0.94268641150E+01  0.17995130612E+02  0.45045682240E+02  0.00000000000E+00 0.  1.
         11    1    3    3    0    0  0.10369393212E+02  0.23778295875E+01 -0.31157783194E+01  0.11085416724E+02  0.51100000000E-03 0. -1.
        -11    1    3    3    0    0  0.38699877621E+01  0.35779539533E+01 -0.84447548672E+00  0.53377615982E+01  0.51100000000E-03 0.  1.
         12    1    3    3    0    0  0.25965382370E+02  0.34710805741E+01 -0.14034876806E+02  0.29719139438E+02  0.00000000000E+00 0. -1.
</event>
<event>
 7    1  0.3910495E-008  0.4614232E+02  0.7816164E-02  0.1320468E+00
        -11   -1    0    0    0    0  0.00000000000E+00  0.00000000000E+00  0.45593999997E+02  0.45594000000E+02  0.51100000000E-03 0. -1.
         11   -1    0    0    0    0 -0.00000000000E+00 -0.00000000000E+00 -0.45593999997E+02  0.45594000000E+02  0.51100000000E-03 0.  1.
    9900012    2    1    2    0    0  0.20717030714E+02 -0.89507585381E+01  0.38984637753E+02  0.46142318512E+02  0.10000006844E+02 0.  0.
        -12    1    1    2    0    0 -0.20717030714E+02  0.89507585381E+01 -0.38984637753E+02  0.45045681488E+02  0.00000000000E+00 0.  1.
         11    1    3    3    0    0  0.10472139810E+02 -0.56624511661E+01  0.22995133765E+02  0.25894115983E+02  0.51100000000E-03 0. -1.
        -11    1    3    3    0    0  0.67730980388E+01 -0.45800723615E+01  0.79872040707E+01  0.11430107130E+02  0.51100000000E-03 0.  1.
         12    1    3    3    0    0  0.34717928649E+01  0.12917649895E+01  0.80022999172E+01  0.88180953981E+01  0.00000000000E+00 0. -1.
</event>
<event>
 7    1  0.3910495E-008  0.4614232E+02  0.7816164E-02  0.1320468E+00
        -11   -1    0    0    0    0  0.00000000000E+00  0.00000000000E+00  0.45593999997E+02  0.45594000000E+02  0.51100000000E-03 0. -1.
         11   -1    0    0    0    0 -0.00000000000E+00 -0.00000000000E+00 -0.45593999997E+02  0.45594000000E+02  0.51100000000E-03 0.  1.
    9900012    2    1    2    0    0 -0.11793587820E+02 -0.11257840435E+02  0.41991497129E+02  0.46142317454E+02  0.99999971996E+01 0.  0.
        -12    1    1    2    0    0  0.11793587820E+02  0.11257840435E+02 -0.41991497129E+02  0.45045682546E+02  0.00000000000E+00 0.  1.
         11    1    3    3    0    0 -0.10701535102E+01  0.57540591656E+00  0.35774465256E+01  0.37781535714E+01  0.51100000000E-03 0. -1.
        -11    1    3    3    0    0 -0.82472013261E+01 -0.50497476839E+01  0.14872958267E+02  0.17740382444E+02  0.51100000000E-03 0.  1.
        -12    1    3    3    0    0 -0.24762329838E+01 -0.67834986676E+01  0.23541092337E+02  0.24623781439E+02  0.00000000000E+00 0.  1.
</event>
<event>
 7    1  0.3910495E-008  0.4614232E+02  0.7816164E-02  0.1320468E+00
        -11   -1    0    0    0    0  0.00000000000E+00  0.00000000000E+00  0.45593999997E+02  0.45594000000E+02  0.51100000000E-03 0.  1.
         11   -1    0    0    0    0 -0.00000000000E+00 -0.00000000000E+00 -0.45593999997E+02  0.45594000000E+02  0.51100000000E-03 0. -1.
    9900012    2    1    2    0    0  0.89465410629E+01 -0.37160345753E+02 -0.23836559497E+02  0.46142318052E+02  0.10000002654E+02 0.  0.
        -12    1    1    2    0    0 -0.89465410629E+01  0.37160345753E+02  0.23836559497E+02  0.45045681948E+02  0.00000000000E+00 0.  1.
         11    1    3    3    0    0  0.11675316557E+01 -0.44961964466E+01 -0.29583315879E+01  0.55073259118E+01  0.51100000000E-03 0. -1.
        -11    1    3    3    0    0  0.90137096414E+01 -0.31342538503E+02 -0.21053037006E+02  0.38817934628E+02  0.51100000000E-03 0.  1.
        -12    1    3    3    0    0 -0.12347002342E+01 -0.13216108032E+01  0.17480909688E+00  0.18170575125E+01  0.00000000000E+00 0.  1.
</event>
<event>
 7    1  0.3910495E-008  0.4614232E+02  0.7816164E-02  0.1320468E+00
        -11   -1    0    0    0    0  0.00000000000E+00  0.00000000000E+00  0.45593999997E+02  0.45594000000E+02  0.51100000000E-03 0. -1.
         11   -1    0    0    0    0 -0.00000000000E+00 -0.00000000000E+00 -0.45593999997E+02  0.45594000000E+02  0.51100000000E-03 0.  1.
    9900012    2    1    2    0    0  0.42356714169E+02  0.15078473329E+01  0.15256101553E+02  0.46142317928E+02  0.10000001524E+02 0.  0.
        -12    1    1    2    0    0 -0.42356714169E+02 -0.15078473329E+01 -0.15256101553E+02  0.45045682072E+02  0.00000000000E+00 0.  1.
         11    1    3    3    0    0  0.33112916249E+02  0.34500649886E+01  0.13290841682E+02  0.35847100912E+02  0.51100000000E-03 0. -1.
        -11    1    3    3    0    0  0.45935209861E+01  0.69513474806E+00  0.16844223926E+01  0.49417533756E+01  0.51100000000E-03 0.  1.
        -12    1    3    3    0    0  0.46502769332E+01 -0.26373524038E+01  0.28083747820E+00  0.53534636402E+01  0.00000000000E+00 0.  1.
</event>
<event>
 7    1  0.3910495E-008  0.4614232E+02  0.7816164E-02  0.1320468E+00
        -11   -1    0    0    0    0  0.00000000000E+00  0.00000000000E+00  0.45593999997E+02  0.45594000000E+02  0.51100000000E-03 0.  1.
         11   -1    0    0    0    0 -0.00000000000E+00 -0.00000000000E+00 -0.45593999997E+02  0.45594000000E+02  0.51100000000E-03 0. -1.
    9900012    2    1    2    0    0 -0.21465731704E+02  0.24872626916E+02 -0.30817013536E+02  0.46142317293E+02  0.99999957278E+01 0.  0.
        -12    1    1    2    0    0  0.21465731704E+02 -0.24872626916E+02  0.30817013536E+02  0.45045682707E+02  0.00000000000E+00 0.  1.
         11    1    3    3    0    0 -0.39910541735E+01  0.30343323905E+01 -0.51267276177E+01  0.71707058787E+01  0.51100000000E-03 0. -1.
        -11    1    3    3    0    0 -0.16357518424E+02  0.18985687846E+02 -0.18479634530E+02  0.31137142525E+02  0.51100000000E-03 0.  1.
        -12    1    3    3    0    0 -0.11171591069E+01  0.28526066799E+01 -0.72106513878E+01  0.78344688893E+01  0.00000000000E+00 0.  1.
</event>
<event>
 7    1  0.3910495E-008  0.4614232E+02  0.7816164E-02  0.1320468E+00
        -11   -1    0    0    0    0  0.00000000000E+00  0.00000000000E+00  0.45593999997E+02  0.45594000000E+02  0.51100000000E-03 0. -1.
         11   -1    0    0    0    0 -0.00000000000E+00 -0.00000000000E+00 -0.45593999997E+02  0.45594000000E+02  0.51100000000E-03 0.  1.
    9900012    2    1    2    0    0  0.12095465929E+02 -0.28517319294E+02  0.32704367854E+02  0.46142317937E+02  0.10000001604E+02 0.  0.
        -12    1    1    2    0    0 -0.12095465929E+02  0.28517319294E+02 -0.32704367854E+02  0.45045682063E+02  0.00000000000E+00 0.  1.
         11    1    3    3    0    0  0.96650994312E+00 -0.51442664321E+01  0.95320615825E+01  0.10874640999E+02  0.51100000000E-03 0.  1.
        -11    1    3    3    0    0  0.16659823971E+01 -0.44489582006E+01  0.77314846773E+01  0.90743915496E+01  0.51100000000E-03 0. -1.
         12    1    3    3    0    0  0.94629735889E+01 -0.18924094662E+02  0.15440821594E+02  0.26193285388E+02  0.00000000000E+00 0. -1.
</event>
<event>
 7    1  0.3910495E-008  0.4614232E+02  0.7816164E-02  0.1320468E+00
        -11   -1    0    0    0    0  0.00000000000E+00  0.00000000000E+00  0.45593999997E+02  0.45594000000E+02  0.51100000000E-03 0.  1.
         11   -1    0    0    0    0 -0.00000000000E+00 -0.00000000000E+00 -0.45593999997E+02  0.45594000000E+02  0.51100000000E-03 0. -1.
    9900012    2    1    2    0    0 -0.24325033621E+02 -0.12466968119E+02 -0.35804761681E+02  0.46142317479E+02  0.99999974307E+01 0.  0.
        -12    1    1    2    0    0  0.24325033621E+02  0.12466968119E+02  0.35804761681E+02  0.45045682521E+02  0.00000000000E+00 0.  1.
         11    1    3    3    0    0 -0.14429635834E+02 -0.39305381079E+01 -0.17584810466E+02  0.23084390387E+02  0.51100000000E-03 0. -1.
        -11    1    3    3    0    0 -0.23739371305E+01 -0.26279875293E+01 -0.94093540731E+01  0.10053747574E+02  0.51100000000E-03 0.  1.
        -12    1    3    3    0    0 -0.75214606560E+01 -0.59084424813E+01 -0.88105971414E+01  0.13004179518E+02  0.00000000000E+00 0.  1.
</event>
<event>
 7    1  0.3910495E-008  0.4614232E+02  0.7816164E-02  0.1320468E+00
        -11   -1    0    0    0    0  0.00000000000E+00  0.00000000000E+00  0.45593999997E+02  0.45594000000E+02  0.51100000000E-03 0. -1.
         11   -1    0    0    0    0 -0.00000000000E+00 -0.00000000000E+00 -0.45593999997E+02  0.45594000000E+02  0.51100000000E-03 0.  1.
    9900012    2    1    2    0    0 -0.28420012346E+02  0.60890244106E+01 -0.34414244577E+02  0.46142317079E+02  0.99999937801E+01 0.  0.
        -12    1    1    2    0    0  0.28420012346E+02 -0.60890244106E+01  0.34414244577E+02  0.45045682921E+02  0.00000000000E+00 0.  1.
         11    1    3    3    0    0 -0.92844956216E+01  0.63889139856E+00 -0.52998093501E+01  0.10709716176E+02  0.51100000000E-03 0. -1.
        -11    1    3    3    0    0 -0.50334193200E+01  0.23890455871E+01 -0.10424625988E+02  0.11820138583E+02  0.51100000000E-03 0.  1.
         12    1    3    3    0    0 -0.14102097405E+02  0.30610874249E+01 -0.18689809239E+02  0.23612462320E+02  0.00000000000E+00 0. -1.
</event>
<event>
 7    1  0.3910495E-008  0.4614232E+02  0.7816164E-02  0.1320468E+00
        -11   -1    0    0    0    0  0.00000000000E+00  0.00000000000E+00  0.45593999997E+02  0.45594000000E+02  0.51100000000E-03 0.  1.
         11   -1    0    0    0    0 -0.00000000000E+00 -0.00000000000E+00 -0.45593999997E+02  0.45594000000E+02  0.51100000000E-03 0. -1.
    9900012    2    1    2    0    0  0.23886681270E+02  0.28782455804E+02 -0.25101998182E+02  0.46142316334E+02  0.99999869837E+01 0.  0.
        -12    1    1    2    0    0 -0.23886681270E+02 -0.28782455804E+02  0.25101998182E+02  0.45045683666E+02  0.00000000000E+00 0.  1.
         11    1    3    3    0    0  0.71783785942E+01  0.42674992580E+01 -0.38930621065E+01  0.92139352063E+01  0.51100000000E-03 0.  1.
        -11    1    3    3    0    0  0.59761313230E+01  0.45316106953E+01 -0.61833485855E+01  0.97202593111E+01  0.51100000000E-03 0. -1.
        -12    1    3    3    0    0  0.10732171353E+02  0.19983345851E+02 -0.15025587490E+02  0.27208121816E+02  0.00000000000E+00 0.  1.
</event>
<event>
 7    1  0.3910495E-008  0.4614232E+02  0.7816164E-02  0.1320468E+00
        -11   -1    0    0    0    0  0.00000000000E+00  0.00000000000E+00  0.45593999997E+02  0.45594000000E+02  0.51100000000E-03 0.  1.
         11   -1    0    0    0    0 -0.00000000000E+00 -0.00000000000E+00 -0.45593999997E+02  0.45594000000E+02  0.51100000000E-03 0. -1.
    9900012    2    1    2    0    0 -0.25806002825E+02 -0.14841552567E+02 -0.33806687191E+02  0.46142316930E+02  0.99999924211E+01 0.  0.
        -12    1    1    2    0    0  0.25806002825E+02  0.14841552567E+02  0.33806687191E+02  0.45045683070E+02  0.00000000000E+00 0.  1.
         11    1    3    3    0    0 -0.61920824225E+01 -0.51791366869E+01 -0.10567905767E+02  0.13298344789E+02  0.51100000000E-03 0. -1.
        -11    1    3    3    0    0 -0.67267104268E+01 -0.44923395909E+01 -0.13990068595E+02  0.16160190832E+02  0.51100000000E-03 0.  1.
        -12    1    3    3    0    0 -0.12887209976E+02 -0.51700762895E+01 -0.92487128286E+01  0.16683781310E+02  0.00000000000E+00 0.  1.
</event>
<event>
 7    1  0.3910495E-008  0.4614232E+02  0.7816164E-02  0.1320468E+00
        -11   -1    0    0    0    0  0.00000000000E+00  0.00000000000E+00  0.45593999997E+02  0.45594000000E+02  0.51100000000E-03 0.  1.
         11   -1    0    0    0    0 -0.00000000000E+00 -0.00000000000E+00 -0.45593999997E+02  0.45594000000E+02  0.51100000000E-03 0. -1.
    9900012    2    1    2    0    0  0.62770244253E+01  0.13127530524E+02 -0.42630746005E+02  0.46142316542E+02  0.99999888811E+01 0.  0.
        -12    1    1    2    0    0 -0.62770244253E+01 -0.13127530524E+02  0.42630746005E+02  0.45045683458E+02  0.00000000000E+00 0.  1.
         11    1    3    3    0    0  0.56633853399E+01  0.98862079280E+01 -0.35765997292E+02  0.37536883238E+02  0.51100000000E-03 0. -1.
        -11    1    3    3    0    0 -0.40942719991E+00  0.28755689580E+01 -0.69329615366E+01  0.75168133803E+01  0.51100000000E-03 0.  1.
         12    1    3    3    0    0  0.10230662853E+01  0.36575363843E+00  0.68212823672E-01  0.10886199233E+01  0.00000000000E+00 0. -1.
</event>
<event>
 7    1  0.3910495E-008  0.4614232E+02  0.7816164E-02  0.1320468E+00
        -11   -1    0    0    0    0  0.00000000000E+00  0.00000000000E+00  0.45593999997E+02  0.45594000000E+02  0.51100000000E-03 0.  1.
         11   -1    0    0    0    0 -0.00000000000E+00 -0.00000000000E+00 -0.45593999997E+02  0.45594000000E+02  0.51100000000E-03 0. -1.
    9900012    2    1    2    0    0  0.34279192969E+02 -0.33772489484E+01 -0.29028341728E+02  0.46142317582E+02  0.99999983626E+01 0.  0.
        -12    1    1    2    0    0 -0.34279192969E+02  0.33772489484E+01  0.29028341728E+02  0.45045682418E+02  0.00000000000E+00 0.  1.
         11    1    3    3    0    0  0.41977308735E+01 -0.22766359598E+01 -0.16442971405E+01  0.50505177088E+01  0.51100000000E-03 0. -1.
        -11    1    3    3    0    0  0.60389967999E+01 -0.25211409376E+01 -0.54500445540E+01  0.85163736343E+01  0.51100000000E-03 0.  1.
         12    1    3    3    0    0  0.24042465295E+02  0.14205279491E+01 -0.21934000034E+02  0.32575426238E+02  0.00000000000E+00 0. -1.
</event>
<event>
 7    1  0.3910495E-008  0.4614232E+02  0.7816164E-02  0.1320468E+00
        -11   -1    0    0    0    0  0.00000000000E+00  0.00000000000E+00  0.45593999997E+02  0.45594000000E+02  0.51100000000E-03 0.  1.
         11   -1    0    0    0    0 -0.00000000000E+00 -0.00000000000E+00 -0.45593999997E+02  0.45594000000E+02  0.51100000000E-03 0. -1.
    9900012    2    1    2    0    0 -0.25179746690E+02 -0.17730406503E+02 -0.32874404696E+02  0.46142318273E+02  0.10000004666E+02 0.  0.
        -12    1    1    2    0    0  0.25179746690E+02  0.17730406503E+02  0.32874404696E+02  0.45045681727E+02  0.00000000000E+00 0.  1.
         11    1    3    3    0    0 -0.98276077831E+01 -0.47630148184E+01 -0.11267646160E+02  0.15691654952E+02  0.51100000000E-03 0. -1.
        -11    1    3    3    0    0 -0.12334820111E+02 -0.73178643607E+01 -0.11059647173E+02  0.18111176710E+02  0.51100000000E-03 0.  1.
        -12    1    3    3    0    0 -0.30173187960E+01 -0.56495273242E+01 -0.10547111363E+02  0.12339486610E+02  0.00000000000E+00 0.  1.
</event>
<event>
 7    1  0.3910495E-008  0.4614232E+02  0.7816164E-02  0.1320468E+00
        -11   -1    0    0    0    0  0.00000000000E+00  0.00000000000E+00  0.45593999997E+02  0.45594000000E+02  0.51100000000E-03 0.  1.
         11   -1    0    0    0    0 -0.00000000000E+00 -0.00000000000E+00 -0.45593999997E+02  0.45594000000E+02  0.51100000000E-03 0. -1.
    9900012    2    1    2    0    0 -0.22473720999E+02  0.31623496169E+02 -0.22891042711E+02  0.46142317832E+02  0.10000000650E+02 0.  0.
        -12    1    1    2    0    0  0.22473720999E+02 -0.31623496169E+02  0.22891042711E+02  0.45045682168E+02  0.00000000000E+00 0.  1.
         11    1    3    3    0    0  0.35200688990E+00  0.81186497163E+00 -0.15504008246E+01  0.17851544921E+01  0.51100000000E-03 0. -1.
        -11    1    3    3    0    0 -0.60903298212E+01  0.46237727177E+01 -0.58759791050E+01  0.96435741392E+01  0.51100000000E-03 0.  1.
        -12    1    3    3    0    0 -0.16735398068E+02  0.26187858480E+02 -0.15464662782E+02  0.34713589201E+02  0.00000000000E+00 0.  1.
</event>
<event>
 7    1  0.3910495E-008  0.4614232E+02  0.7816164E-02  0.1320468E+00
        -11   -1    0    0    0    0  0.00000000000E+00  0.00000000000E+00  0.45593999997E+02  0.45594000000E+02  0.51100000000E-03 0.  1.
         11   -1    0    0    0    0 -0.00000000000E+00 -0.00000000000E+00 -0.45593999997E+02  0.45594000000E+02  0.51100000000E-03 0. -1.
    9900012    2    1    2    0    0 -0.28517843532E+01 -0.16083455327E+02 -0.41979795790E+02  0.46142318034E+02  0.10000002489E+02 0.  0.
        -12    1    1    2    0    0  0.28517843532E+01  0.16083455327E+02  0.41979795790E+02  0.45045681966E+02  0.00000000000E+00 0.  1.
         11    1    3    3    0    0 -0.49705615884E+00 -0.34867246704E+01 -0.89876214948E+01  0.96530644951E+01  0.51100000000E-03 0. -1.
        -11    1    3    3    0    0 -0.54191564030E+01 -0.49455601948E+01 -0.16165485101E+02  0.17752428864E+02  0.51100000000E-03 0.  1.
         12    1    3    3    0    0  0.30644282087E+01 -0.76511704614E+01 -0.16826689194E+02  0.18736824675E+02  0.00000000000E+00 0. -1.
</event>
<event>
 7    1  0.3910495E-008  0.4614232E+02  0.7816164E-02  0.1320468E+00
        -11   -1    0    0    0    0  0.00000000000E+00  0.00000000000E+00  0.45593999997E+02  0.45594000000E+02  0.51100000000E-03 0. -1.
         11   -1    0    0    0    0 -0.00000000000E+00 -0.00000000000E+00 -0.45593999997E+02  0.45594000000E+02  0.51100000000E-03 0.  1.
    9900012    2    1    2    0    0 -0.15927695548E+02  0.15866132367E+02  0.39034444091E+02  0.46142317995E+02  0.10000002134E+02 0.  0.
        -12    1    1    2    0    0  0.15927695548E+02 -0.15866132367E+02 -0.39034444091E+02  0.45045682005E+02  0.00000000000E+00 0.  1.
         11    1    3    3    0    0 -0.93159377350E+01  0.10848495318E+02  0.25383048693E+02  0.29133755470E+02  0.51100000000E-03 0. -1.
        -11    1    3    3    0    0 -0.66131968243E+01  0.47241258816E+01  0.14214316851E+02  0.16373714954E+02  0.51100000000E-03 0.  1.
        -12    1    3    3    0    0  0.14390113182E-02  0.29351116712E+00 -0.56292145335E+00  0.63484757117E+00  0.00000000000E+00 0.  1.
</event>
<event>
 7    1  0.3910495E-008  0.4614232E+02  0.7816164E-02  0.1320468E+00
        -11   -1    0    0    0    0  0.00000000000E+00  0.00000000000E+00  0.45593999997E+02  0.45594000000E+02  0.51100000000E-03 0. -1.
         11   -1    0    0    0    0 -0.00000000000E+00 -0.00000000000E+00 -0.45593999997E+02  0.45594000000E+02  0.51100000000E-03 0.  1.
    9900012    2    1    2    0    0 -0.37077550360E+02  0.62062639435E+01 -0.24816346643E+02  0.46142317482E+02  0.99999974543E+01 0.  0.
        -12    1    1    2    0    0  0.37077550360E+02 -0.62062639435E+01  0.24816346643E+02  0.45045682518E+02  0.00000000000E+00 0.  1.
         11    1    3    3    0    0 -0.89094622749E+01  0.31142662190E+01 -0.45601294786E+01  0.10481982314E+02  0.51100000000E-03 0.  1.
        -11    1    3    3    0    0 -0.10122190202E+02  0.23619361625E+01 -0.33475417168E+01  0.10919867798E+02  0.51100000000E-03 0. -1.
         12    1    3    3    0    0 -0.18045897883E+02  0.73006156203E+00 -0.16908675448E+02  0.24740467370E+02  0.00000000000E+00 0. -1.
</event>
<event>
 7    1  0.3910495E-008  0.4614232E+02  0.7816164E-02  0.1320468E+00
        -11   -1    0    0    0    0  0.00000000000E+00  0.00000000000E+00  0.45593999997E+02  0.45594000000E+02  0.51100000000E-03 0. -1.
         11   -1    0    0    0    0 -0.00000000000E+00 -0.00000000000E+00 -0.45593999997E+02  0.45594000000E+02  0.51100000000E-03 0.  1.
    9900012    2    1    2    0    0  0.14832892499E+02  0.42527223886E+02  0.73086552693E+00  0.46142316125E+02  0.99999850780E+01 0.  0.
        -12    1    1    2    0    0 -0.14832892499E+02 -0.42527223886E+02 -0.73086552693E+00  0.45045683875E+02  0.00000000000E+00 0.  1.
         11    1    3    3    0    0  0.48297618096E+01  0.21664768561E+02  0.21068804147E+01  0.22296361615E+02  0.51100000000E-03 0. -1.
        -11    1    3    3    0    0  0.51080536641E+01  0.87490455312E+01 -0.32668956618E+01  0.10644746003E+02  0.51100000000E-03 0.  1.
        -12    1    3    3    0    0  0.48950770256E+01  0.12113409795E+02  0.18908807741E+01  0.13201208507E+02  0.00000000000E+00 0.  1.
</event>
<event>
 7    1  0.3910495E-008  0.4614232E+02  0.7816164E-02  0.1320468E+00
        -11   -1    0    0    0    0  0.00000000000E+00  0.00000000000E+00  0.45593999997E+02  0.45594000000E+02  0.51100000000E-03 0.  1.
         11   -1    0    0    0    0 -0.00000000000E+00 -0.00000000000E+00 -0.45593999997E+02  0.45594000000E+02  0.51100000000E-03 0. -1.
    9900012    2    1    2    0    0 -0.99457430116E+00 -0.29611114751E+02 -0.33930903755E+02  0.46142317361E+02  0.99999963490E+01 0.  0.
        -12    1    1    2    0    0  0.99457430116E+00  0.29611114751E+02  0.33930903755E+02  0.45045682639E+02  0.00000000000E+00 0.  1.
         11    1    3    3    0    0  0.59905429548E-02 -0.36367110385E+01 -0.27305635161E+01  0.45477115608E+01  0.51100000000E-03 0. -1.
        -11    1    3    3    0    0 -0.21863723389E+01 -0.25277072637E+02 -0.26458997101E+02  0.36657729784E+02  0.51100000000E-03 0.  1.
        -12    1    3    3    0    0  0.11858074948E+01 -0.69733107544E+00 -0.47413431377E+01  0.49368760156E+01  0.00000000000E+00 0.  1.
</event>
<event>
 7    1  0.3910495E-008  0.4614232E+02  0.7816164E-02  0.1320468E+00
        -11   -1    0    0    0    0  0.00000000000E+00  0.00000000000E+00  0.45593999997E+02  0.45594000000E+02  0.51100000000E-03 0.  1.
         11   -1    0    0    0    0 -0.00000000000E+00 -0.00000000000E+00 -0.45593999997E+02  0.45594000000E+02  0.51100000000E-03 0. -1.
    9900012    2    1    2    0    0  0.31575566866E+02 -0.17895562008E+02 -0.26680440564E+02  0.46142317952E+02  0.10000001739E+02 0.  0.
        -12    1    1    2    0    0 -0.31575566866E+02  0.17895562008E+02  0.26680440564E+02  0.45045682048E+02  0.00000000000E+00 0.  1.
         11    1    3    3    0    0  0.11901361418E+02 -0.96055882794E+01 -0.64876877471E+01  0.16613242379E+02  0.51100000000E-03 0. -1.
        -11    1    3    3    0    0  0.38931520503E+01 -0.44146780247E+00 -0.38523561798E+01  0.54947406767E+01  0.51100000000E-03 0.  1.
         12    1    3    3    0    0  0.15781053398E+02 -0.78485059257E+01 -0.16340396637E+02  0.24034334896E+02  0.00000000000E+00 0. -1.
</event>
<event>
 7    1  0.3910495E-008  0.4614232E+02  0.7816164E-02  0.1320468E+00
        -11   -1    0    0    0    0  0.00000000000E+00  0.00000000000E+00  0.45593999997E+02  0.45594000000E+02  0.51100000000E-03 0. -1.
         11   -1    0    0    0    0 -0.00000000000E+00 -0.00000000000E+00 -0.45593999997E+02  0.45594000000E+02  0.51100000000E-03 0.  1.
    9900012    2    1    2    0    0  0.43946006586E+02  0.89844897020E+01  0.41401427424E+01  0.46142319497E+02  0.10000015831E+02 0.  0.
        -12    1    1    2    0    0 -0.43946006586E+02 -0.89844897020E+01 -0.41401427424E+01  0.45045680503E+02  0.00000000000E+00 0.  1.
         11    1    3    3    0    0  0.15361031182E+02 -0.19656044362E+00  0.11590592807E+01  0.15405951242E+02  0.51100000000E-03 0. -1.
        -11    1    3    3    0    0  0.23615233235E+02  0.55291480279E+01  0.36730872478E+01  0.24530435970E+02  0.51100000000E-03 0.  1.
        -12    1    3    3    0    0  0.49697421683E+01  0.36519021177E+01 -0.69200378605E+00  0.62059322859E+01  0.00000000000E+00 0.  1.
</event>
<event>
 7    1  0.3910495E-008  0.4614232E+02  0.7816164E-02  0.1320468E+00
        -11   -1    0    0    0    0  0.00000000000E+00  0.00000000000E+00  0.45593999997E+02  0.45594000000E+02  0.51100000000E-03 0.  1.
         11   -1    0    0    0    0 -0.00000000000E+00 -0.00000000000E+00 -0.45593999997E+02  0.45594000000E+02  0.51100000000E-03 0. -1.
    9900012    2    1    2    0    0  0.18610032825E+02 -0.20526071698E+02 -0.35517046235E+02  0.46142317473E+02  0.99999973707E+01 0.  0.
        -12    1    1    2    0    0 -0.18610032825E+02  0.20526071698E+02  0.35517046235E+02  0.45045682527E+02  0.00000000000E+00 0.  1.
         11    1    3    3    0    0  0.87892266485E+01 -0.90369593529E+01 -0.19362985758E+02  0.23105028828E+02  0.51100000000E-03 0. -1.
        -11    1    3    3    0    0  0.24843063686E+01 -0.14171764601E+01 -0.70412235592E+01  0.75999339947E+01  0.51100000000E-03 0.  1.
         12    1    3    3    0    0  0.73364998078E+01 -0.10071935885E+02 -0.91128369179E+01  0.15437354650E+02  0.00000000000E+00 0. -1.
</event>
<event>
 7    1  0.3910495E-008  0.4614232E+02  0.7816164E-02  0.1320468E+00
        -11   -1    0    0    0    0  0.00000000000E+00  0.00000000000E+00  0.45593999997E+02  0.45594000000E+02  0.51100000000E-03 0.  1.
         11   -1    0    0    0    0 -0.00000000000E+00 -0.00000000000E+00 -0.45593999997E+02  0.45594000000E+02  0.51100000000E-03 0. -1.
    9900012    2    1    2    0    0  0.21903895265E+02 -0.37750399367E+02 -0.11146294550E+02  0.46142321380E+02  0.10000032997E+02 0.  0.
        -12    1    1    2    0    0 -0.21903895265E+02  0.37750399367E+02  0.11146294550E+02  0.45045678620E+02  0.00000000000E+00 0.  1.
         11    1    3    3    0    0  0.15207660868E+01 -0.31081601645E+01 -0.27223332372E+01  0.44027818041E+01  0.51100000000E-03 0. -1.
        -11    1    3    3    0    0  0.40344147452E+01 -0.65858420527E+01  0.13235412693E+01  0.78359160047E+01  0.51100000000E-03 0.  1.
         12    1    3    3    0    0  0.16348714433E+02 -0.28056397150E+02 -0.97475025823E+01  0.33903623571E+02  0.00000000000E+00 0. -1.
</event>
<event>
 7    1  0.3910495E-008  0.4614232E+02  0.7816164E-02  0.1320468E+00
        -11   -1    0    0    0    0  0.00000000000E+00  0.00000000000E+00  0.45593999997E+02  0.45594000000E+02  0.51100000000E-03 0.  1.
         11   -1    0    0    0    0 -0.00000000000E+00 -0.00000000000E+00 -0.45593999997E+02  0.45594000000E+02  0.51100000000E-03 0. -1.
    9900012    2    1    2    0    0  0.24372660116E+02  0.33552006587E+02 -0.17588344167E+02  0.46142316992E+02  0.99999929895E+01 0.  0.
        -12    1    1    2    0    0 -0.24372660116E+02 -0.33552006587E+02  0.17588344167E+02  0.45045683008E+02  0.00000000000E+00 0.  1.
         11    1    3    3    0    0  0.21767741451E+02  0.30026482933E+02 -0.14603931418E+02  0.39858487908E+02  0.51100000000E-03 0. -1.
        -11    1    3    3    0    0  0.23793032847E+01  0.43685368911E+00 -0.10886105344E+01  0.26527341411E+01  0.51100000000E-03 0.  1.
         12    1    3    3    0    0  0.22561537972E+00  0.30886699649E+01 -0.18958022138E+01  0.36310949430E+01  0.00000000000E+00 0. -1.
</event>
<event>
 7    1  0.3910495E-008  0.4614232E+02  0.7816164E-02  0.1320468E+00
        -11   -1    0    0    0    0  0.00000000000E+00  0.00000000000E+00  0.45593999997E+02  0.45594000000E+02  0.51100000000E-03 0.  1.
         11   -1    0    0    0    0 -0.00000000000E+00 -0.00000000000E+00 -0.45593999997E+02  0.45594000000E+02  0.51100000000E-03 0. -1.
    9900012    2    1    2    0    0 -0.25741627145E+02 -0.22662065767E+02 -0.29204672556E+02  0.46142317721E+02  0.99999996365E+01 0.  0.
        -12    1    1    2    0    0  0.25741627145E+02  0.22662065767E+02  0.29204672556E+02  0.45045682279E+02  0.00000000000E+00 0.  1.
         11    1    3    3    0    0 -0.92875048282E+01 -0.31374721531E+01 -0.75242809034E+01  0.12357842887E+02  0.51100000000E-03 0. -1.
        -11    1    3    3    0    0 -0.33834347401E+01 -0.24799908721E+01 -0.19797193556E+01  0.46386716153E+01  0.51100000000E-03 0.  1.
         12    1    3    3    0    0 -0.13070687576E+02 -0.17044602742E+02 -0.19700672297E+02  0.29145803219E+02  0.00000000000E+00 0. -1.
</event>
<event>
 7    1  0.3910495E-008  0.4614232E+02  0.7816164E-02  0.1320468E+00
        -11   -1    0    0    0    0  0.00000000000E+00  0.00000000000E+00  0.45593999997E+02  0.45594000000E+02  0.51100000000E-03 0.  1.
         11   -1    0    0    0    0 -0.00000000000E+00 -0.00000000000E+00 -0.45593999997E+02  0.45594000000E+02  0.51100000000E-03 0. -1.
    9900012    2    1    2    0    0  0.19887643635E+02 -0.19678219256E+02 -0.35303864498E+02  0.46142317289E+02  0.99999956942E+01 0.  0.
        -12    1    1    2    0    0 -0.19887643635E+02  0.19678219256E+02  0.35303864498E+02  0.45045682711E+02  0.00000000000E+00 0.  1.
         11    1    3    3    0    0  0.65022246275E+01 -0.64305491387E+01 -0.88671185978E+01  0.12738001406E+02  0.51100000000E-03 0. -1.
        -11    1    3    3    0    0  0.11988770685E+02 -0.14014694189E+02 -0.22102784394E+02  0.28786721834E+02  0.51100000000E-03 0.  1.
        -12    1    3    3    0    0  0.13966483221E+01  0.76702407120E+00 -0.43339615063E+01  0.46175940488E+01  0.00000000000E+00 0.  1.
</event>
<event>
 7    1  0.3910495E-008  0.4614231E+02  0.7816164E-02  0.1320468E+00
        -11   -1    0    0    0    0  0.00000000000E+00  0.00000000000E+00  0.45593999997E+02  0.45594000000E+02  0.51100000000E-03 0.  1.
         11   -1    0    0    0    0 -0.00000000000E+00 -0.00000000000E+00 -0.45593999997E+02  0.45594000000E+02  0.51100000000E-03 0. -1.
    9900012    2    1    2    0    0  0.20009143343E+02 -0.13362748301E+02 -0.38081296080E+02  0.46142312408E+02  0.99999511839E+01 0.  0.
        -12    1    1    2    0    0 -0.20009143343E+02  0.13362748301E+02  0.38081296080E+02  0.45045687592E+02  0.00000000000E+00 0.  1.
         11    1    3    3    0    0  0.46370997054E+01 -0.57488107691E+01 -0.16148559699E+02  0.17757463207E+02  0.51100000000E-03 0. -1.
        -11    1    3    3    0    0  0.94034843470E+01 -0.65562168158E+01 -0.11017823802E+02  0.15899746488E+02  0.51100000000E-03 0.  1.
         12    1    3    3    0    0  0.59685592912E+01 -0.10577207162E+01 -0.10914912579E+02  0.12485102712E+02  0.00000000000E+00 0. -1.
</event>
<event>
 7    1  0.3910495E-008  0.4614232E+02  0.7816164E-02  0.1320468E+00
        -11   -1    0    0    0    0  0.00000000000E+00  0.00000000000E+00  0.45593999997E+02  0.45594000000E+02  0.51100000000E-03 0. -1.
         11   -1    0    0    0    0 -0.00000000000E+00 -0.00000000000E+00 -0.45593999997E+02  0.45594000000E+02  0.51100000000E-03 0.  1.
    9900012    2    1    2    0    0  0.32045223409E+02 -0.31327699940E+02  0.45598808964E+01  0.46142316071E+02  0.99999845899E+01 0.  0.
        -12    1    1    2    0    0 -0.32045223409E+02  0.31327699940E+02 -0.45598808964E+01  0.45045683929E+02  0.00000000000E+00 0.  1.
         11    1    3    3    0    0  0.12501268394E+02 -0.14009902176E+02  0.15195500348E+01  0.18837943173E+02  0.51100000000E-03 0. -1.
        -11    1    3    3    0    0  0.97932148910E+01 -0.40408266834E+01  0.21318641146E+01  0.10806488007E+02  0.51100000000E-03 0.  1.
         12    1    3    3    0    0  0.97507401240E+01 -0.13276971080E+02  0.90846674705E+00  0.16497884891E+02  0.00000000000E+00 0. -1.
</event>
<event>
 7    1  0.3910495E-008  0.4614232E+02  0.7816164E-02  0.1320468E+00
        -11   -1    0    0    0    0  0.00000000000E+00  0.00000000000E+00  0.45593999997E+02  0.45594000000E+02  0.51100000000E-03 0.  1.
         11   -1    0    0    0    0 -0.00000000000E+00 -0.00000000000E+00 -0.45593999997E+02  0.45594000000E+02  0.51100000000E-03 0. -1.
    9900012    2    1    2    0    0 -0.23842966272E+02  0.49430885691E+01 -0.37897126879E+02  0.46142318843E+02  0.10000009863E+02 0.  0.
        -12    1    1    2    0    0  0.23842966272E+02 -0.49430885691E+01  0.37897126879E+02  0.45045681157E+02  0.00000000000E+00 0.  1.
         11    1    3    3    0    0 -0.88100178585E+01 -0.95091245066E+00 -0.13545578165E+02  0.16186517144E+02  0.51100000000E-03 0. -1.
        -11    1    3    3    0    0 -0.11389290942E+02  0.19524528018E+01 -0.19766909802E+02  0.22896697218E+02  0.51100000000E-03 0.  1.
         12    1    3    3    0    0 -0.36436574714E+01  0.39415482180E+01 -0.45846389118E+01  0.70591044811E+01  0.00000000000E+00 0. -1.
</event>
<event>
 7    1  0.3910495E-008  0.4614233E+02  0.7816164E-02  0.1320468E+00
        -11   -1    0    0    0    0  0.00000000000E+00  0.00000000000E+00  0.45593999997E+02  0.45594000000E+02  0.51100000000E-03 0. -1.
         11   -1    0    0    0    0 -0.00000000000E+00 -0.00000000000E+00 -0.45593999997E+02  0.45594000000E+02  0.51100000000E-03 0.  1.
    9900012    2    1    2    0    0  0.21268787565E+02  0.38528338546E+02 -0.96082564511E+01  0.46142325539E+02  0.10000070925E+02 0.  0.
        -12    1    1    2    0    0 -0.21268787565E+02 -0.38528338546E+02  0.96082564511E+01  0.45045674461E+02  0.00000000000E+00 0.  1.
         11    1    3    3    0    0  0.19421959292E+01  0.43981728587E+01 -0.22516740129E+01  0.53090569449E+01  0.51100000000E-03 0. -1.
        -11    1    3    3    0    0  0.16070410017E+02  0.20998823684E+02 -0.29596987470E+01  0.26607677298E+02  0.51100000000E-03 0.  1.
         12    1    3    3    0    0  0.32561816186E+01  0.13131342003E+02 -0.43968836912E+01  0.14225591297E+02  0.00000000000E+00 0. -1.
</event>
<event>
 7    1  0.3910495E-008  0.4614232E+02  0.7816164E-02  0.1320468E+00
        -11   -1    0    0    0    0  0.00000000000E+00  0.00000000000E+00  0.45593999997E+02  0.45594000000E+02  0.51100000000E-03 0.  1.
         11   -1    0    0    0    0 -0.00000000000E+00 -0.00000000000E+00 -0.45593999997E+02  0.45594000000E+02  0.51100000000E-03 0. -1.
    9900012    2    1    2    0    0  0.39160568503E+02  0.20120452799E+02 -0.95252712551E+01  0.46142317201E+02  0.99999948928E+01 0.  0.
        -12    1    1    2    0    0 -0.39160568503E+02 -0.20120452799E+02  0.95252712551E+01  0.45045682799E+02  0.00000000000E+00 0.  1.
         11    1    3    3    0    0  0.22804046050E+02  0.69051223172E+01 -0.37612580574E+01  0.24121614642E+02  0.51100000000E-03 0. -1.
        -11    1    3    3    0    0  0.62213634106E+01  0.58812303436E+01 -0.37612149218E+01  0.93509877013E+01  0.51100000000E-03 0.  1.
         12    1    3    3    0    0  0.10135159042E+02  0.73341001383E+01 -0.20027982759E+01  0.12669714858E+02  0.00000000000E+00 0. -1.
</event>
<event>
 7    1  0.3910495E-008  0.4614232E+02  0.7816164E-02  0.1320468E+00
        -11   -1    0    0    0    0  0.00000000000E+00  0.00000000000E+00  0.45593999997E+02  0.45594000000E+02  0.51100000000E-03 0. -1.
         11   -1    0    0    0    0 -0.00000000000E+00 -0.00000000000E+00 -0.45593999997E+02  0.45594000000E+02  0.51100000000E-03 0.  1.
    9900012    2    1    2    0    0 -0.31826503909E+02  0.12081968544E+02  0.29499375865E+02  0.46142317727E+02  0.99999996918E+01 0.  0.
        -12    1    1    2    0    0  0.31826503909E+02 -0.12081968544E+02 -0.29499375865E+02  0.45045682273E+02  0.00000000000E+00 0.  1.
         11    1    3    3    0    0 -0.95547771922E+01  0.19146697980E+01  0.71388889826E+01  0.12079878468E+02  0.51100000000E-03 0. -1.
        -11    1    3    3    0    0 -0.11507361325E+02  0.10947608395E+01  0.89444604217E+01  0.14615787302E+02  0.51100000000E-03 0.  1.
        -12    1    3    3    0    0 -0.10764365392E+02  0.90725379068E+01  0.13416026461E+02  0.19446651957E+02  0.00000000000E+00 0.  1.
</event>
<event>
 7    1  0.3910495E-008  0.4614232E+02  0.7816164E-02  0.1320468E+00
        -11   -1    0    0    0    0  0.00000000000E+00  0.00000000000E+00  0.45593999997E+02  0.45594000000E+02  0.51100000000E-03 0. -1.
         11   -1    0    0    0    0 -0.00000000000E+00 -0.00000000000E+00 -0.45593999997E+02  0.45594000000E+02  0.51100000000E-03 0.  1.
    9900012    2    1    2    0    0 -0.68074274402E+01  0.26155982468E+02  0.36036608000E+02  0.46142316484E+02  0.99999883571E+01 0.  0.
        -12    1    1    2    0    0  0.68074274402E+01 -0.26155982468E+02 -0.36036608000E+02  0.45045683516E+02  0.00000000000E+00 0.  1.
         11    1    3    3    0    0  0.90233839388E+00  0.35344963253E+00  0.73983039917E+00  0.12192171671E+01  0.51100000000E-03 0.  1.
        -11    1    3    3    0    0 -0.23272736501E+01  0.66347113757E+01  0.14600715929E+02  0.16205446725E+02  0.51100000000E-03 0. -1.
        -12    1    3    3    0    0 -0.53824921840E+01  0.19167821460E+02  0.20696061672E+02  0.28717652592E+02  0.00000000000E+00 0.  1.
</event>
<event>
 7    1  0.3910495E-008  0.4614231E+02  0.7816164E-02  0.1320468E+00
        -11   -1    0    0    0    0  0.00000000000E+00  0.00000000000E+00  0.45593999997E+02  0.45594000000E+02  0.51100000000E-03 0. -1.
         11   -1    0    0    0    0 -0.00000000000E+00 -0.00000000000E+00 -0.45593999997E+02  0.45594000000E+02  0.51100000000E-03 0.  1.
    9900012    2    1    2    0    0  0.21962428904E+02  0.18667754322E+02  0.34616194534E+02  0.46142309210E+02  0.99999220231E+01 0.  0.
        -12    1    1    2    0    0 -0.21962428904E+02 -0.18667754322E+02 -0.34616194534E+02  0.45045690790E+02  0.00000000000E+00 0.  1.
         11    1    3    3    0    0  0.37863615758E+01  0.25734829329E+01  0.30146588332E+01  0.54815615048E+01  0.51100000000E-03 0. -1.
        -11    1    3    3    0    0  0.83160090454E+01  0.96494889147E+01  0.10559894921E+02  0.16546299398E+02  0.51100000000E-03 0.  1.
         12    1    3    3    0    0  0.98600582825E+01  0.64447824739E+01  0.21041640780E+02  0.24114448308E+02  0.00000000000E+00 0. -1.
</event>
<event>
 7    1  0.3910495E-008  0.4614232E+02  0.7816164E-02  0.1320468E+00
        -11   -1    0    0    0    0  0.00000000000E+00  0.00000000000E+00  0.45593999997E+02  0.45594000000E+02  0.51100000000E-03 0.  1.
         11   -1    0    0    0    0 -0.00000000000E+00 -0.00000000000E+00 -0.45593999997E+02  0.45594000000E+02  0.51100000000E-03 0. -1.
    9900012    2    1    2    0    0 -0.91574479592E+01  0.41658351380E+02 -0.14485736376E+02  0.46142315954E+02  0.99999835211E+01 0.  0.
        -12    1    1    2    0    0  0.91574479592E+01 -0.41658351380E+02  0.14485736376E+02  0.45045684046E+02  0.00000000000E+00 0.  1.
         11    1    3    3    0    0 -0.52035111436E+01  0.20479783246E+02 -0.55311741319E+01  0.21842434333E+02  0.51100000000E-03 0. -1.
        -11    1    3    3    0    0 -0.50590897093E+01  0.10155950002E+02 -0.30613813710E+01  0.11752011117E+02  0.51100000000E-03 0.  1.
         12    1    3    3    0    0  0.11051528936E+01  0.11022618132E+02 -0.58931808735E+01  0.12547870505E+02  0.00000000000E+00 0. -1.
</event>
<event>
 7    1  0.3910495E-008  0.4614232E+02  0.7816164E-02  0.1320468E+00
        -11   -1    0    0    0    0  0.00000000000E+00  0.00000000000E+00  0.45593999997E+02  0.45594000000E+02  0.51100000000E-03 0.  1.
         11   -1    0    0    0    0 -0.00000000000E+00 -0.00000000000E+00 -0.45593999997E+02  0.45594000000E+02  0.51100000000E-03 0. -1.
    9900012    2    1    2    0    0  0.25369598626E+01 -0.23491549425E+02 -0.38351331266E+02  0.46142315750E+02  0.99999816588E+01 0.  0.
        -12    1    1    2    0    0 -0.25369598626E+01  0.23491549425E+02  0.38351331266E+02  0.45045684250E+02  0.00000000000E+00 0.  1.
         11    1    3    3    0    0  0.26463010052E+00 -0.79984235667E+01 -0.14449212894E+02  0.16517401798E+02  0.51100000000E-03 0. -1.
        -11    1    3    3    0    0  0.34412211534E+01 -0.15505104570E+02 -0.23548008995E+02  0.28403503282E+02  0.51100000000E-03 0.  1.
        -12    1    3    3    0    0 -0.11688913913E+01  0.11978712100E-01 -0.35410937611E+00  0.12214106699E+01  0.00000000000E+00 0.  1.
</event>
<event>
 7    1  0.3910495E-008  0.4614232E+02  0.7816164E-02  0.1320468E+00
        -11   -1    0    0    0    0  0.00000000000E+00  0.00000000000E+00  0.45593999997E+02  0.45594000000E+02  0.51100000000E-03 0.  1.
         11   -1    0    0    0    0 -0.00000000000E+00 -0.00000000000E+00 -0.45593999997E+02  0.45594000000E+02  0.51100000000E-03 0. -1.
    9900012    2    1    2    0    0  0.38294408300E+02 -0.16003262452E+02  0.17508493822E+02  0.46142317942E+02  0.10000001650E+02 0.  0.
        -12    1    1    2    0    0 -0.38294408300E+02  0.16003262452E+02 -0.17508493822E+02  0.45045682058E+02  0.00000000000E+00 0.  1.
         11    1    3    3    0    0  0.18890584801E+01 -0.11587294354E+01  0.14755527196E+01  0.26624146813E+01  0.51100000000E-03 0. -1.
        -11    1    3    3    0    0  0.11486620947E+02 -0.87523169439E+01  0.84424024556E+01  0.16727811338E+02  0.51100000000E-03 0.  1.
         12    1    3    3    0    0  0.24918728873E+02 -0.60922160728E+01  0.75905386473E+01  0.26752091923E+02  0.00000000000E+00 0. -1.
</event>
<event>
 7    1  0.3910495E-008  0.4614232E+02  0.7816164E-02  0.1320468E+00
        -11   -1    0    0    0    0  0.00000000000E+00  0.00000000000E+00  0.45593999997E+02  0.45594000000E+02  0.51100000000E-03 0. -1.
         11   -1    0    0    0    0 -0.00000000000E+00 -0.00000000000E+00 -0.45593999997E+02  0.45594000000E+02  0.51100000000E-03 0.  1.
    9900012    2    1    2    0    0 -0.37767682248E+02  0.18359475480E+02 -0.16298631038E+02  0.46142317233E+02  0.99999951808E+01 0.  0.
        -12    1    1    2    0    0  0.37767682248E+02 -0.18359475480E+02  0.16298631038E+02  0.45045682767E+02  0.00000000000E+00 0.  1.
         11    1    3    3    0    0 -0.24273971186E+01  0.27022802268E+01 -0.19329454242E+01  0.41147118331E+01  0.51100000000E-03 0. -1.
        -11    1    3    3    0    0 -0.83810524426E+01  0.76292690515E+01 -0.49147317812E+01  0.12353233384E+02  0.51100000000E-03 0.  1.
         12    1    3    3    0    0 -0.26959232687E+02  0.80279262018E+01 -0.94509538324E+01  0.29674372015E+02  0.00000000000E+00 0. -1.
</event>
<event>
 7    1  0.3910495E-008  0.4614232E+02  0.7816164E-02  0.1320468E+00
        -11   -1    0    0    0    0  0.00000000000E+00  0.00000000000E+00  0.45593999997E+02  0.45594000000E+02  0.51100000000E-03 0.  1.
         11   -1    0    0    0    0 -0.00000000000E+00 -0.00000000000E+00 -0.45593999997E+02  0.45594000000E+02  0.51100000000E-03 0. -1.
    9900012    2    1    2    0    0 -0.73429109849E+01  0.18419849836E+02 -0.40446313660E+02  0.46142317650E+02  0.99999989839E+01 0.  0.
        -12    1    1    2    0    0  0.73429109849E+01 -0.18419849836E+02  0.40446313660E+02  0.45045682350E+02  0.00000000000E+00 0.  1.
         11    1    3    3    0    0  0.62301747942E-01 -0.19765170436E+00 -0.38116772241E+01  0.38173068027E+01  0.51100000000E-03 0. -1.
        -11    1    3    3    0    0 -0.87649674080E+00  0.10861162385E+01 -0.80009796741E+01  0.81217960468E+01  0.51100000000E-03 0.  1.
         12    1    3    3    0    0 -0.65287159920E+01  0.17531385302E+02 -0.28633656762E+02  0.34203214800E+02  0.00000000000E+00 0. -1.
</event>
<event>
 7    1  0.3910495E-008  0.4614232E+02  0.7816164E-02  0.1320468E+00
        -11   -1    0    0    0    0  0.00000000000E+00  0.00000000000E+00  0.45593999997E+02  0.45594000000E+02  0.51100000000E-03 0.  1.
         11   -1    0    0    0    0 -0.00000000000E+00 -0.00000000000E+00 -0.45593999997E+02  0.45594000000E+02  0.51100000000E-03 0. -1.
    9900012    2    1    2    0    0 -0.28281500061E+02 -0.34467767572E+01 -0.34891116190E+02  0.46142317580E+02  0.99999983500E+01 0.  0.
        -12    1    1    2    0    0  0.28281500061E+02  0.34467767572E+01  0.34891116190E+02  0.45045682420E+02  0.00000000000E+00 0.  1.
         11    1    3    3    0    0 -0.22866053652E+02 -0.73824645368E+00 -0.26957473230E+02  0.35356849134E+02  0.51100000000E-03 0. -1.
        -11    1    3    3    0    0 -0.41492966179E+01  0.13592411580E+00 -0.50943640487E+01  0.65717336457E+01  0.51100000000E-03 0.  1.
        -12    1    3    3    0    0 -0.12661497902E+01 -0.28444544193E+01 -0.28392789115E+01  0.42137348008E+01  0.00000000000E+00 0.  1.
</event>
<event>
 7    1  0.3910495E-008  0.4614232E+02  0.7816164E-02  0.1320468E+00
        -11   -1    0    0    0    0  0.00000000000E+00  0.00000000000E+00  0.45593999997E+02  0.45594000000E+02  0.51100000000E-03 0.  1.
         11   -1    0    0    0    0 -0.00000000000E+00 -0.00000000000E+00 -0.45593999997E+02  0.45594000000E+02  0.51100000000E-03 0. -1.
    9900012    2    1    2    0    0  0.26383552720E+02  0.24845263511E+02 -0.26753214171E+02  0.46142318281E+02  0.10000004742E+02 0.  0.
        -12    1    1    2    0    0 -0.26383552720E+02 -0.24845263511E+02  0.26753214171E+02  0.45045681719E+02  0.00000000000E+00 0.  1.
         11    1    3    3    0    0  0.21313770164E+02  0.20734441687E+02 -0.19674657825E+02  0.35655098254E+02  0.51100000000E-03 0. -1.
        -11    1    3    3    0    0 -0.59579049228E+00  0.79344731331E+00 -0.26875161478E+00  0.10279847476E+01  0.51100000000E-03 0.  1.
        -12    1    3    3    0    0  0.56655730474E+01  0.33173745104E+01 -0.68098047312E+01  0.94592352796E+01  0.00000000000E+00 0.  1.
</event>
<event>
 7    1  0.3910495E-008  0.4614232E+02  0.7816164E-02  0.1320468E+00
        -11   -1    0    0    0    0  0.00000000000E+00  0.00000000000E+00  0.45593999997E+02  0.45594000000E+02  0.51100000000E-03 0. -1.
         11   -1    0    0    0    0 -0.00000000000E+00 -0.00000000000E+00 -0.45593999997E+02  0.45594000000E+02  0.51100000000E-03 0.  1.
    9900012    2    1    2    0    0  0.26960057991E+02  0.32319225772E+01  0.35941944719E+02  0.46142318291E+02  0.10000004835E+02 0.  0.
        -12    1    1    2    0    0 -0.26960057991E+02 -0.32319225772E+01 -0.35941944719E+02  0.45045681709E+02  0.00000000000E+00 0.  1.
         11    1    3    3    0    0  0.18368364481E+01 -0.22516490083E+01  0.23843671824E+01  0.37588693134E+01  0.51100000000E-03 0. -1.
        -11    1    3    3    0    0  0.23443888883E+01  0.11714327762E+01  0.24536590352E+01  0.35901054205E+01  0.51100000000E-03 0.  1.
        -12    1    3    3    0    0  0.22778832655E+02  0.43121388093E+01  0.31103918501E+02  0.38793343557E+02  0.00000000000E+00 0.  1.
</event>
<event>
 7    1  0.3910495E-008  0.4614232E+02  0.7816164E-02  0.1320468E+00
        -11   -1    0    0    0    0  0.00000000000E+00  0.00000000000E+00  0.45593999997E+02  0.45594000000E+02  0.51100000000E-03 0.  1.
         11   -1    0    0    0    0 -0.00000000000E+00 -0.00000000000E+00 -0.45593999997E+02  0.45594000000E+02  0.51100000000E-03 0. -1.
    9900012    2    1    2    0    0 -0.11754523354E+02 -0.49189098396E+01 -0.43205890387E+02  0.46142318105E+02  0.10000003134E+02 0.  0.
        -12    1    1    2    0    0  0.11754523354E+02  0.49189098396E+01  0.43205890387E+02  0.45045681895E+02  0.00000000000E+00 0.  1.
         11    1    3    3    0    0 -0.19335709995E+01 -0.24624895718E+01 -0.11984779403E+02  0.12386988710E+02  0.51100000000E-03 0. -1.
        -11    1    3    3    0    0 -0.92999587898E+01 -0.95680116282E+00 -0.30688269909E+02  0.32080751428E+02  0.51100000000E-03 0.  1.
        -12    1    3    3    0    0 -0.52099356519E+00 -0.14996191050E+01 -0.53284107495E+00  0.16745779666E+01  0.00000000000E+00 0.  1.
</event>
<event>
 7    1  0.3910495E-008  0.4614232E+02  0.7816164E-02  0.1320468E+00
        -11   -1    0    0    0    0  0.00000000000E+00  0.00000000000E+00  0.45593999997E+02  0.45594000000E+02  0.51100000000E-03 0.  1.
         11   -1    0    0    0    0 -0.00000000000E+00 -0.00000000000E+00 -0.45593999997E+02  0.45594000000E+02  0.51100000000E-03 0. -1.
    9900012    2    1    2    0    0 -0.39354029315E+02 -0.42237144347E+01 -0.21506606053E+02  0.46142317733E+02  0.99999997449E+01 0.  0.
        -12    1    1    2    0    0  0.39354029315E+02  0.42237144347E+01  0.21506606053E+02  0.45045682267E+02  0.00000000000E+00 0.  1.
         11    1    3    3    0    0 -0.63034592549E+01  0.34147680067E+00 -0.60302858521E+01  0.87300946560E+01  0.51100000000E-03 0. -1.
        -11    1    3    3    0    0 -0.27359312238E+02 -0.62027099332E+01 -0.11747686366E+02  0.30414038072E+02  0.51100000000E-03 0.  1.
        -12    1    3    3    0    0 -0.56912578223E+01  0.16375186978E+01 -0.37286338354E+01  0.69981850050E+01  0.00000000000E+00 0.  1.
</event>
<event>
 7    1  0.3910495E-008  0.4614232E+02  0.7816164E-02  0.1320468E+00
        -11   -1    0    0    0    0  0.00000000000E+00  0.00000000000E+00  0.45593999997E+02  0.45594000000E+02  0.51100000000E-03 0.  1.
         11   -1    0    0    0    0 -0.00000000000E+00 -0.00000000000E+00 -0.45593999997E+02  0.45594000000E+02  0.51100000000E-03 0. -1.
    9900012    2    1    2    0    0 -0.11455514972E+02  0.34699383588E+02 -0.26340794191E+02  0.46142317818E+02  0.10000000521E+02 0.  0.
        -12    1    1    2    0    0  0.11455514972E+02 -0.34699383588E+02  0.26340794191E+02  0.45045682182E+02  0.00000000000E+00 0.  1.
         11    1    3    3    0    0 -0.23724695206E+01  0.86219180104E+01 -0.45121295558E+01  0.10016256546E+02  0.51100000000E-03 0. -1.
        -11    1    3    3    0    0 -0.29362712173E+01  0.85372363755E+01 -0.26269270256E+01  0.94024911301E+01  0.51100000000E-03 0.  1.
         12    1    3    3    0    0 -0.61467742337E+01  0.17540229202E+02 -0.19201737609E+02  0.26723570142E+02  0.00000000000E+00 0. -1.
</event>
<event>
 7    1  0.3910495E-008  0.4614231E+02  0.7816164E-02  0.1320468E+00
        -11   -1    0    0    0    0  0.00000000000E+00  0.00000000000E+00  0.45593999997E+02  0.45594000000E+02  0.51100000000E-03 0.  1.
         11   -1    0    0    0    0 -0.00000000000E+00 -0.00000000000E+00 -0.45593999997E+02  0.45594000000E+02  0.51100000000E-03 0. -1.
    9900012    2    1    2    0    0  0.34812663608E+02 -0.27334979998E+02 -0.83660720431E+01  0.46142313854E+02  0.99999643730E+01 0.  0.
        -12    1    1    2    0    0 -0.34812663608E+02  0.27334979998E+02  0.83660720431E+01  0.45045686146E+02  0.00000000000E+00 0.  1.
         11    1    3    3    0    0  0.10564048998E+02 -0.43475761011E+01 -0.47840057275E+01  0.12384961051E+02  0.51100000000E-03 0. -1.
        -11    1    3    3    0    0  0.10708461005E+02 -0.12149930547E+02 -0.24203563554E+01  0.16375288533E+02  0.51100000000E-03 0.  1.
         12    1    3    3    0    0  0.13540153605E+02 -0.10837473349E+02 -0.11617099602E+01  0.17382064270E+02  0.00000000000E+00 0. -1.
</event>
<event>
 7    1  0.3910495E-008  0.4614232E+02  0.7816164E-02  0.1320468E+00
        -11   -1    0    0    0    0  0.00000000000E+00  0.00000000000E+00  0.45593999997E+02  0.45594000000E+02  0.51100000000E-03 0. -1.
         11   -1    0    0    0    0 -0.00000000000E+00 -0.00000000000E+00 -0.45593999997E+02  0.45594000000E+02  0.51100000000E-03 0.  1.
    9900012    2    1    2    0    0  0.40363828455E+02  0.19114099929E+02  0.58758836784E+01  0.46142317936E+02  0.10000001591E+02 0.  0.
        -12    1    1    2    0    0 -0.40363828455E+02 -0.19114099929E+02 -0.58758836784E+01  0.45045682064E+02  0.00000000000E+00 0.  1.
         11    1    3    3    0    0  0.42978827511E+01  0.45947254092E+01  0.11745716118E+01  0.64002278444E+01  0.51100000000E-03 0. -1.
        -11    1    3    3    0    0  0.27135002474E+02  0.13086873572E+02  0.15574894666E+01  0.30166212769E+02  0.51100000000E-03 0.  1.
         12    1    3    3    0    0  0.89309432298E+01  0.14325009483E+01  0.31438226000E+01  0.95758773218E+01  0.00000000000E+00 0. -1.
</event>
<event>
 7    1  0.3910495E-008  0.4614232E+02  0.7816164E-02  0.1320468E+00
        -11   -1    0    0    0    0  0.00000000000E+00  0.00000000000E+00  0.45593999997E+02  0.45594000000E+02  0.51100000000E-03 0.  1.
         11   -1    0    0    0    0 -0.00000000000E+00 -0.00000000000E+00 -0.45593999997E+02  0.45594000000E+02  0.51100000000E-03 0. -1.
    9900012    2    1    2    0    0  0.51924736142E+01 -0.24373323816E+02 -0.37524562171E+02  0.46142318052E+02  0.10000002651E+02 0.  0.
        -12    1    1    2    0    0 -0.51924736142E+01  0.24373323816E+02  0.37524562171E+02  0.45045681948E+02  0.00000000000E+00 0.  1.
         11    1    3    3    0    0  0.21776544102E+01 -0.12610704314E+02 -0.16712618427E+02  0.21049552417E+02  0.51100000000E-03 0. -1.
        -11    1    3    3    0    0  0.50052542331E+01 -0.74856986077E+01 -0.15962804175E+02  0.18327557693E+02  0.51100000000E-03 0.  1.
        -12    1    3    3    0    0 -0.19904350292E+01 -0.42769208943E+01 -0.48491395693E+01  0.67652079424E+01  0.00000000000E+00 0.  1.
</event>
<event>
 7    1  0.3910495E-008  0.4614232E+02  0.7816164E-02  0.1320468E+00
        -11   -1    0    0    0    0  0.00000000000E+00  0.00000000000E+00  0.45593999997E+02  0.45594000000E+02  0.51100000000E-03 0.  1.
         11   -1    0    0    0    0 -0.00000000000E+00 -0.00000000000E+00 -0.45593999997E+02  0.45594000000E+02  0.51100000000E-03 0. -1.
    9900012    2    1    2    0    0 -0.21756308815E+01  0.21764623784E+01 -0.44940438679E+02  0.46142318888E+02  0.10000010276E+02 0.  0.
        -12    1    1    2    0    0  0.21756308815E+01 -0.21764623784E+01  0.44940438679E+02  0.45045681112E+02  0.00000000000E+00 0.  1.
         11    1    3    3    0    0 -0.24161451264E+01  0.27785456941E+01 -0.30963155259E+02  0.31181325458E+02  0.51100000000E-03 0. -1.
        -11    1    3    3    0    0 -0.11937857200E+01  0.13826374931E+01 -0.10780228447E+02  0.10933898500E+02  0.51100000000E-03 0.  1.
        -12    1    3    3    0    0  0.14342999648E+01 -0.19847208088E+01 -0.31970549726E+01  0.40270949301E+01  0.00000000000E+00 0.  1.
</event>
<event>
 7    1  0.3910495E-008  0.4614232E+02  0.7816164E-02  0.1320468E+00
        -11   -1    0    0    0    0  0.00000000000E+00  0.00000000000E+00  0.45593999997E+02  0.45594000000E+02  0.51100000000E-03 0. -1.
         11   -1    0    0    0    0 -0.00000000000E+00 -0.00000000000E+00 -0.45593999997E+02  0.45594000000E+02  0.51100000000E-03 0.  1.
    9900012    2    1    2    0    0 -0.23454925758E+02 -0.11498722303E+02  0.36698218739E+02  0.46142318570E+02  0.10000007376E+02 0.  0.
        -12    1    1    2    0    0  0.23454925758E+02  0.11498722303E+02 -0.36698218739E+02  0.45045681430E+02  0.00000000000E+00 0.  1.
         11    1    3    3    0    0 -0.15175025384E+02 -0.91508432590E+01  0.16986969335E+02  0.24547432762E+02  0.51100000000E-03 0. -1.
        -11    1    3    3    0    0 -0.14874753107E+00  0.22769431626E+00  0.90199128037E+00  0.94210352969E+00  0.51100000000E-03 0.  1.
        -12    1    3    3    0    0 -0.81311528428E+01 -0.25755733600E+01  0.18809258123E+02  0.20652782278E+02  0.00000000000E+00 0.  1.
</event>
<event>
 7    1  0.3910495E-008  0.4614232E+02  0.7816164E-02  0.1320468E+00
        -11   -1    0    0    0    0  0.00000000000E+00  0.00000000000E+00  0.45593999997E+02  0.45594000000E+02  0.51100000000E-03 0.  1.
         11   -1    0    0    0    0 -0.00000000000E+00 -0.00000000000E+00 -0.45593999997E+02  0.45594000000E+02  0.51100000000E-03 0. -1.
    9900012    2    1    2    0    0 -0.10235624946E+02  0.32597478113E+02 -0.29355567221E+02  0.46142324023E+02  0.10000057103E+02 0.  0.
        -12    1    1    2    0    0  0.10235624946E+02 -0.32597478113E+02  0.29355567221E+02  0.45045675977E+02  0.00000000000E+00 0.  1.
         11    1    3    3    0    0 -0.21956324236E+01  0.11260779856E+02 -0.10405316123E+02  0.15488594791E+02  0.51100000000E-03 0.  1.
        -11    1    3    3    0    0 -0.80871402653E+01  0.14854082088E+02 -0.16760972214E+02  0.23811253267E+02  0.51100000000E-03 0. -1.
        -12    1    3    3    0    0  0.47147742865E-01  0.64826161691E+01 -0.21892788837E+01  0.68424759653E+01  0.00000000000E+00 0.  1.
</event>
<event>
 7    1  0.3910495E-008  0.4614232E+02  0.7816164E-02  0.1320468E+00
        -11   -1    0    0    0    0  0.00000000000E+00  0.00000000000E+00  0.45593999997E+02  0.45594000000E+02  0.51100000000E-03 0. -1.
         11   -1    0    0    0    0 -0.00000000000E+00 -0.00000000000E+00 -0.45593999997E+02  0.45594000000E+02  0.51100000000E-03 0.  1.
    9900012    2    1    2    0    0 -0.15407648577E+02 -0.16799005346E+02  0.38852429346E+02  0.46142317839E+02  0.10000000709E+02 0.  0.
        -12    1    1    2    0    0  0.15407648577E+02  0.16799005346E+02 -0.38852429346E+02  0.45045682161E+02  0.00000000000E+00 0.  1.
         11    1    3    3    0    0 -0.12352540709E+02 -0.11341907790E+02  0.26117446944E+02  0.31037802264E+02  0.51100000000E-03 0. -1.
        -11    1    3    3    0    0 -0.28883545247E+01 -0.49287647084E+01  0.57772930374E+01  0.81248032907E+01  0.51100000000E-03 0.  1.
        -12    1    3    3    0    0 -0.16675334403E+00 -0.52833284811E+00  0.69576893645E+01  0.69797122842E+01  0.00000000000E+00 0.  1.
</event>
<event>
 7    1  0.3910495E-008  0.4614232E+02  0.7816164E-02  0.1320468E+00
        -11   -1    0    0    0    0  0.00000000000E+00  0.00000000000E+00  0.45593999997E+02  0.45594000000E+02  0.51100000000E-03 0.  1.
         11   -1    0    0    0    0 -0.00000000000E+00 -0.00000000000E+00 -0.45593999997E+02  0.45594000000E+02  0.51100000000E-03 0. -1.
    9900012    2    1    2    0    0 -0.52722872492E+01  0.21075141308E+02 -0.39460802239E+02  0.46142317550E+02  0.99999980764E+01 0.  0.
        -12    1    1    2    0    0  0.52722872492E+01 -0.21075141308E+02  0.39460802239E+02  0.45045682450E+02  0.00000000000E+00 0.  1.
         11    1    3    3    0    0  0.13975410313E+01  0.14543338850E+01 -0.42146692644E+01  0.46724346173E+01  0.51100000000E-03 0. -1.
        -11    1    3    3    0    0 -0.98618523632E+00 -0.36565607306E+00 -0.21109047489E+01  0.23584284606E+01  0.51100000000E-03 0.  1.
         12    1    3    3    0    0 -0.56836430442E+01  0.19986463496E+02 -0.33135228226E+02  0.39111454472E+02  0.00000000000E+00 0. -1.
</event>
<event>
 7    1  0.3910495E-008  0.4614232E+02  0.7816164E-02  0.1320468E+00
        -11   -1    0    0    0    0  0.00000000000E+00  0.00000000000E+00  0.45593999997E+02  0.45594000000E+02  0.51100000000E-03 0. -1.
         11   -1    0    0    0    0 -0.00000000000E+00 -0.00000000000E+00 -0.45593999997E+02  0.45594000000E+02  0.51100000000E-03 0.  1.
    9900012    2    1    2    0    0  0.17346422838E+02  0.37545831549E+02  0.17847286302E+02  0.46142317851E+02  0.10000000818E+02 0.  0.
        -12    1    1    2    0    0 -0.17346422838E+02 -0.37545831549E+02 -0.17847286302E+02  0.45045682149E+02  0.00000000000E+00 0.  1.
         11    1    3    3    0    0  0.57742501806E+01  0.90915225260E+01  0.22645056798E+01  0.11005713663E+02  0.51100000000E-03 0. -1.
        -11    1    3    3    0    0  0.19017600929E+01  0.71090693076E+01  0.70691519669E+01  0.10204335729E+02  0.51100000000E-03 0.  1.
        -12    1    3    3    0    0  0.96704125641E+01  0.21345239715E+02  0.85136286557E+01  0.24932268459E+02  0.00000000000E+00 0.  1.
</event>
<event>
 7    1  0.3910495E-008  0.4614232E+02  0.7816164E-02  0.1320468E+00
        -11   -1    0    0    0    0  0.00000000000E+00  0.00000000000E+00  0.45593999997E+02  0.45594000000E+02  0.51100000000E-03 0.  1.
         11   -1    0    0    0    0 -0.00000000000E+00 -0.00000000000E+00 -0.45593999997E+02  0.45594000000E+02  0.51100000000E-03 0. -1.
    9900012    2    1    2    0    0  0.18998672438E+02 -0.40164797317E+02  0.74130292830E+01  0.46142317620E+02  0.99999987107E+01 0.  0.
        -12    1    1    2    0    0 -0.18998672438E+02  0.40164797317E+02 -0.74130292830E+01  0.45045682380E+02  0.00000000000E+00 0.  1.
         11    1    3    3    0    0  0.11365663626E+02 -0.30295353403E+02  0.62888209752E+01  0.32962645783E+02  0.51100000000E-03 0. -1.
        -11    1    3    3    0    0  0.31180230118E+01 -0.12259766013E+01 -0.97428184221E-01  0.33518022974E+01  0.51100000000E-03 0.  1.
         12    1    3    3    0    0  0.45149858002E+01 -0.86434673131E+01  0.12216364920E+01  0.98278695396E+01  0.00000000000E+00 0. -1.
</event>
<event>
 7    1  0.3910495E-008  0.4614233E+02  0.7816164E-02  0.1320468E+00
        -11   -1    0    0    0    0  0.00000000000E+00  0.00000000000E+00  0.45593999997E+02  0.45594000000E+02  0.51100000000E-03 0.  1.
         11   -1    0    0    0    0 -0.00000000000E+00 -0.00000000000E+00 -0.45593999997E+02  0.45594000000E+02  0.51100000000E-03 0. -1.
    9900012    2    1    2    0    0  0.37513301050E+02  0.23588927982E+02 -0.80887012497E+01  0.46142330209E+02  0.10000113506E+02 0.  0.
        -12    1    1    2    0    0 -0.37513301050E+02 -0.23588927982E+02  0.80887012497E+01  0.45045669791E+02  0.00000000000E+00 0.  1.
         11    1    3    3    0    0  0.51288787289E+01  0.18416319912E+01 -0.20957780779E+01  0.58386035505E+01  0.51100000000E-03 0. -1.
        -11    1    3    3    0    0  0.25536223483E+02  0.13022583087E+02 -0.30388209171E+01  0.28825697092E+02  0.51100000000E-03 0.  1.
         12    1    3    3    0    0  0.68481988385E+01  0.87247129036E+01 -0.29541022546E+01  0.11478029566E+02  0.00000000000E+00 0. -1.
</event>
<event>
 7    1  0.3910495E-008  0.4614232E+02  0.7816164E-02  0.1320468E+00
        -11   -1    0    0    0    0  0.00000000000E+00  0.00000000000E+00  0.45593999997E+02  0.45594000000E+02  0.51100000000E-03 0.  1.
         11   -1    0    0    0    0 -0.00000000000E+00 -0.00000000000E+00 -0.45593999997E+02  0.45594000000E+02  0.51100000000E-03 0. -1.
    9900012    2    1    2    0    0  0.44217735254E+01  0.28192878702E+02 -0.34852877211E+02  0.46142317183E+02  0.99999947241E+01 0.  0.
        -12    1    1    2    0    0 -0.44217735254E+01 -0.28192878702E+02  0.34852877211E+02  0.45045682817E+02  0.00000000000E+00 0.  1.
         11    1    3    3    0    0  0.15999152321E+01  0.11045159557E+02 -0.21015117993E+02  0.23794757047E+02  0.51100000000E-03 0. -1.
        -11    1    3    3    0    0  0.72024073682E+00  0.13929164454E+01 -0.66170597705E+00  0.17020041140E+01  0.51100000000E-03 0.  1.
         12    1    3    3    0    0  0.21016175565E+01  0.15754802699E+02 -0.13176053241E+02  0.20645556022E+02  0.00000000000E+00 0. -1.
</event>
<event>
 7    1  0.3910495E-008  0.4614232E+02  0.7816164E-02  0.1320468E+00
        -11   -1    0    0    0    0  0.00000000000E+00  0.00000000000E+00  0.45593999997E+02  0.45594000000E+02  0.51100000000E-03 0.  1.
         11   -1    0    0    0    0 -0.00000000000E+00 -0.00000000000E+00 -0.45593999997E+02  0.45594000000E+02  0.51100000000E-03 0. -1.
    9900012    2    1    2    0    0 -0.38546868373E+02 -0.21471790858E+02 -0.90672311111E+01  0.46142317143E+02  0.99999943635E+01 0.  0.
        -12    1    1    2    0    0  0.38546868373E+02  0.21471790858E+02  0.90672311111E+01  0.45045682857E+02  0.00000000000E+00 0.  1.
         11    1    3    3    0    0 -0.12353707614E+02 -0.70165860276E+01 -0.41186262862E+01  0.14792215995E+02  0.51100000000E-03 0. -1.
        -11    1    3    3    0    0 -0.16871539087E+02 -0.12173426348E+02 -0.59866764194E+00  0.20813446216E+02  0.51100000000E-03 0.  1.
        -12    1    3    3    0    0 -0.93216216729E+01 -0.22817784824E+01 -0.43499371830E+01  0.10536654932E+02  0.00000000000E+00 0.  1.
</event>
<event>
 7    1  0.3910495E-008  0.4614232E+02  0.7816164E-02  0.1320468E+00
        -11   -1    0    0    0    0  0.00000000000E+00  0.00000000000E+00  0.45593999997E+02  0.45594000000E+02  0.51100000000E-03 0. -1.
         11   -1    0    0    0    0 -0.00000000000E+00 -0.00000000000E+00 -0.45593999997E+02  0.45594000000E+02  0.51100000000E-03 0.  1.
    9900012    2    1    2    0    0  0.44510903972E+02 -0.67697755716E+01 -0.14363700524E+01  0.46142316604E+02  0.99999894444E+01 0.  0.
        -12    1    1    2    0    0 -0.44510903972E+02  0.67697755716E+01  0.14363700524E+01  0.45045683396E+02  0.00000000000E+00 0.  1.
         11    1    3    3    0    0  0.14530711516E+02 -0.43622610801E+01 -0.46445313761E+01  0.15866397538E+02  0.51100000000E-03 0. -1.
        -11    1    3    3    0    0  0.14744813308E+02 -0.12000367186E+01  0.22392827374E+01  0.14962085251E+02  0.51100000000E-03 0.  1.
         12    1    3    3    0    0  0.15235379149E+02 -0.12074777728E+01  0.96887858630E+00  0.15313833814E+02  0.00000000000E+00 0. -1.
</event>
<event>
 7    1  0.3910495E-008  0.4614232E+02  0.7816164E-02  0.1320468E+00
        -11   -1    0    0    0    0  0.00000000000E+00  0.00000000000E+00  0.45593999997E+02  0.45594000000E+02  0.51100000000E-03 0.  1.
         11   -1    0    0    0    0 -0.00000000000E+00 -0.00000000000E+00 -0.45593999997E+02  0.45594000000E+02  0.51100000000E-03 0. -1.
    9900012    2    1    2    0    0  0.28153245811E+02 -0.13651438267E+02 -0.32405963116E+02  0.46142318055E+02  0.10000002678E+02 0.  0.
        -12    1    1    2    0    0 -0.28153245811E+02  0.13651438267E+02  0.32405963116E+02  0.45045681945E+02  0.00000000000E+00 0.  1.
         11    1    3    3    0    0  0.15418021009E+01 -0.60927340693E+00 -0.29166317521E+01  0.33548634609E+01  0.51100000000E-03 0.  1.
        -11    1    3    3    0    0  0.21725636650E+02 -0.10024826772E+02 -0.28047426806E+02  0.36866768103E+02  0.51100000000E-03 0. -1.
         12    1    3    3    0    0  0.48858070604E+01 -0.30173380881E+01 -0.14419045570E+01  0.59206864907E+01  0.00000000000E+00 0. -1.
</event>
<event>
 7    1  0.3910495E-008  0.4614232E+02  0.7816164E-02  0.1320468E+00
        -11   -1    0    0    0    0  0.00000000000E+00  0.00000000000E+00  0.45593999997E+02  0.45594000000E+02  0.51100000000E-03 0. -1.
         11   -1    0    0    0    0 -0.00000000000E+00 -0.00000000000E+00 -0.45593999997E+02  0.45594000000E+02  0.51100000000E-03 0.  1.
    9900012    2    1    2    0    0 -0.41468827824E+02  0.58728579658E+01 -0.16581899187E+02  0.46142317383E+02  0.99999965542E+01 0.  0.
        -12    1    1    2    0    0  0.41468827824E+02 -0.58728579658E+01  0.16581899187E+02  0.45045682617E+02  0.00000000000E+00 0.  1.
         11    1    3    3    0    0 -0.16194255398E+01 -0.79792318708E+00 -0.32597950640E+00  0.18345253858E+01  0.51100000000E-03 0.  1.
        -11    1    3    3    0    0 -0.18167830337E+02  0.59419260613E+01 -0.10732954506E+02  0.21921972018E+02  0.51100000000E-03 0. -1.
         12    1    3    3    0    0 -0.21681571947E+02  0.72885509158E+00 -0.55229651754E+01  0.22385819979E+02  0.00000000000E+00 0. -1.
</event>
<event>
 7    1  0.3910495E-008  0.4614231E+02  0.7816164E-02  0.1320468E+00
        -11   -1    0    0    0    0  0.00000000000E+00  0.00000000000E+00  0.45593999997E+02  0.45594000000E+02  0.51100000000E-03 0. -1.
         11   -1    0    0    0    0 -0.00000000000E+00 -0.00000000000E+00 -0.45593999997E+02  0.45594000000E+02  0.51100000000E-03 0.  1.
    9900012    2    1    2    0    0 -0.13875033135E+02  0.40478802271E+02  0.14073514183E+02  0.46142314532E+02  0.99999705529E+01 0.  0.
        -12    1    1    2    0    0  0.13875033135E+02 -0.40478802271E+02 -0.14073514183E+02  0.45045685468E+02  0.00000000000E+00 0.  1.
         11    1    3    3    0    0 -0.79224891113E+01  0.26934166168E+02  0.44767443180E+01  0.28429850172E+02  0.51100000000E-03 0. -1.
        -11    1    3    3    0    0 -0.33921595228E+01  0.96278839207E+01  0.65744506212E+01  0.12141923087E+02  0.51100000000E-03 0.  1.
         12    1    3    3    0    0 -0.25603845012E+01  0.39167521831E+01  0.30223192441E+01  0.55705412727E+01  0.00000000000E+00 0. -1.
</event>
<event>
 7    1  0.3910495E-008  0.4614232E+02  0.7816164E-02  0.1320468E+00
        -11   -1    0    0    0    0  0.00000000000E+00  0.00000000000E+00  0.45593999997E+02  0.45594000000E+02  0.51100000000E-03 0.  1.
         11   -1    0    0    0    0 -0.00000000000E+00 -0.00000000000E+00 -0.45593999997E+02  0.45594000000E+02  0.51100000000E-03 0. -1.
    9900012    2    1    2    0    0  0.31448205242E+01 -0.36715249346E+02 -0.25907799161E+02  0.46142317765E+02  0.10000000032E+02 0.  0.
        -12    1    1    2    0    0 -0.31448205242E+01  0.36715249346E+02  0.25907799161E+02  0.45045682235E+02  0.00000000000E+00 0.  1.
         11    1    3    3    0    0 -0.13219549919E+01 -0.12053304657E+02 -0.11090611035E+02  0.16432631303E+02  0.51100000000E-03 0. -1.
        -11    1    3    3    0    0  0.26726477542E+01 -0.52570713279E+01 -0.56739227992E+01  0.81837182965E+01  0.51100000000E-03 0.  1.
         12    1    3    3    0    0  0.17941277619E+01 -0.19404873361E+02 -0.91432653265E+01  0.21525968165E+02  0.00000000000E+00 0. -1.
</event>
<event>
 7    1  0.3910495E-008  0.4614232E+02  0.7816164E-02  0.1320468E+00
        -11   -1    0    0    0    0  0.00000000000E+00  0.00000000000E+00  0.45593999997E+02  0.45594000000E+02  0.51100000000E-03 0.  1.
         11   -1    0    0    0    0 -0.00000000000E+00 -0.00000000000E+00 -0.45593999997E+02  0.45594000000E+02  0.51100000000E-03 0. -1.
    9900012    2    1    2    0    0  0.25135134369E+02 -0.30890538680E+02 -0.21050252132E+02  0.46142317915E+02  0.10000001402E+02 0.  0.
        -12    1    1    2    0    0 -0.25135134369E+02  0.30890538680E+02  0.21050252132E+02  0.45045682085E+02  0.00000000000E+00 0.  1.
         11    1    3    3    0    0  0.19344116662E+02 -0.27647793501E+02 -0.18751843975E+02  0.38603458234E+02  0.51100000000E-03 0. -1.
        -11    1    3    3    0    0  0.11084029730E+01 -0.65208119072E-01  0.50943726896E+00  0.12216119848E+01  0.51100000000E-03 0.  1.
         12    1    3    3    0    0  0.46826147339E+01 -0.31775370602E+01 -0.28078454263E+01  0.63172476961E+01  0.00000000000E+00 0. -1.
</event>
<event>
 7    1  0.3910495E-008  0.4614231E+02  0.7816164E-02  0.1320468E+00
        -11   -1    0    0    0    0  0.00000000000E+00  0.00000000000E+00  0.45593999997E+02  0.45594000000E+02  0.51100000000E-03 0.  1.
         11   -1    0    0    0    0 -0.00000000000E+00 -0.00000000000E+00 -0.45593999997E+02  0.45594000000E+02  0.51100000000E-03 0. -1.
    9900012    2    1    2    0    0 -0.28603001196E+02  0.15721593923E+02 -0.31045349201E+02  0.46142313194E+02  0.99999583495E+01 0.  0.
        -12    1    1    2    0    0  0.28603001196E+02 -0.15721593923E+02  0.31045349201E+02  0.45045686806E+02  0.00000000000E+00 0.  1.
         11    1    3    3    0    0 -0.30511759922E+01 -0.10200533095E+01 -0.30612457159E+01  0.44408793368E+01  0.51100000000E-03 0.  1.
        -11    1    3    3    0    0 -0.12376091596E+02  0.10245945356E+02 -0.16733267159E+02  0.23198044519E+02  0.51100000000E-03 0. -1.
         12    1    3    3    0    0 -0.13175733607E+02  0.64957018759E+01 -0.11250836326E+02  0.18503389338E+02  0.00000000000E+00 0. -1.
</event>
<event>
 7    1  0.3910495E-008  0.4614232E+02  0.7816164E-02  0.1320468E+00
        -11   -1    0    0    0    0  0.00000000000E+00  0.00000000000E+00  0.45593999997E+02  0.45594000000E+02  0.51100000000E-03 0. -1.
         11   -1    0    0    0    0 -0.00000000000E+00 -0.00000000000E+00 -0.45593999997E+02  0.45594000000E+02  0.51100000000E-03 0.  1.
    9900012    2    1    2    0    0  0.33327081259E+02 -0.16393071427E+02  0.25488945345E+02  0.46142317955E+02  0.10000001770E+02 0.  0.
        -12    1    1    2    0    0 -0.33327081259E+02  0.16393071427E+02 -0.25488945345E+02  0.45045682045E+02  0.00000000000E+00 0.  1.
         11    1    3    3    0    0  0.82955010882E+01 -0.52352507744E+01  0.56397686244E+01  0.11315042173E+02  0.51100000000E-03 0. -1.
        -11    1    3    3    0    0  0.24737671175E+01 -0.13665421673E+01 -0.54684232382E+00  0.28785409559E+01  0.51100000000E-03 0.  1.
        -12    1    3    3    0    0  0.22557813054E+02 -0.97912784849E+01  0.20396019045E+02  0.31948734826E+02  0.00000000000E+00 0.  1.
</event>
<event>
 7    1  0.3910495E-008  0.4614232E+02  0.7816164E-02  0.1320468E+00
        -11   -1    0    0    0    0  0.00000000000E+00  0.00000000000E+00  0.45593999997E+02  0.45594000000E+02  0.51100000000E-03 0.  1.
         11   -1    0    0    0    0 -0.00000000000E+00 -0.00000000000E+00 -0.45593999997E+02  0.45594000000E+02  0.51100000000E-03 0. -1.
    9900012    2    1    2    0    0 -0.21507797848E+02 -0.33251169651E+02 -0.21468300634E+02  0.46142316704E+02  0.99999903633E+01 0.  0.
        -12    1    1    2    0    0  0.21507797848E+02  0.33251169651E+02  0.21468300634E+02  0.45045683296E+02  0.00000000000E+00 0.  1.
         11    1    3    3    0    0 -0.13625333379E+02 -0.19969441056E+02 -0.82068280028E+01  0.25529988483E+02  0.51100000000E-03 0. -1.
        -11    1    3    3    0    0 -0.28221747030E+01 -0.45164958556E+01 -0.66647083458E+01  0.85312216279E+01  0.51100000000E-03 0.  1.
         12    1    3    3    0    0 -0.50602897658E+01 -0.87652327395E+01 -0.65967642856E+01  0.12081106594E+02  0.00000000000E+00 0. -1.
</event>
<event>
 7    1  0.3910495E-008  0.4614232E+02  0.7816164E-02  0.1320468E+00
        -11   -1    0    0    0    0  0.00000000000E+00  0.00000000000E+00  0.45593999997E+02  0.45594000000E+02  0.51100000000E-03 0.  1.
         11   -1    0    0    0    0 -0.00000000000E+00 -0.00000000000E+00 -0.45593999997E+02  0.45594000000E+02  0.51100000000E-03 0. -1.
    9900012    2    1    2    0    0 -0.13330011140E+02 -0.42356232188E+02 -0.75745574078E+01  0.46142317387E+02  0.99999965886E+01 0.  0.
        -12    1    1    2    0    0  0.13330011140E+02  0.42356232188E+02  0.75745574078E+01  0.45045682613E+02  0.00000000000E+00 0.  1.
         11    1    3    3    0    0 -0.51540013774E+01 -0.74242219388E+01 -0.33043357593E+01  0.96229640271E+01  0.51100000000E-03 0. -1.
        -11    1    3    3    0    0 -0.65522150408E+01 -0.27290959471E+02 -0.55318256031E+01  0.28606451817E+02  0.51100000000E-03 0.  1.
        -12    1    3    3    0    0 -0.16237947222E+01 -0.76410507778E+01  0.12616039547E+01  0.79129015429E+01  0.00000000000E+00 0.  1.
</event>
<event>
 7    1  0.3910495E-008  0.4614232E+02  0.7816164E-02  0.1320468E+00
        -11   -1    0    0    0    0  0.00000000000E+00  0.00000000000E+00  0.45593999997E+02  0.45594000000E+02  0.51100000000E-03 0.  1.
         11   -1    0    0    0    0 -0.00000000000E+00 -0.00000000000E+00 -0.45593999997E+02  0.45594000000E+02  0.51100000000E-03 0. -1.
    9900012    2    1    2    0    0 -0.29213495889E+00 -0.30702584169E+02 -0.32960271168E+02  0.46142317710E+02  0.99999995366E+01 0.  0.
        -12    1    1    2    0    0  0.29213495889E+00  0.30702584169E+02  0.32960271168E+02  0.45045682290E+02  0.00000000000E+00 0.  1.
         11    1    3    3    0    0  0.52433626374E+00 -0.12589253324E+02 -0.20144521949E+02  0.23760597480E+02  0.51100000000E-03 0. -1.
        -11    1    3    3    0    0 -0.15774947567E+01 -0.71341721228E+01 -0.44199093308E+01  0.85393501122E+01  0.51100000000E-03 0.  1.
        -12    1    3    3    0    0  0.76102353408E+00 -0.10979158723E+02 -0.83958398878E+01  0.13842370119E+02  0.00000000000E+00 0.  1.
</event>
<event>
 7    1  0.3910495E-008  0.4614232E+02  0.7816164E-02  0.1320468E+00
        -11   -1    0    0    0    0  0.00000000000E+00  0.00000000000E+00  0.45593999997E+02  0.45594000000E+02  0.51100000000E-03 0.  1.
         11   -1    0    0    0    0 -0.00000000000E+00 -0.00000000000E+00 -0.45593999997E+02  0.45594000000E+02  0.51100000000E-03 0. -1.
    9900012    2    1    2    0    0  0.17577535140E+02 -0.84193293413E+01 -0.40611065949E+02  0.46142317347E+02  0.99999962207E+01 0.  0.
        -12    1    1    2    0    0 -0.17577535140E+02  0.84193293413E+01  0.40611065949E+02  0.45045682653E+02  0.00000000000E+00 0.  1.
         11    1    3    3    0    0  0.84713059637E+01 -0.33367343930E+01 -0.16998391164E+02  0.19283208332E+02  0.51100000000E-03 0. -1.
        -11    1    3    3    0    0  0.19325774223E+01 -0.56756099964E-01 -0.30163105833E+00  0.19567979723E+01  0.51100000000E-03 0.  1.
         12    1    3    3    0    0  0.71736517542E+01 -0.50258388483E+01 -0.23311043727E+02  0.24902311042E+02  0.00000000000E+00 0. -1.
</event>
<event>
 7    1  0.3910495E-008  0.4614232E+02  0.7816164E-02  0.1320468E+00
        -11   -1    0    0    0    0  0.00000000000E+00  0.00000000000E+00  0.45593999997E+02  0.45594000000E+02  0.51100000000E-03 0. -1.
         11   -1    0    0    0    0 -0.00000000000E+00 -0.00000000000E+00 -0.45593999997E+02  0.45594000000E+02  0.51100000000E-03 0.  1.
    9900012    2    1    2    0    0 -0.35108250309E+02  0.24605746344E+02  0.13823217757E+02  0.46142319385E+02  0.10000014810E+02 0.  0.
        -12    1    1    2    0    0  0.35108250309E+02 -0.24605746344E+02 -0.13823217757E+02  0.45045680615E+02  0.00000000000E+00 0.  1.
         11    1    3    3    0    0 -0.37493902210E+01  0.26082019968E+01  0.81733671488E+00  0.46399013192E+01  0.51100000000E-03 0. -1.
        -11    1    3    3    0    0 -0.10741753841E+02  0.39714602093E+01  0.68670020698E+00  0.11472982577E+02  0.51100000000E-03 0.  1.
         12    1    3    3    0    0 -0.20617106246E+02  0.18026084138E+02  0.12319180835E+02  0.30029435489E+02  0.00000000000E+00 0. -1.
</event>
<event>
 7    1  0.3910495E-008  0.4614232E+02  0.7816164E-02  0.1320468E+00
        -11   -1    0    0    0    0  0.00000000000E+00  0.00000000000E+00  0.45593999997E+02  0.45594000000E+02  0.51100000000E-03 0.  1.
         11   -1    0    0    0    0 -0.00000000000E+00 -0.00000000000E+00 -0.45593999997E+02  0.45594000000E+02  0.51100000000E-03 0. -1.
    9900012    2    1    2    0    0  0.42432780397E+02  0.82987295203E+01 -0.12637393842E+02  0.46142317776E+02  0.10000000134E+02 0.  0.
        -12    1    1    2    0    0 -0.42432780397E+02 -0.82987295203E+01  0.12637393842E+02  0.45045682224E+02  0.00000000000E+00 0.  1.
         11    1    3    3    0    0  0.77498055637E+01 -0.39316238414E+00 -0.20448033690E+01  0.80246672215E+01  0.51100000000E-03 0. -1.
        -11    1    3    3    0    0  0.33094347344E+00 -0.82859172946E+00 -0.66911242017E+00  0.11152576064E+01  0.51100000000E-03 0.  1.
         12    1    3    3    0    0  0.34352031360E+02  0.95204836339E+01 -0.99234780532E+01  0.37002392948E+02  0.00000000000E+00 0. -1.
</event>
<event>
 7    1  0.3910495E-008  0.4614232E+02  0.7816164E-02  0.1320468E+00
        -11   -1    0    0    0    0  0.00000000000E+00  0.00000000000E+00  0.45593999997E+02  0.45594000000E+02  0.51100000000E-03 0.  1.
         11   -1    0    0    0    0 -0.00000000000E+00 -0.00000000000E+00 -0.45593999997E+02  0.45594000000E+02  0.51100000000E-03 0. -1.
    9900012    2    1    2    0    0 -0.20876803563E+02 -0.33591347907E+02 -0.21561397300E+02  0.46142318357E+02  0.10000005430E+02 0.  0.
        -12    1    1    2    0    0  0.20876803563E+02  0.33591347907E+02  0.21561397300E+02  0.45045681643E+02  0.00000000000E+00 0.  1.
         11    1    3    3    0    0 -0.14642309275E+02 -0.24744190993E+02 -0.13397364981E+02  0.31720050402E+02  0.51100000000E-03 0. -1.
        -11    1    3    3    0    0 -0.59845783500E+01 -0.92715293538E+01 -0.84073050382E+01  0.13872966981E+02  0.51100000000E-03 0.  1.
        -12    1    3    3    0    0 -0.24991593825E+00  0.42437244011E+00  0.24327271925E+00  0.54930097401E+00  0.00000000000E+00 0.  1.
</event>
<event>
 7    1  0.3910495E-008  0.4614232E+02  0.7816164E-02  0.1320468E+00
        -11   -1    0    0    0    0  0.00000000000E+00  0.00000000000E+00  0.45593999997E+02  0.45594000000E+02  0.51100000000E-03 0.  1.
         11   -1    0    0    0    0 -0.00000000000E+00 -0.00000000000E+00 -0.45593999997E+02  0.45594000000E+02  0.51100000000E-03 0. -1.
    9900012    2    1    2    0    0 -0.38375083511E+02  0.83617611623E+01 -0.22057822021E+02  0.46142316561E+02  0.99999890528E+01 0.  0.
        -12    1    1    2    0    0  0.38375083511E+02 -0.83617611623E+01  0.22057822021E+02  0.45045683439E+02  0.00000000000E+00 0.  1.
         11    1    3    3    0    0 -0.68984241746E+01  0.83509129768E-01 -0.68976478960E+01  0.97556535724E+01  0.51100000000E-03 0. -1.
        -11    1    3    3    0    0 -0.11211169089E+02  0.57776717676E+01 -0.48563568723E+01  0.13515028884E+02  0.51100000000E-03 0.  1.
        -12    1    3    3    0    0 -0.20265490247E+02  0.25005802650E+01 -0.10303817253E+02  0.22871634104E+02  0.00000000000E+00 0.  1.
</event>
<event>
 7    1  0.3910495E-008  0.4614232E+02  0.7816164E-02  0.1320468E+00
        -11   -1    0    0    0    0  0.00000000000E+00  0.00000000000E+00  0.45593999997E+02  0.45594000000E+02  0.51100000000E-03 0.  1.
         11   -1    0    0    0    0 -0.00000000000E+00 -0.00000000000E+00 -0.45593999997E+02  0.45594000000E+02  0.51100000000E-03 0. -1.
    9900012    2    1    2    0    0 -0.63506423467E+01  0.37303554293E+02  0.24438242304E+02  0.46142317543E+02  0.99999980125E+01 0.  0.
        -12    1    1    2    0    0  0.63506423467E+01 -0.37303554293E+02 -0.24438242304E+02  0.45045682457E+02  0.00000000000E+00 0.  1.
         11    1    3    3    0    0 -0.25005394860E+00  0.14006438355E+02  0.68993733960E+01  0.15615511387E+02  0.51100000000E-03 0. -1.
        -11    1    3    3    0    0 -0.70717442345E+01  0.19017935425E+02  0.16122895038E+02  0.25916002373E+02  0.51100000000E-03 0.  1.
        -12    1    3    3    0    0  0.97115583638E+00  0.42791805130E+01  0.14159738700E+01  0.46108037827E+01  0.00000000000E+00 0.  1.
</event>
<event>
 7    1  0.3910495E-008  0.4614232E+02  0.7816164E-02  0.1320468E+00
        -11   -1    0    0    0    0  0.00000000000E+00  0.00000000000E+00  0.45593999997E+02  0.45594000000E+02  0.51100000000E-03 0. -1.
         11   -1    0    0    0    0 -0.00000000000E+00 -0.00000000000E+00 -0.45593999997E+02  0.45594000000E+02  0.51100000000E-03 0.  1.
    9900012    2    1    2    0    0  0.47406089304E+01 -0.17335509749E+02  0.41305207817E+02  0.46142318031E+02  0.10000002459E+02 0.  0.
        -12    1    1    2    0    0 -0.47406089304E+01  0.17335509749E+02 -0.41305207817E+02  0.45045681969E+02  0.00000000000E+00 0.  1.
         11    1    3    3    0    0  0.29444467193E+00  0.52165726688E+00  0.51371931544E+01  0.51719993944E+01  0.51100000000E-03 0. -1.
        -11    1    3    3    0    0  0.14069515337E+01 -0.10406929125E+02  0.14881443869E+02  0.18213760137E+02  0.51100000000E-03 0.  1.
         12    1    3    3    0    0  0.30392127248E+01 -0.74502378911E+01  0.21286570793E+02  0.22756558500E+02  0.00000000000E+00 0. -1.
</event>
<event>
 7    1  0.3910495E-008  0.4614231E+02  0.7816164E-02  0.1320468E+00
        -11   -1    0    0    0    0  0.00000000000E+00  0.00000000000E+00  0.45593999997E+02  0.45594000000E+02  0.51100000000E-03 0.  1.
         11   -1    0    0    0    0 -0.00000000000E+00 -0.00000000000E+00 -0.45593999997E+02  0.45594000000E+02  0.51100000000E-03 0. -1.
    9900012    2    1    2    0    0 -0.30340173451E+02  0.14345342139E+01 -0.33264551024E+02  0.46142307994E+02  0.99999109334E+01 0.  0.
        -12    1    1    2    0    0  0.30340173451E+02 -0.14345342139E+01  0.33264551024E+02  0.45045692006E+02  0.00000000000E+00 0.  1.
         11    1    3    3    0    0 -0.12767467443E+02  0.25164879864E+01 -0.92210451619E+01  0.15948937608E+02  0.51100000000E-03 0. -1.
        -11    1    3    3    0    0 -0.12423254272E+02  0.13012993822E+01 -0.17933152370E+02  0.21854715302E+02  0.51100000000E-03 0.  1.
        -12    1    3    3    0    0 -0.51494517370E+01 -0.23832531547E+01 -0.61103534929E+01  0.83386550834E+01  0.00000000000E+00 0.  1.
</event>
<event>
 7    1  0.3910495E-008  0.4614232E+02  0.7816164E-02  0.1320468E+00
        -11   -1    0    0    0    0  0.00000000000E+00  0.00000000000E+00  0.45593999997E+02  0.45594000000E+02  0.51100000000E-03 0. -1.
         11   -1    0    0    0    0 -0.00000000000E+00 -0.00000000000E+00 -0.45593999997E+02  0.45594000000E+02  0.51100000000E-03 0.  1.
    9900012    2    1    2    0    0  0.40481142823E+01  0.10349725272E+02  0.43653286937E+02  0.46142317601E+02  0.99999985360E+01 0.  0.
        -12    1    1    2    0    0 -0.40481142823E+01 -0.10349725272E+02 -0.43653286937E+02  0.45045682399E+02  0.00000000000E+00 0.  1.
         11    1    3    3    0    0  0.54332198414E+01  0.80070601617E+01  0.28865251761E+02  0.30443975591E+02  0.51100000000E-03 0. -1.
        -11    1    3    3    0    0 -0.18887114305E+01  0.34963324538E+01  0.10401231787E+02  0.11134504679E+02  0.51100000000E-03 0.  1.
        -12    1    3    3    0    0  0.50360587130E+00 -0.11536673434E+01  0.43868033881E+01  0.45638373305E+01  0.00000000000E+00 0.  1.
</event>
<event>
 7    1  0.3910495E-008  0.4614232E+02  0.7816164E-02  0.1320468E+00
        -11   -1    0    0    0    0  0.00000000000E+00  0.00000000000E+00  0.45593999997E+02  0.45594000000E+02  0.51100000000E-03 0.  1.
         11   -1    0    0    0    0 -0.00000000000E+00 -0.00000000000E+00 -0.45593999997E+02  0.45594000000E+02  0.51100000000E-03 0. -1.
    9900012    2    1    2    0    0  0.15816903046E+02 -0.29601871750E+02 -0.30044437293E+02  0.46142318239E+02  0.10000004361E+02 0.  0.
        -12    1    1    2    0    0 -0.15816903046E+02  0.29601871750E+02  0.30044437293E+02  0.45045681761E+02  0.00000000000E+00 0.  1.
         11    1    3    3    0    0 -0.35849384114E+00 -0.27149384656E+01 -0.87570396828E+00  0.28751115469E+01  0.51100000000E-03 0. -1.
        -11    1    3    3    0    0  0.22539120171E+01 -0.16314990920E+01 -0.46299583175E+01  0.54017055595E+01  0.51100000000E-03 0.  1.
         12    1    3    3    0    0  0.13921484870E+02 -0.25255434192E+02 -0.24538775007E+02  0.37865501133E+02  0.00000000000E+00 0. -1.
</event>
<event>
 7    1  0.3910495E-008  0.4614232E+02  0.7816164E-02  0.1320468E+00
        -11   -1    0    0    0    0  0.00000000000E+00  0.00000000000E+00  0.45593999997E+02  0.45594000000E+02  0.51100000000E-03 0.  1.
         11   -1    0    0    0    0 -0.00000000000E+00 -0.00000000000E+00 -0.45593999997E+02  0.45594000000E+02  0.51100000000E-03 0. -1.
    9900012    2    1    2    0    0 -0.18616865606E+02  0.31017161448E+02 -0.26841415888E+02  0.46142316565E+02  0.99999890917E+01 0.  0.
        -12    1    1    2    0    0  0.18616865606E+02 -0.31017161448E+02  0.26841415888E+02  0.45045683435E+02  0.00000000000E+00 0.  1.
         11    1    3    3    0    0 -0.32413679049E+01  0.74422473582E+01 -0.30887737867E+01  0.86852769330E+01  0.51100000000E-03 0.  1.
        -11    1    3    3    0    0 -0.89188988006E+01  0.17231884991E+02 -0.19309959235E+02  0.27374424963E+02  0.51100000000E-03 0. -1.
         12    1    3    3    0    0 -0.64565989001E+01  0.63430290990E+01 -0.44426828662E+01  0.10082614669E+02  0.00000000000E+00 0. -1.
</event>
<event>
 7    1  0.3910495E-008  0.4614232E+02  0.7816164E-02  0.1320468E+00
        -11   -1    0    0    0    0  0.00000000000E+00  0.00000000000E+00  0.45593999997E+02  0.45594000000E+02  0.51100000000E-03 0.  1.
         11   -1    0    0    0    0 -0.00000000000E+00 -0.00000000000E+00 -0.45593999997E+02  0.45594000000E+02  0.51100000000E-03 0. -1.
    9900012    2    1    2    0    0  0.37066552432E+02  0.19898979122E+02 -0.16100152849E+02  0.46142316511E+02  0.99999885979E+01 0.  0.
        -12    1    1    2    0    0 -0.37066552432E+02 -0.19898979122E+02  0.16100152849E+02  0.45045683489E+02  0.00000000000E+00 0.  1.
         11    1    3    3    0    0  0.51980964945E+00  0.58002665386E+00 -0.17773362074E+01  0.19405043793E+01  0.51100000000E-03 0. -1.
        -11    1    3    3    0    0  0.18389955334E+02  0.12880962177E+02 -0.92304658578E+01  0.24275731585E+02  0.51100000000E-03 0.  1.
         12    1    3    3    0    0  0.18156787448E+02  0.64379902915E+01 -0.50923507836E+01  0.19926080546E+02  0.00000000000E+00 0. -1.
</event>
<event>
 7    1  0.3910495E-008  0.4614231E+02  0.7816164E-02  0.1320468E+00
        -11   -1    0    0    0    0  0.00000000000E+00  0.00000000000E+00  0.45593999997E+02  0.45594000000E+02  0.51100000000E-03 0. -1.
         11   -1    0    0    0    0 -0.00000000000E+00 -0.00000000000E+00 -0.45593999997E+02  0.45594000000E+02  0.51100000000E-03 0.  1.
    9900012    2    1    2    0    0 -0.12823358438E+02  0.35483936179E+02  0.24608246451E+02  0.46142311618E+02  0.99999439845E+01 0.  0.
        -12    1    1    2    0    0  0.12823358438E+02 -0.35483936179E+02 -0.24608246451E+02  0.45045688382E+02  0.00000000000E+00 0.  1.
         11    1    3    3    0    0 -0.99757766897E+01  0.22616774499E+02  0.16130005693E+02  0.29516295385E+02  0.51100000000E-03 0. -1.
        -11    1    3    3    0    0 -0.20176931081E+01  0.23071550403E+01  0.10716233862E-01  0.30649902050E+01  0.51100000000E-03 0.  1.
         12    1    3    3    0    0 -0.82988864008E+00  0.10560006640E+02  0.84675245236E+01  0.13561026028E+02  0.00000000000E+00 0. -1.
</event>
<event>
 7    1  0.3910495E-008  0.4614232E+02  0.7816164E-02  0.1320468E+00
        -11   -1    0    0    0    0  0.00000000000E+00  0.00000000000E+00  0.45593999997E+02  0.45594000000E+02  0.51100000000E-03 0.  1.
         11   -1    0    0    0    0 -0.00000000000E+00 -0.00000000000E+00 -0.45593999997E+02  0.45594000000E+02  0.51100000000E-03 0. -1.
    9900012    2    1    2    0    0 -0.29674030048E+02  0.33540269352E+02 -0.48596062973E+01  0.46142317623E+02  0.99999987377E+01 0.  0.
        -12    1    1    2    0    0  0.29674030048E+02 -0.33540269352E+02  0.48596062973E+01  0.45045682377E+02  0.00000000000E+00 0.  1.
         11    1    3    3    0    0 -0.55407428473E+01  0.80859151821E+01 -0.91605615960E+00  0.98448471182E+01  0.51100000000E-03 0. -1.
        -11    1    3    3    0    0 -0.87147643780E+01  0.13345178811E+02 -0.48827843784E+01  0.16669808014E+02  0.51100000000E-03 0.  1.
        -12    1    3    3    0    0 -0.15418522822E+02  0.12109175359E+02  0.93923424074E+00  0.19627662491E+02  0.00000000000E+00 0.  1.
</event>
<event>
 7    1  0.3910495E-008  0.4614232E+02  0.7816164E-02  0.1320468E+00
        -11   -1    0    0    0    0  0.00000000000E+00  0.00000000000E+00  0.45593999997E+02  0.45594000000E+02  0.51100000000E-03 0.  1.
         11   -1    0    0    0    0 -0.00000000000E+00 -0.00000000000E+00 -0.45593999997E+02  0.45594000000E+02  0.51100000000E-03 0. -1.
    9900012    2    1    2    0    0 -0.67531910983E+01  0.40907992429E+02 -0.17608067078E+02  0.46142318067E+02  0.10000002788E+02 0.  0.
        -12    1    1    2    0    0  0.67531910983E+01 -0.40907992429E+02  0.17608067078E+02  0.45045681933E+02  0.00000000000E+00 0.  1.
         11    1    3    3    0    0 -0.80537619223E+00  0.22404259368E+02 -0.10783981554E+02  0.24877574783E+02  0.51100000000E-03 0. -1.
        -11    1    3    3    0    0 -0.14841907581E+01  0.17890050977E+01  0.65772832987E+00  0.24157748784E+01  0.51100000000E-03 0.  1.
        -12    1    3    3    0    0 -0.44636241480E+01  0.16714727963E+02 -0.74818138538E+01  0.18848968406E+02  0.00000000000E+00 0.  1.
</event>
<event>
 7    1  0.3910495E-008  0.4614232E+02  0.7816164E-02  0.1320468E+00
        -11   -1    0    0    0    0  0.00000000000E+00  0.00000000000E+00  0.45593999997E+02  0.45594000000E+02  0.51100000000E-03 0. -1.
         11   -1    0    0    0    0 -0.00000000000E+00 -0.00000000000E+00 -0.45593999997E+02  0.45594000000E+02  0.51100000000E-03 0.  1.
    9900012    2    1    2    0    0  0.11251299953E+02  0.29958357529E+02  0.31702029409E+02  0.46142316465E+02  0.99999881837E+01 0.  0.
        -12    1    1    2    0    0 -0.11251299953E+02 -0.29958357529E+02 -0.31702029409E+02  0.45045683535E+02  0.00000000000E+00 0.  1.
         11    1    3    3    0    0  0.20870152609E-02  0.18408076731E+01  0.43911388323E+01  0.47613735151E+01  0.51100000000E-03 0. -1.
        -11    1    3    3    0    0  0.10688457363E+02  0.19139516910E+02  0.21274260423E+02  0.30547641237E+02  0.51100000000E-03 0.  1.
         12    1    3    3    0    0  0.56075557427E+00  0.89780329456E+01  0.60366301539E+01  0.10833301713E+02  0.00000000000E+00 0. -1.
</event>
<event>
 7    1  0.3910495E-008  0.4614232E+02  0.7816164E-02  0.1320468E+00
        -11   -1    0    0    0    0  0.00000000000E+00  0.00000000000E+00  0.45593999997E+02  0.45594000000E+02  0.51100000000E-03 0.  1.
         11   -1    0    0    0    0 -0.00000000000E+00 -0.00000000000E+00 -0.45593999997E+02  0.45594000000E+02  0.51100000000E-03 0. -1.
    9900012    2    1    2    0    0 -0.76512321167E+01  0.95013490634E+01 -0.43362386175E+02  0.46142317391E+02  0.99999966268E+01 0.  0.
        -12    1    1    2    0    0  0.76512321167E+01 -0.95013490634E+01  0.43362386175E+02  0.45045682609E+02  0.00000000000E+00 0.  1.
         11    1    3    3    0    0 -0.41452566432E+01  0.33192416058E+01 -0.16790476641E+02  0.17610242008E+02  0.51100000000E-03 0. -1.
        -11    1    3    3    0    0 -0.47672300120E+01  0.96448488178E+00 -0.15151577065E+02  0.15913107833E+02  0.51100000000E-03 0.  1.
        -12    1    3    3    0    0  0.12612545385E+01  0.52176225758E+01 -0.11420332468E+02  0.12618967551E+02  0.00000000000E+00 0.  1.
</event>
<event>
 7    1  0.3910495E-008  0.4614232E+02  0.7816164E-02  0.1320468E+00
        -11   -1    0    0    0    0  0.00000000000E+00  0.00000000000E+00  0.45593999997E+02  0.45594000000E+02  0.51100000000E-03 0.  1.
         11   -1    0    0    0    0 -0.00000000000E+00 -0.00000000000E+00 -0.45593999997E+02  0.45594000000E+02  0.51100000000E-03 0. -1.
    9900012    2    1    2    0    0  0.11259544028E+02 -0.44470924896E+01 -0.43388473786E+02  0.46142316291E+02  0.99999865959E+01 0.  0.
        -12    1    1    2    0    0 -0.11259544028E+02  0.44470924896E+01  0.43388473786E+02  0.45045683709E+02  0.00000000000E+00 0.  1.
         11    1    3    3    0    0  0.48446159200E+01 -0.35759149823E+01 -0.27218199450E+02  0.27876295538E+02  0.51100000000E-03 0. -1.
        -11    1    3    3    0    0  0.32892004987E+01  0.16697227240E+01 -0.11607561905E+02  0.12179585688E+02  0.51100000000E-03 0.  1.
         12    1    3    3    0    0  0.31257276090E+01 -0.25409002312E+01 -0.45627124310E+01  0.60864350649E+01  0.00000000000E+00 0. -1.
</event>
<event>
 7    1  0.3910495E-008  0.4614232E+02  0.7816164E-02  0.1320468E+00
        -11   -1    0    0    0    0  0.00000000000E+00  0.00000000000E+00  0.45593999997E+02  0.45594000000E+02  0.51100000000E-03 0.  1.
         11   -1    0    0    0    0 -0.00000000000E+00 -0.00000000000E+00 -0.45593999997E+02  0.45594000000E+02  0.51100000000E-03 0. -1.
    9900012    2    1    2    0    0 -0.19665217309E+02 -0.10064038920E+02 -0.39256946263E+02  0.46142317842E+02  0.10000000737E+02 0.  0.
        -12    1    1    2    0    0  0.19665217309E+02  0.10064038920E+02  0.39256946263E+02  0.45045682158E+02  0.00000000000E+00 0.  1.
         11    1    3    3    0    0 -0.54581219957E+01 -0.28591135751E+01 -0.96480226810E+01  0.11447705799E+02  0.51100000000E-03 0. -1.
        -11    1    3    3    0    0 -0.94200865088E+01 -0.91901505116E+00 -0.11212427392E+02  0.14673143725E+02  0.51100000000E-03 0.  1.
        -12    1    3    3    0    0 -0.47870088044E+01 -0.62859102932E+01 -0.18396496190E+02  0.20021468317E+02  0.00000000000E+00 0.  1.
</event>
<event>
 7    1  0.3910495E-008  0.4614232E+02  0.7816164E-02  0.1320468E+00
        -11   -1    0    0    0    0  0.00000000000E+00  0.00000000000E+00  0.45593999997E+02  0.45594000000E+02  0.51100000000E-03 0.  1.
         11   -1    0    0    0    0 -0.00000000000E+00 -0.00000000000E+00 -0.45593999997E+02  0.45594000000E+02  0.51100000000E-03 0. -1.
    9900012    2    1    2    0    0 -0.18543580534E+02  0.17942137726E+02 -0.36923284967E+02  0.46142315878E+02  0.99999828307E+01 0.  0.
        -12    1    1    2    0    0  0.18543580534E+02 -0.17942137726E+02  0.36923284967E+02  0.45045684122E+02  0.00000000000E+00 0.  1.
         11    1    3    3    0    0 -0.87098486821E+01  0.93610778909E+01 -0.24471555997E+02  0.27610655489E+02  0.51100000000E-03 0. -1.
        -11    1    3    3    0    0  0.26863346665E-01 -0.25591921046E+00  0.11020204854E+00  0.27993040975E+00  0.51100000000E-03 0.  1.
         12    1    3    3    0    0 -0.98605951990E+01  0.88369790454E+01 -0.12561931019E+02  0.18251729980E+02  0.00000000000E+00 0. -1.
</event>
<event>
 7    1  0.3910495E-008  0.4614232E+02  0.7816164E-02  0.1320468E+00
        -11   -1    0    0    0    0  0.00000000000E+00  0.00000000000E+00  0.45593999997E+02  0.45594000000E+02  0.51100000000E-03 0.  1.
         11   -1    0    0    0    0 -0.00000000000E+00 -0.00000000000E+00 -0.45593999997E+02  0.45594000000E+02  0.51100000000E-03 0. -1.
    9900012    2    1    2    0    0  0.13237323876E+02 -0.20371507115E+02 -0.37932682505E+02  0.46142318214E+02  0.10000004131E+02 0.  0.
        -12    1    1    2    0    0 -0.13237323876E+02  0.20371507115E+02  0.37932682505E+02  0.45045681786E+02  0.00000000000E+00 0.  1.
         11    1    3    3    0    0  0.12879655545E+01 -0.41343587601E+01 -0.11869640273E+02  0.12634877843E+02  0.51100000000E-03 0. -1.
        -11    1    3    3    0    0  0.34822709877E+01 -0.16567404065E+01 -0.27503882689E+01  0.47366270591E+01  0.51100000000E-03 0.  1.
        -12    1    3    3    0    0  0.84670873334E+01 -0.14580407948E+02 -0.23312653963E+02  0.28770813312E+02  0.00000000000E+00 0.  1.
</event>
<event>
 7    1  0.3910495E-008  0.4614232E+02  0.7816164E-02  0.1320468E+00
        -11   -1    0    0    0    0  0.00000000000E+00  0.00000000000E+00  0.45593999997E+02  0.45594000000E+02  0.51100000000E-03 0.  1.
         11   -1    0    0    0    0 -0.00000000000E+00 -0.00000000000E+00 -0.45593999997E+02  0.45594000000E+02  0.51100000000E-03 0. -1.
    9900012    2    1    2    0    0 -0.20834626538E+02 -0.26578165116E+02 -0.29809944004E+02  0.46142320014E+02  0.10000020542E+02 0.  0.
        -12    1    1    2    0    0  0.20834626538E+02  0.26578165116E+02  0.29809944004E+02  0.45045679986E+02  0.00000000000E+00 0.  1.
         11    1    3    3    0    0 -0.13932287704E+02 -0.20060467521E+02 -0.25379931854E+02  0.35223173323E+02  0.51100000000E-03 0. -1.
        -11    1    3    3    0    0 -0.40922579647E+00 -0.15711704710E+01  0.17128224536E-01  0.16236797833E+01  0.51100000000E-03 0.  1.
         12    1    3    3    0    0 -0.64931130374E+01 -0.49465271245E+01 -0.44471403746E+01  0.92954669071E+01  0.00000000000E+00 0. -1.
</event>
<event>
 7    1  0.3910495E-008  0.4614232E+02  0.7816164E-02  0.1320468E+00
        -11   -1    0    0    0    0  0.00000000000E+00  0.00000000000E+00  0.45593999997E+02  0.45594000000E+02  0.51100000000E-03 0.  1.
         11   -1    0    0    0    0 -0.00000000000E+00 -0.00000000000E+00 -0.45593999997E+02  0.45594000000E+02  0.51100000000E-03 0. -1.
    9900012    2    1    2    0    0 -0.15859625977E+02  0.10328824766E+02 -0.40876657861E+02  0.46142317465E+02  0.99999972984E+01 0.  0.
        -12    1    1    2    0    0  0.15859625977E+02 -0.10328824766E+02  0.40876657861E+02  0.45045682535E+02  0.00000000000E+00 0.  1.
         11    1    3    3    0    0 -0.67946919995E+01  0.60419434162E+00 -0.11622969990E+02  0.13476881012E+02  0.51100000000E-03 0. -1.
        -11    1    3    3    0    0 -0.64388811344E+00  0.39367769645E+01 -0.53858519874E+01  0.67022538494E+01  0.51100000000E-03 0.  1.
         12    1    3    3    0    0 -0.84210458639E+01  0.57878534599E+01 -0.23867835884E+02  0.25963182603E+02  0.00000000000E+00 0. -1.
</event>
<event>
 7    1  0.3910495E-008  0.4614232E+02  0.7816164E-02  0.1320468E+00
        -11   -1    0    0    0    0  0.00000000000E+00  0.00000000000E+00  0.45593999997E+02  0.45594000000E+02  0.51100000000E-03 0. -1.
         11   -1    0    0    0    0 -0.00000000000E+00 -0.00000000000E+00 -0.45593999997E+02  0.45594000000E+02  0.51100000000E-03 0.  1.
    9900012    2    1    2    0    0 -0.85134572823E+01  0.40800956558E+02 -0.17085561512E+02  0.46142318485E+02  0.10000006602E+02 0.  0.
        -12    1    1    2    0    0  0.85134572823E+01 -0.40800956558E+02  0.17085561512E+02  0.45045681515E+02  0.00000000000E+00 0.  1.
         11    1    3    3    0    0 -0.54176916819E+01  0.15118745575E+02 -0.46402080757E+01  0.16717038678E+02  0.51100000000E-03 0. -1.
        -11    1    3    3    0    0 -0.19870000703E+01  0.92800569184E+01 -0.13360157452E+01  0.95839743333E+01  0.51100000000E-03 0.  1.
         12    1    3    3    0    0 -0.11087655300E+01  0.16402154065E+02 -0.11109337691E+02  0.19841305473E+02  0.00000000000E+00 0. -1.
</event>
<event>
 7    1  0.3910495E-008  0.4614232E+02  0.7816164E-02  0.1320468E+00
        -11   -1    0    0    0    0  0.00000000000E+00  0.00000000000E+00  0.45593999997E+02  0.45594000000E+02  0.51100000000E-03 0. -1.
         11   -1    0    0    0    0 -0.00000000000E+00 -0.00000000000E+00 -0.45593999997E+02  0.45594000000E+02  0.51100000000E-03 0.  1.
    9900012    2    1    2    0    0  0.39824117058E+02  0.17735868895E+02 -0.11339850111E+02  0.46142317128E+02  0.99999942248E+01 0.  0.
        -12    1    1    2    0    0 -0.39824117058E+02 -0.17735868895E+02  0.11339850111E+02  0.45045682872E+02  0.00000000000E+00 0.  1.
         11    1    3    3    0    0  0.16299275571E+02  0.43457877814E+01 -0.48339722520E+00  0.16875601581E+02  0.51100000000E-03 0. -1.
        -11    1    3    3    0    0  0.13680289060E+01  0.38497749274E+00 -0.10509164445E+01  0.17675226708E+01  0.51100000000E-03 0.  1.
         12    1    3    3    0    0  0.22156812580E+02  0.13005103621E+02 -0.98055364412E+01  0.27499192876E+02  0.00000000000E+00 0. -1.
</event>
<event>
 7    1  0.3910495E-008  0.4614232E+02  0.7816164E-02  0.1320468E+00
        -11   -1    0    0    0    0  0.00000000000E+00  0.00000000000E+00  0.45593999997E+02  0.45594000000E+02  0.51100000000E-03 0. -1.
         11   -1    0    0    0    0 -0.00000000000E+00 -0.00000000000E+00 -0.45593999997E+02  0.45594000000E+02  0.51100000000E-03 0.  1.
    9900012    2    1    2    0    0 -0.17168967632E+02 -0.29206954828E+02  0.29686593382E+02  0.46142317782E+02  0.10000000188E+02 0.  0.
        -12    1    1    2    0    0  0.17168967632E+02  0.29206954828E+02 -0.29686593382E+02  0.45045682218E+02  0.00000000000E+00 0.  1.
         11    1    3    3    0    0 -0.79317210769E+01 -0.13170864382E+02  0.17086473434E+02  0.22985461546E+02  0.51100000000E-03 0. -1.
        -11    1    3    3    0    0  0.20709711281E+00 -0.43767977760E+01  0.22215220741E+01  0.49126783503E+01  0.51100000000E-03 0.  1.
        -12    1    3    3    0    0 -0.94443436682E+01 -0.11659292670E+02  0.10378597873E+02  0.18244177885E+02  0.00000000000E+00 0.  1.
</event>
<event>
 7    1  0.3910495E-008  0.4614232E+02  0.7816164E-02  0.1320468E+00
        -11   -1    0    0    0    0  0.00000000000E+00  0.00000000000E+00  0.45593999997E+02  0.45594000000E+02  0.51100000000E-03 0.  1.
         11   -1    0    0    0    0 -0.00000000000E+00 -0.00000000000E+00 -0.45593999997E+02  0.45594000000E+02  0.51100000000E-03 0. -1.
    9900012    2    1    2    0    0  0.66921224665E+01  0.98730023327E+01 -0.43437919424E+02  0.46142317387E+02  0.99999965885E+01 0.  0.
        -12    1    1    2    0    0 -0.66921224665E+01 -0.98730023327E+01  0.43437919424E+02  0.45045682613E+02  0.00000000000E+00 0.  1.
         11    1    3    3    0    0  0.68253752517E+01  0.48693918614E+01 -0.23034575962E+02  0.24513025403E+02  0.51100000000E-03 0. -1.
        -11    1    3    3    0    0 -0.14046363830E+01  0.28250038083E+01 -0.17504879652E+02  0.17786918276E+02  0.51100000000E-03 0.  1.
         12    1    3    3    0    0  0.12713835978E+01  0.21786066631E+01 -0.28984638109E+01  0.38423737075E+01  0.00000000000E+00 0. -1.
</event>
<event>
 7    1  0.3910495E-008  0.4614232E+02  0.7816164E-02  0.1320468E+00
        -11   -1    0    0    0    0  0.00000000000E+00  0.00000000000E+00  0.45593999997E+02  0.45594000000E+02  0.51100000000E-03 0.  1.
         11   -1    0    0    0    0 -0.00000000000E+00 -0.00000000000E+00 -0.45593999997E+02  0.45594000000E+02  0.51100000000E-03 0. -1.
    9900012    2    1    2    0    0  0.38139056824E+02 -0.52182859862E+01 -0.23394344457E+02  0.46142317448E+02  0.99999971446E+01 0.  0.
        -12    1    1    2    0    0 -0.38139056824E+02  0.52182859862E+01  0.23394344457E+02  0.45045682552E+02  0.00000000000E+00 0.  1.
         11    1    3    3    0    0  0.30515414773E+01  0.16044415114E+01 -0.41433458653E+00  0.34724359407E+01  0.51100000000E-03 0. -1.
        -11    1    3    3    0    0  0.51958648536E+00 -0.38691516235E+00 -0.10373852522E+01  0.12230461484E+01  0.51100000000E-03 0.  1.
         12    1    3    3    0    0  0.34567928861E+02 -0.64358123352E+01 -0.21942624618E+02  0.41446835359E+02  0.00000000000E+00 0. -1.
</event>
<event>
 7    1  0.3910495E-008  0.4614232E+02  0.7816164E-02  0.1320468E+00
        -11   -1    0    0    0    0  0.00000000000E+00  0.00000000000E+00  0.45593999997E+02  0.45594000000E+02  0.51100000000E-03 0. -1.
         11   -1    0    0    0    0 -0.00000000000E+00 -0.00000000000E+00 -0.45593999997E+02  0.45594000000E+02  0.51100000000E-03 0.  1.
    9900012    2    1    2    0    0 -0.22133033472E+01  0.31584205961E+02  0.32041422785E+02  0.46142317055E+02  0.99999935648E+01 0.  0.
        -12    1    1    2    0    0  0.22133033472E+01 -0.31584205961E+02 -0.32041422785E+02  0.45045682945E+02  0.00000000000E+00 0.  1.
         11    1    3    3    0    0  0.25080807045E+00  0.55994717658E+01  0.56337086719E+01  0.79470536933E+01  0.51100000000E-03 0. -1.
        -11    1    3    3    0    0 -0.24679511487E+01  0.16373287894E+02  0.10491870010E+02  0.19602415053E+02  0.51100000000E-03 0.  1.
         12    1    3    3    0    0  0.38397309798E-02  0.96114463003E+01  0.15915844103E+02  0.18592848309E+02  0.00000000000E+00 0. -1.
</event>
<event>
 7    1  0.3910495E-008  0.4614232E+02  0.7816164E-02  0.1320468E+00
        -11   -1    0    0    0    0  0.00000000000E+00  0.00000000000E+00  0.45593999997E+02  0.45594000000E+02  0.51100000000E-03 0.  1.
         11   -1    0    0    0    0 -0.00000000000E+00 -0.00000000000E+00 -0.45593999997E+02  0.45594000000E+02  0.51100000000E-03 0. -1.
    9900012    2    1    2    0    0  0.30999058636E+02 -0.12518283295E+02 -0.30190470020E+02  0.46142317266E+02  0.99999954825E+01 0.  0.
        -12    1    1    2    0    0 -0.30999058636E+02  0.12518283295E+02  0.30190470020E+02  0.45045682734E+02  0.00000000000E+00 0.  1.
         11    1    3    3    0    0  0.32973840571E+01 -0.19249688058E+01 -0.72036016467E-01  0.38188265176E+01  0.51100000000E-03 0.  1.
        -11    1    3    3    0    0  0.14867835984E+02 -0.61527425518E+01 -0.17708302466E+02  0.23926821022E+02  0.51100000000E-03 0. -1.
        -12    1    3    3    0    0  0.12833838595E+02 -0.44405719370E+01 -0.12410131538E+02  0.18396669726E+02  0.00000000000E+00 0.  1.
</event>
<event>
 7    1  0.4553232E-008  0.4614232E+02  0.7816164E-02  0.1320468E+00
        -11   -1    0    0    0    0  0.00000000000E+00  0.00000000000E+00  0.45593999997E+02  0.45594000000E+02  0.51100000000E-03 0. -1.
         11   -1    0    0    0    0 -0.00000000000E+00 -0.00000000000E+00 -0.45593999997E+02  0.45594000000E+02  0.51100000000E-03 0.  1.
    9900012    2    1    2    0    0  0.44769573277E+02 -0.36626986346E+01  0.33739477623E+01  0.46142316786E+02  0.99999911127E+01 0.  0.
        -12    1    1    2    0    0 -0.44769573277E+02  0.36626986346E+01 -0.33739477623E+01  0.45045683214E+02  0.00000000000E+00 0.  1.
         11    1    3    3    0    0  0.57799687051E+01 -0.18848641469E+01  0.19463083641E+01  0.63834839699E+01  0.51100000000E-03 0. -1.
        -11    1    3    3    0    0  0.57640760535E+01 -0.29120994558E+01  0.80696487767E+00  0.65081555425E+01  0.51100000000E-03 0.  1.
         12    1    3    3    0    0  0.33225528518E+02  0.11342649681E+01  0.62067452057E+00  0.33250677274E+02  0.00000000000E+00 0. -1.
</event>
<event>
 7    1  0.3910495E-008  0.4614232E+02  0.7816164E-02  0.1320468E+00
        -11   -1    0    0    0    0  0.00000000000E+00  0.00000000000E+00  0.45593999997E+02  0.45594000000E+02  0.51100000000E-03 0. -1.
         11   -1    0    0    0    0 -0.00000000000E+00 -0.00000000000E+00 -0.45593999997E+02  0.45594000000E+02  0.51100000000E-03 0.  1.
    9900012    2    1    2    0    0  0.22604729236E+01 -0.50857417050E+01  0.44700547177E+02  0.46142318471E+02  0.10000006472E+02 0.  0.
        -12    1    1    2    0    0 -0.22604729236E+01  0.50857417050E+01 -0.44700547177E+02  0.45045681529E+02  0.00000000000E+00 0.  1.
         11    1    3    3    0    0 -0.58940245990E-01 -0.22537943298E+01  0.15516336998E+02  0.15679278584E+02  0.51100000000E-03 0. -1.
        -11    1    3    3    0    0  0.28053857729E+01  0.22692638118E+01  0.12305088505E+02  0.12823219212E+02  0.51100000000E-03 0.  1.
         12    1    3    3    0    0 -0.48597260331E+00 -0.51012111870E+01  0.16879121674E+02  0.17639820674E+02  0.00000000000E+00 0. -1.
</event>
<event>
 7    1  0.3910495E-008  0.4614232E+02  0.7816164E-02  0.1320468E+00
        -11   -1    0    0    0    0  0.00000000000E+00  0.00000000000E+00  0.45593999997E+02  0.45594000000E+02  0.51100000000E-03 0.  1.
         11   -1    0    0    0    0 -0.00000000000E+00 -0.00000000000E+00 -0.45593999997E+02  0.45594000000E+02  0.51100000000E-03 0. -1.
    9900012    2    1    2    0    0 -0.14986296617E+02 -0.16330905799E+02 -0.39215123758E+02  0.46142317611E+02  0.99999986324E+01 0.  0.
        -12    1    1    2    0    0  0.14986296617E+02  0.16330905799E+02  0.39215123758E+02  0.45045682389E+02  0.00000000000E+00 0.  1.
         11    1    3    3    0    0 -0.73609839053E+01 -0.47405375280E+01 -0.94949410282E+01  0.12915521108E+02  0.51100000000E-03 0. -1.
        -11    1    3    3    0    0 -0.26034916444E+01 -0.88343580997E+00 -0.85020407382E+01  0.89355091936E+01  0.51100000000E-03 0.  1.
         12    1    3    3    0    0 -0.50218210671E+01 -0.10706932461E+02 -0.21218141992E+02  0.24291287309E+02  0.00000000000E+00 0. -1.
</event>
<event>
 7    1  0.3910495E-008  0.4614231E+02  0.7816164E-02  0.1320468E+00
        -11   -1    0    0    0    0  0.00000000000E+00  0.00000000000E+00  0.45593999997E+02  0.45594000000E+02  0.51100000000E-03 0. -1.
         11   -1    0    0    0    0 -0.00000000000E+00 -0.00000000000E+00 -0.45593999997E+02  0.45594000000E+02  0.51100000000E-03 0.  1.
    9900012    2    1    2    0    0 -0.44566643160E+02  0.64974475559E+01  0.84336770807E+00  0.46142314564E+02  0.99999708449E+01 0.  0.
        -12    1    1    2    0    0  0.44566643160E+02 -0.64974475559E+01 -0.84336770807E+00  0.45045685436E+02  0.00000000000E+00 0.  1.
         11    1    3    3    0    0 -0.46543815083E+01  0.19507010714E+00  0.17541219406E+01  0.49777769752E+01  0.51100000000E-03 0. -1.
        -11    1    3    3    0    0 -0.20839311810E+02  0.58038497029E+01  0.25212764384E+01  0.21778852661E+02  0.51100000000E-03 0.  1.
        -12    1    3    3    0    0 -0.19072949842E+02  0.49852774580E+00 -0.34320306709E+01  0.19385684928E+02  0.00000000000E+00 0.  1.
</event>
<event>
 7    1  0.3910495E-008  0.4614232E+02  0.7816164E-02  0.1320468E+00
        -11   -1    0    0    0    0  0.00000000000E+00  0.00000000000E+00  0.45593999997E+02  0.45594000000E+02  0.51100000000E-03 0.  1.
         11   -1    0    0    0    0 -0.00000000000E+00 -0.00000000000E+00 -0.45593999997E+02  0.45594000000E+02  0.51100000000E-03 0. -1.
    9900012    2    1    2    0    0  0.15153749807E+02 -0.14858002463E+02 -0.39733073023E+02  0.46142318051E+02  0.10000002640E+02 0.  0.
        -12    1    1    2    0    0 -0.15153749807E+02  0.14858002463E+02  0.39733073023E+02  0.45045681949E+02  0.00000000000E+00 0.  1.
         11    1    3    3    0    0  0.63644077364E+01 -0.43073241347E+01 -0.13034628114E+02  0.15131432760E+02  0.51100000000E-03 0. -1.
        -11    1    3    3    0    0  0.66005143321E+01 -0.53369149507E+01 -0.87409706283E+01  0.12184170814E+02  0.51100000000E-03 0.  1.
        -12    1    3    3    0    0  0.21888277384E+01 -0.52137633781E+01 -0.17957474281E+02  0.18826714477E+02  0.00000000000E+00 0.  1.
</event>
<event>
 7    1  0.3910495E-008  0.4614232E+02  0.7816164E-02  0.1320468E+00
        -11   -1    0    0    0    0  0.00000000000E+00  0.00000000000E+00  0.45593999997E+02  0.45594000000E+02  0.51100000000E-03 0.  1.
         11   -1    0    0    0    0 -0.00000000000E+00 -0.00000000000E+00 -0.45593999997E+02  0.45594000000E+02  0.51100000000E-03 0. -1.
    9900012    2    1    2    0    0  0.16829206846E+02 -0.32802433458E+02 -0.25882263094E+02  0.46142318890E+02  0.10000010291E+02 0.  0.
        -12    1    1    2    0    0 -0.16829206846E+02  0.32802433458E+02  0.25882263094E+02  0.45045681110E+02  0.00000000000E+00 0.  1.
         11    1    3    3    0    0  0.25823333245E+01 -0.92189115120E+01 -0.79858311185E+01  0.12467167833E+02  0.51100000000E-03 0. -1.
        -11    1    3    3    0    0  0.13519951063E+01 -0.87039467904E+01 -0.48475023654E+01  0.10054096675E+02  0.51100000000E-03 0.  1.
         12    1    3    3    0    0  0.12894878415E+02 -0.14879575156E+02 -0.13048929610E+02  0.23621054382E+02  0.00000000000E+00 0. -1.
</event>
<event>
 7    1  0.3910495E-008  0.4614231E+02  0.7816164E-02  0.1320468E+00
        -11   -1    0    0    0    0  0.00000000000E+00  0.00000000000E+00  0.45593999997E+02  0.45594000000E+02  0.51100000000E-03 0.  1.
         11   -1    0    0    0    0 -0.00000000000E+00 -0.00000000000E+00 -0.45593999997E+02  0.45594000000E+02  0.51100000000E-03 0. -1.
    9900012    2    1    2    0    0  0.24591379820E+02  0.36605296505E+02 -0.91885860291E+01  0.46142314226E+02  0.99999677622E+01 0.  0.
        -12    1    1    2    0    0 -0.24591379820E+02 -0.36605296505E+02  0.91885860291E+01  0.45045685774E+02  0.00000000000E+00 0.  1.
         11    1    3    3    0    0  0.12791831901E+02  0.14723334503E+02 -0.72829599524E+01  0.20819439190E+02  0.51100000000E-03 0. -1.
        -11    1    3    3    0    0  0.78294212060E+00  0.47862463493E+01 -0.10776948320E+01  0.49681564883E+01  0.51100000000E-03 0.  1.
        -12    1    3    3    0    0  0.11016605798E+02  0.17095715653E+02 -0.82793124466E+00  0.20354718547E+02  0.00000000000E+00 0.  1.
</event>
<event>
 7    1  0.3910495E-008  0.4614232E+02  0.7816164E-02  0.1320468E+00
        -11   -1    0    0    0    0  0.00000000000E+00  0.00000000000E+00  0.45593999997E+02  0.45594000000E+02  0.51100000000E-03 0. -1.
         11   -1    0    0    0    0 -0.00000000000E+00 -0.00000000000E+00 -0.45593999997E+02  0.45594000000E+02  0.51100000000E-03 0.  1.
    9900012    2    1    2    0    0 -0.78250954610E-01  0.43731869741E+02  0.10799568136E+02  0.46142320671E+02  0.10000026535E+02 0.  0.
        -12    1    1    2    0    0  0.78250954610E-01 -0.43731869741E+02 -0.10799568136E+02  0.45045679329E+02  0.00000000000E+00 0.  1.
         11    1    3    3    0    0 -0.30951899716E+01  0.70396754413E+01  0.11246201767E+01  0.77718724952E+01  0.51100000000E-03 0. -1.
        -11    1    3    3    0    0  0.83424954896E+00  0.35199070559E+01 -0.38449531654E+00  0.36377953353E+01  0.51100000000E-03 0.  1.
         12    1    3    3    0    0  0.21826894680E+01  0.33172287244E+02  0.10059443276E+02  0.34732652841E+02  0.00000000000E+00 0. -1.
</event>
<event>
 7    1  0.3910495E-008  0.4614232E+02  0.7816164E-02  0.1320468E+00
        -11   -1    0    0    0    0  0.00000000000E+00  0.00000000000E+00  0.45593999997E+02  0.45594000000E+02  0.51100000000E-03 0. -1.
         11   -1    0    0    0    0 -0.00000000000E+00 -0.00000000000E+00 -0.45593999997E+02  0.45594000000E+02  0.51100000000E-03 0.  1.
    9900012    2    1    2    0    0 -0.23620508278E+02  0.17118189674E+02  0.34324229355E+02  0.46142317079E+02  0.99999937768E+01 0.  0.
        -12    1    1    2    0    0  0.23620508278E+02 -0.17118189674E+02 -0.34324229355E+02  0.45045682921E+02  0.00000000000E+00 0.  1.
         11    1    3    3    0    0 -0.66428676950E+00  0.27836031168E+01  0.53239157922E+01  0.60443198830E+01  0.51100000000E-03 0. -1.
        -11    1    3    3    0    0 -0.10848747583E+02  0.50032307791E+01  0.91729102374E+01  0.15062201859E+02  0.51100000000E-03 0.  1.
         12    1    3    3    0    0 -0.12107473925E+02  0.93313557783E+01  0.19827403326E+02  0.25035795337E+02  0.00000000000E+00 0. -1.
</event>
<event>
 7    1  0.3910495E-008  0.4614232E+02  0.7816164E-02  0.1320468E+00
        -11   -1    0    0    0    0  0.00000000000E+00  0.00000000000E+00  0.45593999997E+02  0.45594000000E+02  0.51100000000E-03 0.  1.
         11   -1    0    0    0    0 -0.00000000000E+00 -0.00000000000E+00 -0.45593999997E+02  0.45594000000E+02  0.51100000000E-03 0. -1.
    9900012    2    1    2    0    0  0.15565383839E+02  0.42249026384E+02  0.13609248910E+01  0.46142317399E+02  0.99999966975E+01 0.  0.
        -12    1    1    2    0    0 -0.15565383839E+02 -0.42249026384E+02 -0.13609248910E+01  0.45045682601E+02  0.00000000000E+00 0.  1.
         11    1    3    3    0    0  0.11170411697E+02  0.23195463419E+02  0.45618677578E+01  0.26146094516E+02  0.51100000000E-03 0. -1.
        -11    1    3    3    0    0  0.65796161868E-01  0.48869638553E+01 -0.13306115430E+01  0.50653008003E+01  0.51100000000E-03 0.  1.
        -12    1    3    3    0    0  0.43291759794E+01  0.14166599109E+02 -0.18703313238E+01  0.14930922083E+02  0.00000000000E+00 0.  1.
</event>
<event>
 7    1  0.3910495E-008  0.4614232E+02  0.7816164E-02  0.1320468E+00
        -11   -1    0    0    0    0  0.00000000000E+00  0.00000000000E+00  0.45593999997E+02  0.45594000000E+02  0.51100000000E-03 0. -1.
         11   -1    0    0    0    0 -0.00000000000E+00 -0.00000000000E+00 -0.45593999997E+02  0.45594000000E+02  0.51100000000E-03 0.  1.
    9900012    2    1    2    0    0 -0.44672451777E+02 -0.27369438066E+01 -0.50984770746E+01  0.46142320100E+02  0.10000021324E+02 0.  0.
        -12    1    1    2    0    0  0.44672451777E+02  0.27369438066E+01  0.50984770746E+01  0.45045679900E+02  0.00000000000E+00 0.  1.
         11    1    3    3    0    0 -0.32785806002E+02 -0.33955813702E+01 -0.26521476802E+01  0.33067702304E+02  0.51100000000E-03 0. -1.
        -11    1    3    3    0    0 -0.36917068283E+01 -0.11414235815E+01 -0.26437606890E+01  0.46819886737E+01  0.51100000000E-03 0.  1.
         12    1    3    3    0    0 -0.81949389467E+01  0.18000611450E+01  0.19743129468E+00  0.83926291221E+01  0.00000000000E+00 0. -1.
</event>
<event>
 7    1  0.3910495E-008  0.4614232E+02  0.7816164E-02  0.1320468E+00
        -11   -1    0    0    0    0  0.00000000000E+00  0.00000000000E+00  0.45593999997E+02  0.45594000000E+02  0.51100000000E-03 0. -1.
         11   -1    0    0    0    0 -0.00000000000E+00 -0.00000000000E+00 -0.45593999997E+02  0.45594000000E+02  0.51100000000E-03 0.  1.
    9900012    2    1    2    0    0 -0.21842529951E+02 -0.39211188453E+02  0.38078981382E+01  0.46142317601E+02  0.99999985373E+01 0.  0.
        -12    1    1    2    0    0  0.21842529951E+02  0.39211188453E+02 -0.38078981382E+01  0.45045682399E+02  0.00000000000E+00 0.  1.
         11    1    3    3    0    0  0.47350179756E-01  0.34817733556E-01  0.27583350830E+00  0.28202606177E+00  0.51100000000E-03 0. -1.
        -11    1    3    3    0    0 -0.65003860049E+01 -0.75199622026E+01 -0.20787918470E+01  0.10155108347E+02  0.51100000000E-03 0.  1.
         12    1    3    3    0    0 -0.15389494126E+02 -0.31726043984E+02  0.56108564768E+01  0.35705183192E+02  0.00000000000E+00 0. -1.
</event>
<event>
 7    1  0.3910495E-008  0.4614232E+02  0.7816164E-02  0.1320468E+00
        -11   -1    0    0    0    0  0.00000000000E+00  0.00000000000E+00  0.45593999997E+02  0.45594000000E+02  0.51100000000E-03 0.  1.
         11   -1    0    0    0    0 -0.00000000000E+00 -0.00000000000E+00 -0.45593999997E+02  0.45594000000E+02  0.51100000000E-03 0. -1.
    9900012    2    1    2    0    0  0.24447083926E+02 -0.25153125454E+02 -0.28262587085E+02  0.46142318061E+02  0.10000002735E+02 0.  0.
        -12    1    1    2    0    0 -0.24447083926E+02  0.25153125454E+02  0.28262587085E+02  0.45045681939E+02  0.00000000000E+00 0.  1.
         11    1    3    3    0    0  0.26864967137E+01 -0.45017015688E+01 -0.24982796689E+01  0.58072354156E+01  0.51100000000E-03 0. -1.
        -11    1    3    3    0    0  0.14736227559E+02 -0.89777233107E+01 -0.12386444180E+02  0.21240996168E+02  0.51100000000E-03 0.  1.
        -12    1    3    3    0    0  0.70243596535E+01 -0.11673700574E+02 -0.13377863237E+02  0.19094086478E+02  0.00000000000E+00 0.  1.
</event>
<event>
 7    1  0.3910495E-008  0.4614232E+02  0.7816164E-02  0.1320468E+00
        -11   -1    0    0    0    0  0.00000000000E+00  0.00000000000E+00  0.45593999997E+02  0.45594000000E+02  0.51100000000E-03 0.  1.
         11   -1    0    0    0    0 -0.00000000000E+00 -0.00000000000E+00 -0.45593999997E+02  0.45594000000E+02  0.51100000000E-03 0. -1.
    9900012    2    1    2    0    0  0.31851466947E+02  0.95717508100E+01 -0.30380571252E+02  0.46142317966E+02  0.10000001872E+02 0.  0.
        -12    1    1    2    0    0 -0.31851466947E+02 -0.95717508100E+01  0.30380571252E+02  0.45045682034E+02  0.00000000000E+00 0.  1.
         11    1    3    3    0    0  0.13639838817E+01  0.12782267309E+01 -0.64122814386E+00  0.19762311097E+01  0.51100000000E-03 0.  1.
        -11    1    3    3    0    0  0.97299523961E+01  0.38848647834E+01 -0.51123593250E+01  0.11657631241E+02  0.51100000000E-03 0. -1.
         12    1    3    3    0    0  0.20757530670E+02  0.44086592957E+01 -0.24626983783E+02  0.32508455616E+02  0.00000000000E+00 0. -1.
</event>
<event>
 7    1  0.3910495E-008  0.4614232E+02  0.7816164E-02  0.1320468E+00
        -11   -1    0    0    0    0  0.00000000000E+00  0.00000000000E+00  0.45593999997E+02  0.45594000000E+02  0.51100000000E-03 0.  1.
         11   -1    0    0    0    0 -0.00000000000E+00 -0.00000000000E+00 -0.45593999997E+02  0.45594000000E+02  0.51100000000E-03 0. -1.
    9900012    2    1    2    0    0  0.33951169025E+01  0.38615112835E+02 -0.22944711497E+02  0.46142317147E+02  0.99999944000E+01 0.  0.
        -12    1    1    2    0    0 -0.33951169025E+01 -0.38615112835E+02  0.22944711497E+02  0.45045682853E+02  0.00000000000E+00 0.  1.
         11    1    3    3    0    0  0.43844841513E+01  0.24406041120E+02 -0.13046998376E+02  0.28019684354E+02  0.51100000000E-03 0. -1.
        -11    1    3    3    0    0 -0.27552663349E+01  0.57259789787E+01 -0.28998656027E+01  0.69848084165E+01  0.51100000000E-03 0.  1.
         12    1    3    3    0    0  0.17658990862E+01  0.84830927361E+01 -0.69978475179E+01  0.11137824376E+02  0.00000000000E+00 0. -1.
</event>
<event>
 7    1  0.3910495E-008  0.4614232E+02  0.7816164E-02  0.1320468E+00
        -11   -1    0    0    0    0  0.00000000000E+00  0.00000000000E+00  0.45593999997E+02  0.45594000000E+02  0.51100000000E-03 0.  1.
         11   -1    0    0    0    0 -0.00000000000E+00 -0.00000000000E+00 -0.45593999997E+02  0.45594000000E+02  0.51100000000E-03 0. -1.
    9900012    2    1    2    0    0  0.10843380596E+02 -0.39024656518E+01 -0.43546588325E+02  0.46142317680E+02  0.99999992621E+01 0.  0.
        -12    1    1    2    0    0 -0.10843380596E+02  0.39024656518E+01  0.43546588325E+02  0.45045682320E+02  0.00000000000E+00 0.  1.
         11    1    3    3    0    0  0.31997284832E+01  0.18050956879E+01 -0.58700954292E+01  0.69249298493E+01  0.51100000000E-03 0. -1.
        -11    1    3    3    0    0  0.57488224822E-01  0.73219888100E+00 -0.11910068206E+01  0.13992560899E+01  0.51100000000E-03 0.  1.
        -12    1    3    3    0    0  0.75861638878E+01 -0.64397602207E+01 -0.36485486075E+02  0.37818131741E+02  0.00000000000E+00 0.  1.
</event>
<event>
 7    1  0.3910495E-008  0.4614232E+02  0.7816164E-02  0.1320468E+00
        -11   -1    0    0    0    0  0.00000000000E+00  0.00000000000E+00  0.45593999997E+02  0.45594000000E+02  0.51100000000E-03 0.  1.
         11   -1    0    0    0    0 -0.00000000000E+00 -0.00000000000E+00 -0.45593999997E+02  0.45594000000E+02  0.51100000000E-03 0. -1.
    9900012    2    1    2    0    0 -0.18295290695E+02  0.92321726567E+01 -0.40114371295E+02  0.46142318099E+02  0.10000003082E+02 0.  0.
        -12    1    1    2    0    0  0.18295290695E+02 -0.92321726567E+01  0.40114371295E+02  0.45045681901E+02  0.00000000000E+00 0.  1.
         11    1    3    3    0    0 -0.43284254566E+01  0.16534044365E+01 -0.58901599423E+01  0.74941975935E+01  0.51100000000E-03 0. -1.
        -11    1    3    3    0    0 -0.90058576614E-02 -0.11412754477E+01 -0.48012986302E+01  0.49350845535E+01  0.51100000000E-03 0.  1.
        -12    1    3    3    0    0 -0.13957859380E+02  0.87200436680E+01 -0.29422912722E+02  0.33713035952E+02  0.00000000000E+00 0.  1.
</event>
<event>
 7    1  0.5260574E-008  0.4614232E+02  0.7816164E-02  0.1320468E+00
        -11   -1    0    0    0    0  0.00000000000E+00  0.00000000000E+00  0.45593999997E+02  0.45594000000E+02  0.51100000000E-03 0. -1.
         11   -1    0    0    0    0 -0.00000000000E+00 -0.00000000000E+00 -0.45593999997E+02  0.45594000000E+02  0.51100000000E-03 0.  1.
    9900012    2    1    2    0    0  0.29153376545E+02  0.61664233755E+01  0.33781198357E+02  0.46142317591E+02  0.99999984533E+01 0.  0.
        -12    1    1    2    0    0 -0.29153376545E+02 -0.61664233755E+01 -0.33781198357E+02  0.45045682409E+02  0.00000000000E+00 0.  1.
         11    1    3    3    0    0  0.99538567670E+00  0.30890962103E+00 -0.13288670344E+00  0.10506554794E+01  0.51100000000E-03 0. -1.
        -11    1    3    3    0    0  0.92072938011E+00 -0.91204838581E+00  0.33725386449E+01  0.36129755081E+01  0.51100000000E-03 0.  1.
         12    1    3    3    0    0  0.27237261488E+02  0.67695621403E+01  0.30541546416E+02  0.41478686604E+02  0.00000000000E+00 0. -1.
</event>
<event>
 7    1  0.3910495E-008  0.4614232E+02  0.7816164E-02  0.1320468E+00
        -11   -1    0    0    0    0  0.00000000000E+00  0.00000000000E+00  0.45593999997E+02  0.45594000000E+02  0.51100000000E-03 0.  1.
         11   -1    0    0    0    0 -0.00000000000E+00 -0.00000000000E+00 -0.45593999997E+02  0.45594000000E+02  0.51100000000E-03 0. -1.
    9900012    2    1    2    0    0 -0.16593907003E+02 -0.23004397432E+02 -0.34993620088E+02  0.46142317658E+02  0.99999990556E+01 0.  0.
        -12    1    1    2    0    0  0.16593907003E+02  0.23004397432E+02  0.34993620088E+02  0.45045682342E+02  0.00000000000E+00 0.  1.
         11    1    3    3    0    0 -0.10490747943E+02 -0.10046037628E+02 -0.13756135490E+02  0.20005247519E+02  0.51100000000E-03 0. -1.
        -11    1    3    3    0    0 -0.91009525109E+00 -0.23872368678E+01 -0.10440796965E+01  0.27599412862E+01  0.51100000000E-03 0.  1.
        -12    1    3    3    0    0 -0.51930638093E+01 -0.10571122936E+02 -0.20193404902E+02  0.23377128853E+02  0.00000000000E+00 0.  1.
</event>
<event>
 7    1  0.3910495E-008  0.4614232E+02  0.7816164E-02  0.1320468E+00
        -11   -1    0    0    0    0  0.00000000000E+00  0.00000000000E+00  0.45593999997E+02  0.45594000000E+02  0.51100000000E-03 0. -1.
         11   -1    0    0    0    0 -0.00000000000E+00 -0.00000000000E+00 -0.45593999997E+02  0.45594000000E+02  0.51100000000E-03 0.  1.
    9900012    2    1    2    0    0 -0.12552900080E+01  0.21887427053E+02  0.39350709254E+02  0.46142317246E+02  0.99999952987E+01 0.  0.
        -12    1    1    2    0    0  0.12552900080E+01 -0.21887427053E+02 -0.39350709254E+02  0.45045682754E+02  0.00000000000E+00 0.  1.
         11    1    3    3    0    0  0.57306722757E+00  0.44495063398E+01  0.14472882186E+02  0.15152255005E+02  0.51100000000E-03 0. -1.
        -11    1    3    3    0    0 -0.18955119625E+01  0.21378269643E+01  0.63372251042E+01  0.69515244380E+01  0.51100000000E-03 0.  1.
        -12    1    3    3    0    0  0.67154726954E-01  0.15300093749E+02  0.18540601964E+02  0.24038537802E+02  0.00000000000E+00 0.  1.
</event>
<event>
 7    1  0.3910495E-008  0.4614232E+02  0.7816164E-02  0.1320468E+00
        -11   -1    0    0    0    0  0.00000000000E+00  0.00000000000E+00  0.45593999997E+02  0.45594000000E+02  0.51100000000E-03 0.  1.
         11   -1    0    0    0    0 -0.00000000000E+00 -0.00000000000E+00 -0.45593999997E+02  0.45594000000E+02  0.51100000000E-03 0. -1.
    9900012    2    1    2    0    0  0.19436521454E+02 -0.28976371508E+02 -0.28490437667E+02  0.46142317516E+02  0.99999977626E+01 0.  0.
        -12    1    1    2    0    0 -0.19436521454E+02  0.28976371508E+02  0.28490437667E+02  0.45045682484E+02  0.00000000000E+00 0.  1.
         11    1    3    3    0    0  0.25901571365E+01 -0.74556531633E+01 -0.58420871929E+01  0.98196568735E+01  0.51100000000E-03 0.  1.
        -11    1    3    3    0    0 -0.46485490797E+00 -0.17183430470E+01 -0.30127782475E+01  0.34993750788E+01  0.51100000000E-03 0. -1.
         12    1    3    3    0    0  0.17311219225E+02 -0.19802375298E+02 -0.19635572227E+02  0.32823285563E+02  0.00000000000E+00 0. -1.
</event>
<event>
 7    1  0.3910495E-008  0.4614232E+02  0.7816164E-02  0.1320468E+00
        -11   -1    0    0    0    0  0.00000000000E+00  0.00000000000E+00  0.45593999997E+02  0.45594000000E+02  0.51100000000E-03 0.  1.
         11   -1    0    0    0    0 -0.00000000000E+00 -0.00000000000E+00 -0.45593999997E+02  0.45594000000E+02  0.51100000000E-03 0. -1.
    9900012    2    1    2    0    0  0.18395490245E+02  0.37459141436E+02 -0.16956772087E+02  0.46142318097E+02  0.10000003064E+02 0.  0.
        -12    1    1    2    0    0 -0.18395490245E+02 -0.37459141436E+02  0.16956772087E+02  0.45045681903E+02  0.00000000000E+00 0.  1.
         11    1    3    3    0    0  0.82476339815E+01  0.13320778834E+02 -0.81173908483E+01  0.17645357732E+02  0.51100000000E-03 0. -1.
        -11    1    3    3    0    0  0.28083556287E+01  0.40322576001E+01 -0.44887707059E+01  0.66554508038E+01  0.51100000000E-03 0.  1.
         12    1    3    3    0    0  0.73395006349E+01  0.20106105002E+02 -0.43506105328E+01  0.21841509561E+02  0.00000000000E+00 0. -1.
</event>
<event>
 7    1  0.3910495E-008  0.4614232E+02  0.7816164E-02  0.1320468E+00
        -11   -1    0    0    0    0  0.00000000000E+00  0.00000000000E+00  0.45593999997E+02  0.45594000000E+02  0.51100000000E-03 0. -1.
         11   -1    0    0    0    0 -0.00000000000E+00 -0.00000000000E+00 -0.45593999997E+02  0.45594000000E+02  0.51100000000E-03 0.  1.
    9900012    2    1    2    0    0  0.25650030494E+02 -0.15187841682E+02  0.33771570007E+02  0.46142317187E+02  0.99999947692E+01 0.  0.
        -12    1    1    2    0    0 -0.25650030494E+02  0.15187841682E+02 -0.33771570007E+02  0.45045682813E+02  0.00000000000E+00 0.  1.
         11    1    3    3    0    0  0.12705340958E+02 -0.52934836456E+01  0.20354679349E+02  0.24571520703E+02  0.51100000000E-03 0. -1.
        -11    1    3    3    0    0  0.76782087389E+01 -0.33819141779E+01  0.54045324208E+01  0.99800402751E+01  0.51100000000E-03 0.  1.
        -12    1    3    3    0    0  0.52664807970E+01 -0.65124438582E+01  0.80123582371E+01  0.11590756210E+02  0.00000000000E+00 0.  1.
</event>
<event>
 7    1  0.3910495E-008  0.4614232E+02  0.7816164E-02  0.1320468E+00
        -11   -1    0    0    0    0  0.00000000000E+00  0.00000000000E+00  0.45593999997E+02  0.45594000000E+02  0.51100000000E-03 0.  1.
         11   -1    0    0    0    0 -0.00000000000E+00 -0.00000000000E+00 -0.45593999997E+02  0.45594000000E+02  0.51100000000E-03 0. -1.
    9900012    2    1    2    0    0 -0.23541758603E+02  0.37990726379E+02 -0.56217277461E+01  0.46142317501E+02  0.99999976286E+01 0.  0.
        -12    1    1    2    0    0  0.23541758603E+02 -0.37990726379E+02  0.56217277461E+01  0.45045682499E+02  0.00000000000E+00 0.  1.
         11    1    3    3    0    0 -0.34954712010E+01  0.11280090192E+02 -0.14843155053E+00  0.11810198382E+02  0.51100000000E-03 0. -1.
        -11    1    3    3    0    0 -0.41839590403E+00  0.33633633341E+01 -0.43256912265E+00  0.34167798227E+01  0.51100000000E-03 0.  1.
        -12    1    3    3    0    0 -0.19627891498E+02  0.23347272853E+02 -0.50407270729E+01  0.30915339296E+02  0.00000000000E+00 0.  1.
</event>
<event>
 7    1  0.3910495E-008  0.4614232E+02  0.7816164E-02  0.1320468E+00
        -11   -1    0    0    0    0  0.00000000000E+00  0.00000000000E+00  0.45593999997E+02  0.45594000000E+02  0.51100000000E-03 0.  1.
         11   -1    0    0    0    0 -0.00000000000E+00 -0.00000000000E+00 -0.45593999997E+02  0.45594000000E+02  0.51100000000E-03 0. -1.
    9900012    2    1    2    0    0 -0.18591798450E+02 -0.27811314255E+02  0.30166028313E+02  0.46142318361E+02  0.10000005466E+02 0.  0.
        -12    1    1    2    0    0  0.18591798450E+02  0.27811314255E+02 -0.30166028313E+02  0.45045681639E+02  0.00000000000E+00 0.  1.
         11    1    3    3    0    0 -0.10905151010E+02 -0.14238274993E+02  0.13262215232E+02  0.22305540712E+02  0.51100000000E-03 0. -1.
        -11    1    3    3    0    0 -0.36717873630E+01 -0.31734643019E+01  0.20578228692E+01  0.52713881793E+01  0.51100000000E-03 0.  1.
        -12    1    3    3    0    0 -0.40148600767E+01 -0.10399574961E+02  0.14845990211E+02  0.18565389469E+02  0.00000000000E+00 0.  1.
</event>
<event>
 7    1  0.3910495E-008  0.4614232E+02  0.7816164E-02  0.1320468E+00
        -11   -1    0    0    0    0  0.00000000000E+00  0.00000000000E+00  0.45593999997E+02  0.45594000000E+02  0.51100000000E-03 0.  1.
         11   -1    0    0    0    0 -0.00000000000E+00 -0.00000000000E+00 -0.45593999997E+02  0.45594000000E+02  0.51100000000E-03 0. -1.
    9900012    2    1    2    0    0  0.61723539593E+01  0.39465715232E+02 -0.20820007221E+02  0.46142319487E+02  0.10000015741E+02 0.  0.
        -12    1    1    2    0    0 -0.61723539593E+01 -0.39465715232E+02  0.20820007221E+02  0.45045680513E+02  0.00000000000E+00 0.  1.
         11    1    3    3    0    0  0.23375642352E+01  0.91632047768E+01 -0.63403847158E+01  0.11385473505E+02  0.51100000000E-03 0. -1.
        -11    1    3    3    0    0 -0.14318641633E+01  0.11897240056E+02 -0.85322403604E+01  0.14710325685E+02  0.51100000000E-03 0.  1.
         12    1    3    3    0    0  0.52666538874E+01  0.18405270399E+02 -0.59473821445E+01  0.20046520297E+02  0.00000000000E+00 0. -1.
</event>
<event>
 7    1  0.3910495E-008  0.4614232E+02  0.7816164E-02  0.1320468E+00
        -11   -1    0    0    0    0  0.00000000000E+00  0.00000000000E+00  0.45593999997E+02  0.45594000000E+02  0.51100000000E-03 0.  1.
         11   -1    0    0    0    0 -0.00000000000E+00 -0.00000000000E+00 -0.45593999997E+02  0.45594000000E+02  0.51100000000E-03 0. -1.
    9900012    2    1    2    0    0 -0.86362589630E+01 -0.20869300180E+02 -0.38974362402E+02  0.46142316705E+02  0.99999903668E+01 0.  0.
        -12    1    1    2    0    0  0.86362589630E+01  0.20869300180E+02  0.38974362402E+02  0.45045683295E+02  0.00000000000E+00 0.  1.
         11    1    3    3    0    0  0.25766507870E+00 -0.77802221415E-01 -0.15069959105E+01  0.15308433668E+01  0.51100000000E-03 0. -1.
        -11    1    3    3    0    0 -0.36117431923E+01 -0.30420142722E+01 -0.33419912738E+01  0.57851055007E+01  0.51100000000E-03 0.  1.
         12    1    3    3    0    0 -0.52821808495E+01 -0.17749483687E+02 -0.34125375218E+02  0.38826367837E+02  0.00000000000E+00 0. -1.
</event>
<event>
 7    1  0.3910495E-008  0.4614232E+02  0.7816164E-02  0.1320468E+00
        -11   -1    0    0    0    0  0.00000000000E+00  0.00000000000E+00  0.45593999997E+02  0.45594000000E+02  0.51100000000E-03 0. -1.
         11   -1    0    0    0    0 -0.00000000000E+00 -0.00000000000E+00 -0.45593999997E+02  0.45594000000E+02  0.51100000000E-03 0.  1.
    9900012    2    1    2    0    0 -0.75755477030E+01 -0.42126917926E+02  0.14037357407E+02  0.46142317189E+02  0.99999947855E+01 0.  0.
        -12    1    1    2    0    0  0.75755477030E+01  0.42126917926E+02 -0.14037357407E+02  0.45045682811E+02  0.00000000000E+00 0.  1.
         11    1    3    3    0    0 -0.35632959866E+01 -0.40186399869E+01  0.11256878375E+01  0.54875968330E+01  0.51100000000E-03 0. -1.
        -11    1    3    3    0    0 -0.21130370563E+01 -0.71063367034E+01  0.35113205275E+01  0.82033114687E+01  0.51100000000E-03 0.  1.
         12    1    3    3    0    0 -0.18992146601E+01 -0.31001941235E+02  0.94003490422E+01  0.32451408888E+02  0.00000000000E+00 0. -1.
</event>
<event>
 7    1  0.3910495E-008  0.4614232E+02  0.7816164E-02  0.1320468E+00
        -11   -1    0    0    0    0  0.00000000000E+00  0.00000000000E+00  0.45593999997E+02  0.45594000000E+02  0.51100000000E-03 0. -1.
         11   -1    0    0    0    0 -0.00000000000E+00 -0.00000000000E+00 -0.45593999997E+02  0.45594000000E+02  0.51100000000E-03 0.  1.
    9900012    2    1    2    0    0  0.41856322440E+01 -0.37348755955E+02 -0.24832727963E+02  0.46142318001E+02  0.10000002189E+02 0.  0.
        -12    1    1    2    0    0 -0.41856322440E+01  0.37348755955E+02  0.24832727963E+02  0.45045681999E+02  0.00000000000E+00 0.  1.
         11    1    3    3    0    0  0.44075852783E+00 -0.26824949409E+02 -0.14735198553E+02  0.30608793762E+02  0.51100000000E-03 0. -1.
        -11    1    3    3    0    0  0.11053914660E+01 -0.20727357514E+01 -0.36644106068E+00  0.23774783070E+01  0.51100000000E-03 0.  1.
         12    1    3    3    0    0  0.26394822501E+01 -0.84510707945E+01 -0.97310883492E+01  0.13156045933E+02  0.00000000000E+00 0. -1.
</event>
<event>
 7    1  0.3910495E-008  0.4614232E+02  0.7816164E-02  0.1320468E+00
        -11   -1    0    0    0    0  0.00000000000E+00  0.00000000000E+00  0.45593999997E+02  0.45594000000E+02  0.51100000000E-03 0. -1.
         11   -1    0    0    0    0 -0.00000000000E+00 -0.00000000000E+00 -0.45593999997E+02  0.45594000000E+02  0.51100000000E-03 0.  1.
    9900012    2    1    2    0    0 -0.12922383050E+02 -0.26633816144E+02  0.33952398167E+02  0.46142317772E+02  0.10000000096E+02 0.  0.
        -12    1    1    2    0    0  0.12922383050E+02  0.26633816144E+02 -0.33952398167E+02  0.45045682228E+02  0.00000000000E+00 0.  1.
         11    1    3    3    0    0 -0.36502399104E+01 -0.16052658273E+02  0.14680631320E+02  0.22057493631E+02  0.51100000000E-03 0. -1.
        -11    1    3    3    0    0 -0.62367000546E+01 -0.46656215462E+01  0.99945016352E+01  0.12671010819E+02  0.51100000000E-03 0.  1.
         12    1    3    3    0    0 -0.30354430851E+01 -0.59155363249E+01  0.92772652119E+01  0.11413813322E+02  0.00000000000E+00 0. -1.
</event>
<event>
 7    1  0.3910495E-008  0.4614232E+02  0.7816164E-02  0.1320468E+00
        -11   -1    0    0    0    0  0.00000000000E+00  0.00000000000E+00  0.45593999997E+02  0.45594000000E+02  0.51100000000E-03 0.  1.
         11   -1    0    0    0    0 -0.00000000000E+00 -0.00000000000E+00 -0.45593999997E+02  0.45594000000E+02  0.51100000000E-03 0. -1.
    9900012    2    1    2    0    0  0.33614986168E+02  0.39152658160E+01 -0.29729057612E+02  0.46142317988E+02  0.10000002066E+02 0.  0.
        -12    1    1    2    0    0 -0.33614986168E+02 -0.39152658160E+01  0.29729057612E+02  0.45045682012E+02  0.00000000000E+00 0.  1.
         11    1    3    3    0    0  0.66129121369E+01 -0.45689239948E+00 -0.91323245892E+01  0.11284445501E+02  0.51100000000E-03 0. -1.
        -11    1    3    3    0    0  0.11422425137E+02  0.47695927985E+01 -0.10969603821E+02  0.16539438314E+02  0.51100000000E-03 0.  1.
         12    1    3    3    0    0  0.15579648894E+02 -0.39743458306E+00 -0.96271292016E+01  0.18318434173E+02  0.00000000000E+00 0. -1.
</event>
<event>
 7    1  0.3910495E-008  0.4614232E+02  0.7816164E-02  0.1320468E+00
        -11   -1    0    0    0    0  0.00000000000E+00  0.00000000000E+00  0.45593999997E+02  0.45594000000E+02  0.51100000000E-03 0.  1.
         11   -1    0    0    0    0 -0.00000000000E+00 -0.00000000000E+00 -0.45593999997E+02  0.45594000000E+02  0.51100000000E-03 0. -1.
    9900012    2    1    2    0    0 -0.34301024324E+02 -0.17641640910E+02 -0.23266396285E+02  0.46142323628E+02  0.10000053498E+02 0.  0.
        -12    1    1    2    0    0  0.34301024324E+02  0.17641640910E+02  0.23266396285E+02  0.45045676372E+02  0.00000000000E+00 0.  1.
         11    1    3    3    0    0 -0.15124511451E+02 -0.82931990770E+01 -0.13648331408E+02  0.21995566554E+02  0.51100000000E-03 0. -1.
        -11    1    3    3    0    0 -0.62787333796E+01 -0.62404590164E+01 -0.32449781590E+01  0.94284518931E+01  0.51100000000E-03 0.  1.
         12    1    3    3    0    0 -0.12897779494E+02 -0.31079828167E+01 -0.63730867184E+01  0.14718305181E+02  0.00000000000E+00 0. -1.
</event>
<event>
 7    1  0.3910495E-008  0.4614232E+02  0.7816164E-02  0.1320468E+00
        -11   -1    0    0    0    0  0.00000000000E+00  0.00000000000E+00  0.45593999997E+02  0.45594000000E+02  0.51100000000E-03 0.  1.
         11   -1    0    0    0    0 -0.00000000000E+00 -0.00000000000E+00 -0.45593999997E+02  0.45594000000E+02  0.51100000000E-03 0. -1.
    9900012    2    1    2    0    0  0.20097636788E+01 -0.42633998271E+02 -0.14401959062E+02  0.46142318926E+02  0.10000010624E+02 0.  0.
        -12    1    1    2    0    0 -0.20097636788E+01  0.42633998271E+02  0.14401959062E+02  0.45045681074E+02  0.00000000000E+00 0.  1.
         11    1    3    3    0    0  0.14241426488E+01 -0.29490627597E+02 -0.68719613013E+01  0.30314174090E+02  0.51100000000E-03 0. -1.
        -11    1    3    3    0    0 -0.11618394383E+01 -0.22727332257E+01 -0.11736460881E+00  0.25551833414E+01  0.51100000000E-03 0.  1.
        -12    1    3    3    0    0  0.17474604683E+01 -0.10870637448E+02 -0.74126331514E+01  0.13272961495E+02  0.00000000000E+00 0.  1.
</event>
<event>
 7    1  0.3910495E-008  0.4614232E+02  0.7816164E-02  0.1320468E+00
        -11   -1    0    0    0    0  0.00000000000E+00  0.00000000000E+00  0.45593999997E+02  0.45594000000E+02  0.51100000000E-03 0.  1.
         11   -1    0    0    0    0 -0.00000000000E+00 -0.00000000000E+00 -0.45593999997E+02  0.45594000000E+02  0.51100000000E-03 0. -1.
    9900012    2    1    2    0    0  0.13008265606E+02 -0.26900447924E+02 -0.33708521272E+02  0.46142317866E+02  0.10000000955E+02 0.  0.
        -12    1    1    2    0    0 -0.13008265606E+02  0.26900447924E+02  0.33708521272E+02  0.45045682134E+02  0.00000000000E+00 0.  1.
         11    1    3    3    0    0  0.28959154730E+01 -0.48976869132E+01 -0.92850578379E+01  0.10889718217E+02  0.51100000000E-03 0. -1.
        -11    1    3    3    0    0  0.21562671213E+01 -0.13804969024E+02 -0.14214058394E+02  0.19931535664E+02  0.51100000000E-03 0.  1.
        -12    1    3    3    0    0  0.79560830121E+01 -0.81977919868E+01 -0.10209405040E+02  0.15321063985E+02  0.00000000000E+00 0.  1.
</event>
<event>
 7    1  0.3910495E-008  0.4614232E+02  0.7816164E-02  0.1320468E+00
        -11   -1    0    0    0    0  0.00000000000E+00  0.00000000000E+00  0.45593999997E+02  0.45594000000E+02  0.51100000000E-03 0.  1.
         11   -1    0    0    0    0 -0.00000000000E+00 -0.00000000000E+00 -0.45593999997E+02  0.45594000000E+02  0.51100000000E-03 0. -1.
    9900012    2    1    2    0    0  0.31301160156E+02 -0.32393185684E+02 -0.18001873828E+00  0.46142317491E+02  0.99999975413E+01 0.  0.
        -12    1    1    2    0    0 -0.31301160156E+02  0.32393185684E+02  0.18001873828E+00  0.45045682509E+02  0.00000000000E+00 0.  1.
         11    1    3    3    0    0  0.67812806809E+01 -0.29320506037E+01  0.10406018233E+01  0.74609343135E+01  0.51100000000E-03 0. -1.
        -11    1    3    3    0    0  0.11663641220E+02 -0.13363641696E+02  0.19228999574E+01  0.17841664452E+02  0.51100000000E-03 0.  1.
        -12    1    3    3    0    0  0.12856238256E+02 -0.16097493384E+02 -0.31435205190E+01  0.20839718726E+02  0.00000000000E+00 0.  1.
</event>
<event>
 7    1  0.3910495E-008  0.4614232E+02  0.7816164E-02  0.1320468E+00
        -11   -1    0    0    0    0  0.00000000000E+00  0.00000000000E+00  0.45593999997E+02  0.45594000000E+02  0.51100000000E-03 0.  1.
         11   -1    0    0    0    0 -0.00000000000E+00 -0.00000000000E+00 -0.45593999997E+02  0.45594000000E+02  0.51100000000E-03 0. -1.
    9900012    2    1    2    0    0  0.95465664145E+01 -0.32544556470E+02 -0.29645039680E+02  0.46142318034E+02  0.10000002488E+02 0.  0.
        -12    1    1    2    0    0 -0.95465664145E+01  0.32544556470E+02  0.29645039680E+02  0.45045681966E+02  0.00000000000E+00 0.  1.
         11    1    3    3    0    0  0.21940346373E+01 -0.89241008674E+01 -0.59667227154E+01  0.10956967852E+02  0.51100000000E-03 0. -1.
        -11    1    3    3    0    0  0.96228524833E+00 -0.47082949496E+01 -0.88546768329E+00  0.48865210028E+01  0.51100000000E-03 0.  1.
        -12    1    3    3    0    0  0.63902465289E+01 -0.18912160653E+02 -0.22792849281E+02  0.30298829179E+02  0.00000000000E+00 0.  1.
</event>
<event>
 7    1  0.3910495E-008  0.4614232E+02  0.7816164E-02  0.1320468E+00
        -11   -1    0    0    0    0  0.00000000000E+00  0.00000000000E+00  0.45593999997E+02  0.45594000000E+02  0.51100000000E-03 0. -1.
         11   -1    0    0    0    0 -0.00000000000E+00 -0.00000000000E+00 -0.45593999997E+02  0.45594000000E+02  0.51100000000E-03 0.  1.
    9900012    2    1    2    0    0  0.16802693678E+01 -0.10627727810E+02  0.43741761145E+02  0.46142316837E+02  0.99999915709E+01 0.  0.
        -12    1    1    2    0    0 -0.16802693678E+01  0.10627727810E+02 -0.43741761145E+02  0.45045683163E+02  0.00000000000E+00 0.  1.
         11    1    3    3    0    0 -0.14889373995E+01 -0.18494752827E+01  0.53816600290E+01  0.58821559253E+01  0.51100000000E-03 0. -1.
        -11    1    3    3    0    0 -0.22463643668E+01 -0.11019699805E+01  0.48397643560E+01  0.54482850503E+01  0.51100000000E-03 0.  1.
         12    1    3    3    0    0  0.54155711341E+01 -0.76762825472E+01  0.33520336760E+02  0.34811875861E+02  0.00000000000E+00 0. -1.
</event>
<event>
 7    1  0.3910495E-008  0.4614233E+02  0.7816164E-02  0.1320468E+00
        -11   -1    0    0    0    0  0.00000000000E+00  0.00000000000E+00  0.45593999997E+02  0.45594000000E+02  0.51100000000E-03 0.  1.
         11   -1    0    0    0    0 -0.00000000000E+00 -0.00000000000E+00 -0.45593999997E+02  0.45594000000E+02  0.51100000000E-03 0. -1.
    9900012    2    1    2    0    0 -0.37720993903E+01  0.20218371442E+00 -0.44887000249E+02  0.46142329804E+02  0.10000109816E+02 0.  0.
        -12    1    1    2    0    0  0.37720993903E+01 -0.20218371442E+00  0.44887000249E+02  0.45045670196E+02  0.00000000000E+00 0.  1.
         11    1    3    3    0    0 -0.43707510928E+01  0.31577493475E+01 -0.24607343404E+02  0.25191192820E+02  0.51100000000E-03 0. -1.
        -11    1    3    3    0    0 -0.18134328645E+01 -0.95313450079E+00 -0.63179394026E+01  0.66417891179E+01  0.51100000000E-03 0.  1.
         12    1    3    3    0    0  0.24120845670E+01 -0.20024311322E+01 -0.13961717442E+02  0.14309347866E+02  0.00000000000E+00 0. -1.
</event>
<event>
 7    1  0.3910495E-008  0.4614232E+02  0.7816164E-02  0.1320468E+00
        -11   -1    0    0    0    0  0.00000000000E+00  0.00000000000E+00  0.45593999997E+02  0.45594000000E+02  0.51100000000E-03 0.  1.
         11   -1    0    0    0    0 -0.00000000000E+00 -0.00000000000E+00 -0.45593999997E+02  0.45594000000E+02  0.51100000000E-03 0. -1.
    9900012    2    1    2    0    0 -0.29259233285E+02  0.34033690827E+02 -0.38364855429E+01  0.46142318020E+02  0.10000002361E+02 0.  0.
        -12    1    1    2    0    0  0.29259233285E+02 -0.34033690827E+02  0.38364855429E+01  0.45045681980E+02  0.00000000000E+00 0.  1.
         11    1    3    3    0    0 -0.21004894844E+01  0.16707311555E+01 -0.99496139495E+00  0.28624023314E+01  0.51100000000E-03 0. -1.
        -11    1    3    3    0    0 -0.65154538714E+01  0.31439116463E+01 -0.19526608865E+01  0.74932105528E+01  0.51100000000E-03 0.  1.
        -12    1    3    3    0    0 -0.20643289929E+02  0.29219048025E+02 -0.88886326143E+00  0.35786705136E+02  0.00000000000E+00 0.  1.
</event>
<event>
 7    1  0.3910495E-008  0.4614232E+02  0.7816164E-02  0.1320468E+00
        -11   -1    0    0    0    0  0.00000000000E+00  0.00000000000E+00  0.45593999997E+02  0.45594000000E+02  0.51100000000E-03 0.  1.
         11   -1    0    0    0    0 -0.00000000000E+00 -0.00000000000E+00 -0.45593999997E+02  0.45594000000E+02  0.51100000000E-03 0. -1.
    9900012    2    1    2    0    0  0.73667210738E+01  0.23809818792E+02 -0.37522492727E+02  0.46142317513E+02  0.99999977391E+01 0.  0.
        -12    1    1    2    0    0 -0.73667210738E+01 -0.23809818792E+02  0.37522492727E+02  0.45045682487E+02  0.00000000000E+00 0.  1.
         11    1    3    3    0    0  0.72948345204E+01  0.10708112678E+02 -0.13591965404E+02  0.18778173810E+02  0.51100000000E-03 0. -1.
        -11    1    3    3    0    0 -0.10658491641E+00  0.21247827940E+01 -0.56894822688E+01  0.60742300758E+01  0.51100000000E-03 0.  1.
         12    1    3    3    0    0  0.17847146982E+00  0.10976923320E+02 -0.18241045054E+02  0.21289913628E+02  0.00000000000E+00 0. -1.
</event>
<event>
 7    1  0.3910495E-008  0.4614232E+02  0.7816164E-02  0.1320468E+00
        -11   -1    0    0    0    0  0.00000000000E+00  0.00000000000E+00  0.45593999997E+02  0.45594000000E+02  0.51100000000E-03 0. -1.
         11   -1    0    0    0    0 -0.00000000000E+00 -0.00000000000E+00 -0.45593999997E+02  0.45594000000E+02  0.51100000000E-03 0.  1.
    9900012    2    1    2    0    0  0.25561650614E+01  0.31970063333E+02  0.31630596361E+02  0.46142317016E+02  0.99999932093E+01 0.  0.
        -12    1    1    2    0    0 -0.25561650614E+01 -0.31970063333E+02 -0.31630596361E+02  0.45045682984E+02  0.00000000000E+00 0.  1.
         11    1    3    3    0    0  0.24864965625E+01  0.18455844157E+02  0.18701479613E+02  0.26392161501E+02  0.51100000000E-03 0. -1.
        -11    1    3    3    0    0  0.29610160604E+01  0.39412318246E+01  0.42045757324E+01  0.64791497710E+01  0.51100000000E-03 0.  1.
         12    1    3    3    0    0 -0.28913475615E+01  0.95729873508E+01  0.87245410151E+01  0.13271005744E+02  0.00000000000E+00 0. -1.
</event>
<event>
 7    1  0.3910495E-008  0.4614232E+02  0.7816164E-02  0.1320468E+00
        -11   -1    0    0    0    0  0.00000000000E+00  0.00000000000E+00  0.45593999997E+02  0.45594000000E+02  0.51100000000E-03 0.  1.
         11   -1    0    0    0    0 -0.00000000000E+00 -0.00000000000E+00 -0.45593999997E+02  0.45594000000E+02  0.51100000000E-03 0. -1.
    9900012    2    1    2    0    0 -0.61665437101E+00 -0.43953564351E+02 -0.98395824524E+01  0.46142318025E+02  0.10000002408E+02 0.  0.
        -12    1    1    2    0    0  0.61665437101E+00  0.43953564351E+02  0.98395824524E+01  0.45045681975E+02  0.00000000000E+00 0.  1.
         11    1    3    3    0    0  0.42068650349E+01 -0.17200656411E+02 -0.41722759739E+01  0.18192530925E+02  0.51100000000E-03 0. -1.
        -11    1    3    3    0    0 -0.11663610985E+00 -0.81935049553E+01 -0.22788206324E+01  0.85053013568E+01  0.51100000000E-03 0.  1.
        -12    1    3    3    0    0 -0.47068832961E+01 -0.18559402985E+02 -0.33884858462E+01  0.19444485744E+02  0.00000000000E+00 0.  1.
</event>
<event>
 7    1  0.3910495E-008  0.4614232E+02  0.7816164E-02  0.1320468E+00
        -11   -1    0    0    0    0  0.00000000000E+00  0.00000000000E+00  0.45593999997E+02  0.45594000000E+02  0.51100000000E-03 0. -1.
         11   -1    0    0    0    0 -0.00000000000E+00 -0.00000000000E+00 -0.45593999997E+02  0.45594000000E+02  0.51100000000E-03 0.  1.
    9900012    2    1    2    0    0 -0.40298765795E+02  0.15690818418E+02  0.12606395589E+02  0.46142317443E+02  0.99999971028E+01 0.  0.
        -12    1    1    2    0    0  0.40298765795E+02 -0.15690818418E+02 -0.12606395589E+02  0.45045682557E+02  0.00000000000E+00 0.  1.
         11    1    3    3    0    0 -0.12093295972E+01  0.20564164341E+01  0.16922240397E+01  0.29248844570E+01  0.51100000000E-03 0. -1.
        -11    1    3    3    0    0 -0.22850851156E+02  0.96991304385E+01  0.89748753935E+01  0.26396645969E+02  0.51100000000E-03 0.  1.
        -12    1    3    3    0    0 -0.16238585043E+02  0.39352715455E+01  0.19392961553E+01  0.16820787018E+02  0.00000000000E+00 0.  1.
</event>
<event>
 7    1  0.3910495E-008  0.4614232E+02  0.7816164E-02  0.1320468E+00
        -11   -1    0    0    0    0  0.00000000000E+00  0.00000000000E+00  0.45593999997E+02  0.45594000000E+02  0.51100000000E-03 0. -1.
         11   -1    0    0    0    0 -0.00000000000E+00 -0.00000000000E+00 -0.45593999997E+02  0.45594000000E+02  0.51100000000E-03 0.  1.
    9900012    2    1    2    0    0 -0.24095583648E+02  0.11427038041E+02  0.36303432050E+02  0.46142317317E+02  0.99999959527E+01 0.  0.
        -12    1    1    2    0    0  0.24095583648E+02 -0.11427038041E+02 -0.36303432050E+02  0.45045682683E+02  0.00000000000E+00 0.  1.
         11    1    3    3    0    0 -0.13220421013E+02  0.90432325563E+01  0.18175677275E+02  0.24226325175E+02  0.51100000000E-03 0. -1.
        -11    1    3    3    0    0 -0.19473510076E+01  0.26750715222E+01  0.60254203999E+01  0.68741453907E+01  0.51100000000E-03 0.  1.
         12    1    3    3    0    0 -0.89278116269E+01 -0.29126603777E+00  0.12102334375E+02  0.15041846751E+02  0.00000000000E+00 0. -1.
</event>
<event>
 7    1  0.3910495E-008  0.4614232E+02  0.7816164E-02  0.1320468E+00
        -11   -1    0    0    0    0  0.00000000000E+00  0.00000000000E+00  0.45593999997E+02  0.45594000000E+02  0.51100000000E-03 0.  1.
         11   -1    0    0    0    0 -0.00000000000E+00 -0.00000000000E+00 -0.45593999997E+02  0.45594000000E+02  0.51100000000E-03 0. -1.
    9900012    2    1    2    0    0 -0.23604564719E+02 -0.34804640195E+02 -0.16142335561E+02  0.46142318164E+02  0.10000003674E+02 0.  0.
        -12    1    1    2    0    0  0.23604564719E+02  0.34804640195E+02  0.16142335561E+02  0.45045681836E+02  0.00000000000E+00 0.  1.
         11    1    3    3    0    0 -0.24553354945E+01 -0.51760590723E+01  0.36187345321E+00  0.57403146750E+01  0.51100000000E-03 0. -1.
        -11    1    3    3    0    0 -0.56965971434E+01 -0.12870305938E+02 -0.66931095219E+01  0.15585047619E+02  0.51100000000E-03 0.  1.
        -12    1    3    3    0    0 -0.15452632081E+02 -0.16758275185E+02 -0.98110994921E+01  0.24816955870E+02  0.00000000000E+00 0.  1.
</event>
<event>
 7    1  0.3910495E-008  0.4614232E+02  0.7816164E-02  0.1320468E+00
        -11   -1    0    0    0    0  0.00000000000E+00  0.00000000000E+00  0.45593999997E+02  0.45594000000E+02  0.51100000000E-03 0. -1.
         11   -1    0    0    0    0 -0.00000000000E+00 -0.00000000000E+00 -0.45593999997E+02  0.45594000000E+02  0.51100000000E-03 0.  1.
    9900012    2    1    2    0    0 -0.30033707906E+02 -0.18098900840E+02  0.28275779151E+02  0.46142317535E+02  0.99999979384E+01 0.  0.
        -12    1    1    2    0    0  0.30033707906E+02  0.18098900840E+02 -0.28275779151E+02  0.45045682465E+02  0.00000000000E+00 0.  1.
         11    1    3    3    0    0 -0.35459787943E+01 -0.10700850169E+01  0.64198670616E+01  0.74117299535E+01  0.51100000000E-03 0.  1.
        -11    1    3    3    0    0 -0.95651222896E+01 -0.65064955916E+01  0.48903076361E+01  0.12559504701E+02  0.51100000000E-03 0. -1.
         12    1    3    3    0    0 -0.16922606822E+02 -0.10522320231E+02  0.16965604453E+02  0.26171082881E+02  0.00000000000E+00 0. -1.
</event>
<event>
 7    1  0.3910495E-008  0.4614232E+02  0.7816164E-02  0.1320468E+00
        -11   -1    0    0    0    0  0.00000000000E+00  0.00000000000E+00  0.45593999997E+02  0.45594000000E+02  0.51100000000E-03 0.  1.
         11   -1    0    0    0    0 -0.00000000000E+00 -0.00000000000E+00 -0.45593999997E+02  0.45594000000E+02  0.51100000000E-03 0. -1.
    9900012    2    1    2    0    0  0.26963863234E+02 -0.26701778169E+02 -0.24270934694E+02  0.46142321530E+02  0.10000034370E+02 0.  0.
        -12    1    1    2    0    0 -0.26963863234E+02  0.26701778169E+02  0.24270934694E+02  0.45045678470E+02  0.00000000000E+00 0.  1.
         11    1    3    3    0    0  0.71619415719E+01 -0.11457201584E+02 -0.10440150160E+02  0.17075058150E+02  0.51100000000E-03 0. -1.
        -11    1    3    3    0    0  0.21624953214E+01 -0.42803208722E+01 -0.24937082279E+01  0.54051932223E+01  0.51100000000E-03 0.  1.
         12    1    3    3    0    0  0.17639426341E+02 -0.10964255713E+02 -0.11337076306E+02  0.23662070157E+02  0.00000000000E+00 0. -1.
</event>
<event>
 7    1  0.3910495E-008  0.4614232E+02  0.7816164E-02  0.1320468E+00
        -11   -1    0    0    0    0  0.00000000000E+00  0.00000000000E+00  0.45593999997E+02  0.45594000000E+02  0.51100000000E-03 0.  1.
         11   -1    0    0    0    0 -0.00000000000E+00 -0.00000000000E+00 -0.45593999997E+02  0.45594000000E+02  0.51100000000E-03 0. -1.
    9900012    2    1    2    0    0 -0.44031004941E+01  0.41698076074E+02 -0.16461976000E+02  0.46142317676E+02  0.99999992247E+01 0.  0.
        -12    1    1    2    0    0  0.44031004941E+01 -0.41698076074E+02  0.16461976000E+02  0.45045682324E+02  0.00000000000E+00 0.  1.
         11    1    3    3    0    0  0.11322433086E+01  0.13252981422E+02 -0.68303213051E+01  0.14952484103E+02  0.51100000000E-03 0.  1.
        -11    1    3    3    0    0 -0.10417937793E+01  0.81396938045E+01 -0.57854661689E+01  0.10040496430E+02  0.51100000000E-03 0. -1.
        -12    1    3    3    0    0 -0.44935500234E+01  0.20305400848E+02 -0.38461885258E+01  0.21149337143E+02  0.00000000000E+00 0.  1.
</event>
<event>
 7    1  0.3910495E-008  0.4614232E+02  0.7816164E-02  0.1320468E+00
        -11   -1    0    0    0    0  0.00000000000E+00  0.00000000000E+00  0.45593999997E+02  0.45594000000E+02  0.51100000000E-03 0. -1.
         11   -1    0    0    0    0 -0.00000000000E+00 -0.00000000000E+00 -0.45593999997E+02  0.45594000000E+02  0.51100000000E-03 0.  1.
    9900012    2    1    2    0    0  0.22774368136E+01  0.39386471625E+02 -0.21740117189E+02  0.46142316956E+02  0.99999926600E+01 0.  0.
        -12    1    1    2    0    0 -0.22774368136E+01 -0.39386471625E+02  0.21740117189E+02  0.45045683044E+02  0.00000000000E+00 0.  1.
         11    1    3    3    0    0  0.29319181778E+01  0.10015097028E+02 -0.79504414906E+01  0.13118987493E+02  0.51100000000E-03 0. -1.
        -11    1    3    3    0    0  0.79945531127E+00  0.17692408307E+01 -0.25020887589E+01  0.31669844222E+01  0.51100000000E-03 0.  1.
         12    1    3    3    0    0 -0.14539366755E+01  0.27602133766E+02 -0.11287586939E+02  0.29856345041E+02  0.00000000000E+00 0. -1.
</event>
<event>
 7    1  0.3910495E-008  0.4614232E+02  0.7816164E-02  0.1320468E+00
        -11   -1    0    0    0    0  0.00000000000E+00  0.00000000000E+00  0.45593999997E+02  0.45594000000E+02  0.51100000000E-03 0. -1.
         11   -1    0    0    0    0 -0.00000000000E+00 -0.00000000000E+00 -0.45593999997E+02  0.45594000000E+02  0.51100000000E-03 0.  1.
    9900012    2    1    2    0    0 -0.33698035570E+02 -0.25817744676E+02 -0.15066514276E+02  0.46142318811E+02  0.10000009570E+02 0.  0.
        -12    1    1    2    0    0  0.33698035570E+02  0.25817744676E+02  0.15066514276E+02  0.45045681189E+02  0.00000000000E+00 0.  1.
         11    1    3    3    0    0 -0.83296305437E+01 -0.99964015527E+01 -0.44100852350E+01  0.13738982533E+02  0.51100000000E-03 0. -1.
        -11    1    3    3    0    0 -0.26260373133E+01 -0.76823902620E+00  0.75644859624E+00  0.28387458343E+01  0.51100000000E-03 0.  1.
         12    1    3    3    0    0 -0.22742367713E+02 -0.15053104097E+02 -0.11412877637E+02  0.29564590443E+02  0.00000000000E+00 0. -1.
</event>
<event>
 7    1  0.3910495E-008  0.4614232E+02  0.7816164E-02  0.1320468E+00
        -11   -1    0    0    0    0  0.00000000000E+00  0.00000000000E+00  0.45593999997E+02  0.45594000000E+02  0.51100000000E-03 0. -1.
         11   -1    0    0    0    0 -0.00000000000E+00 -0.00000000000E+00 -0.45593999997E+02  0.45594000000E+02  0.51100000000E-03 0.  1.
    9900012    2    1    2    0    0  0.33047665524E+02 -0.23549631965E+02  0.19554542961E+02  0.46142317491E+02  0.99999975388E+01 0.  0.
        -12    1    1    2    0    0 -0.33047665524E+02  0.23549631965E+02 -0.19554542961E+02  0.45045682509E+02  0.00000000000E+00 0.  1.
         11    1    3    3    0    0  0.22740284568E+02 -0.19237767619E+02  0.12223701507E+02  0.32196756420E+02  0.51100000000E-03 0. -1.
        -11    1    3    3    0    0  0.11104419856E+01  0.19319067488E+00  0.22430539908E+01  0.25103178099E+01  0.51100000000E-03 0.  1.
         12    1    3    3    0    0  0.91969389704E+01 -0.45050550208E+01  0.50877874636E+01  0.11435243261E+02  0.00000000000E+00 0. -1.
</event>
<event>
 7    1  0.3910495E-008  0.4614232E+02  0.7816164E-02  0.1320468E+00
        -11   -1    0    0    0    0  0.00000000000E+00  0.00000000000E+00  0.45593999997E+02  0.45594000000E+02  0.51100000000E-03 0.  1.
         11   -1    0    0    0    0 -0.00000000000E+00 -0.00000000000E+00 -0.45593999997E+02  0.45594000000E+02  0.51100000000E-03 0. -1.
    9900012    2    1    2    0    0 -0.43425758967E+02  0.53292315514E+01  0.10719901024E+02  0.46142317312E+02  0.99999959084E+01 0.  0.
        -12    1    1    2    0    0  0.43425758967E+02 -0.53292315514E+01 -0.10719901024E+02  0.45045682688E+02  0.00000000000E+00 0.  1.
         11    1    3    3    0    0 -0.18813541577E+02  0.45507988312E+01  0.51483874554E+01  0.20029104082E+02  0.51100000000E-03 0. -1.
        -11    1    3    3    0    0 -0.11585678340E+02  0.16644238845E+01 -0.49707708558E+00  0.11715175430E+02  0.51100000000E-03 0.  1.
        -12    1    3    3    0    0 -0.13026539050E+02 -0.88599116425E+00  0.60685906545E+01  0.14398037801E+02  0.00000000000E+00 0.  1.
</event>
<event>
 7    1  0.3910495E-008  0.4614232E+02  0.7816164E-02  0.1320468E+00
        -11   -1    0    0    0    0  0.00000000000E+00  0.00000000000E+00  0.45593999997E+02  0.45594000000E+02  0.51100000000E-03 0. -1.
         11   -1    0    0    0    0 -0.00000000000E+00 -0.00000000000E+00 -0.45593999997E+02  0.45594000000E+02  0.51100000000E-03 0.  1.
    9900012    2    1    2    0    0  0.20547287359E+02  0.39271584688E+02 -0.80414625436E+01  0.46142317614E+02  0.99999986626E+01 0.  0.
        -12    1    1    2    0    0 -0.20547287359E+02 -0.39271584688E+02  0.80414625436E+01  0.45045682386E+02  0.00000000000E+00 0.  1.
         11    1    3    3    0    0  0.73850944661E+01  0.88757920936E+01 -0.31054013078E+01  0.11956706198E+02  0.51100000000E-03 0. -1.
        -11    1    3    3    0    0  0.36070759091E+00  0.78208129369E+01 -0.19018279844E+01  0.80568092260E+01  0.51100000000E-03 0.  1.
         12    1    3    3    0    0  0.12801485302E+02  0.22574979658E+02 -0.30342332514E+01  0.26128802190E+02  0.00000000000E+00 0. -1.
</event>
<event>
 7    1  0.3910495E-008  0.4614232E+02  0.7816164E-02  0.1320468E+00
        -11   -1    0    0    0    0  0.00000000000E+00  0.00000000000E+00  0.45593999997E+02  0.45594000000E+02  0.51100000000E-03 0. -1.
         11   -1    0    0    0    0 -0.00000000000E+00 -0.00000000000E+00 -0.45593999997E+02  0.45594000000E+02  0.51100000000E-03 0.  1.
    9900012    2    1    2    0    0  0.37179580211E+02  0.86333076121E+01  0.23921917858E+02  0.46142319419E+02  0.10000015121E+02 0.  0.
        -12    1    1    2    0    0 -0.37179580211E+02 -0.86333076121E+01 -0.23921917858E+02  0.45045680581E+02  0.00000000000E+00 0.  1.
         11    1    3    3    0    0  0.13286382647E+02  0.30771139657E+01  0.52279920304E+01  0.14605769242E+02  0.51100000000E-03 0. -1.
        -11    1    3    3    0    0  0.69662993181E+01 -0.43320680315E+00  0.80860590880E+01  0.10681823166E+02  0.51100000000E-03 0.  1.
        -12    1    3    3    0    0  0.16926898245E+02  0.59894004495E+01  0.10607866739E+02  0.20854727011E+02  0.00000000000E+00 0.  1.
</event>
<event>
 7    1  0.4363729E-008  0.4614232E+02  0.7816164E-02  0.1320468E+00
        -11   -1    0    0    0    0  0.00000000000E+00  0.00000000000E+00  0.45593999997E+02  0.45594000000E+02  0.51100000000E-03 0.  1.
         11   -1    0    0    0    0 -0.00000000000E+00 -0.00000000000E+00 -0.45593999997E+02  0.45594000000E+02  0.51100000000E-03 0. -1.
    9900012    2    1    2    0    0 -0.28802905047E+02 -0.14629924723E+02 -0.31392220127E+02  0.46142317399E+02  0.99999966970E+01 0.  0.
        -12    1    1    2    0    0  0.28802905047E+02  0.14629924723E+02  0.31392220127E+02  0.45045682601E+02  0.00000000000E+00 0.  1.
         11    1    3    3    0    0 -0.32969333165E+01 -0.25240508887E+01 -0.64605365102E+01  0.76797873957E+01  0.51100000000E-03 0. -1.
        -11    1    3    3    0    0 -0.10292566329E+01  0.10632622542E+01 -0.15267355503E+01  0.21262214229E+01  0.51100000000E-03 0.  1.
         12    1    3    3    0    0 -0.24476715097E+02 -0.13169136088E+02 -0.23404948066E+02  0.36336308580E+02  0.00000000000E+00 0. -1.
</event>
<event>
 7    1  0.3910495E-008  0.4614232E+02  0.7816164E-02  0.1320468E+00
        -11   -1    0    0    0    0  0.00000000000E+00  0.00000000000E+00  0.45593999997E+02  0.45594000000E+02  0.51100000000E-03 0.  1.
         11   -1    0    0    0    0 -0.00000000000E+00 -0.00000000000E+00 -0.45593999997E+02  0.45594000000E+02  0.51100000000E-03 0. -1.
    9900012    2    1    2    0    0 -0.15859312203E+02  0.20933575731E+01 -0.42109542274E+02  0.46142317854E+02  0.10000000844E+02 0.  0.
        -12    1    1    2    0    0  0.15859312203E+02 -0.20933575731E+01  0.42109542274E+02  0.45045682146E+02  0.00000000000E+00 0.  1.
         11    1    3    3    0    0 -0.83596977748E+01  0.19180239940E+01 -0.16052456351E+02  0.18200129618E+02  0.51100000000E-03 0. -1.
        -11    1    3    3    0    0  0.41854774828E+00 -0.17633218427E+01 -0.66485582778E+01  0.68911402230E+01  0.51100000000E-03 0.  1.
        -12    1    3    3    0    0 -0.79181621762E+01  0.19386554218E+01 -0.19408527645E+02  0.21051048013E+02  0.00000000000E+00 0.  1.
</event>
<event>
 7    1  0.3910495E-008  0.4614232E+02  0.7816164E-02  0.1320468E+00
        -11   -1    0    0    0    0  0.00000000000E+00  0.00000000000E+00  0.45593999997E+02  0.45594000000E+02  0.51100000000E-03 0.  1.
         11   -1    0    0    0    0 -0.00000000000E+00 -0.00000000000E+00 -0.45593999997E+02  0.45594000000E+02  0.51100000000E-03 0. -1.
    9900012    2    1    2    0    0  0.18814349075E+02 -0.27963428686E+02 -0.29886125467E+02  0.46142316851E+02  0.99999916983E+01 0.  0.
        -12    1    1    2    0    0 -0.18814349075E+02  0.27963428686E+02  0.29886125467E+02  0.45045683149E+02  0.00000000000E+00 0.  1.
         11    1    3    3    0    0  0.34081098932E+01 -0.55333272074E+01 -0.21936391983E+01  0.68589340441E+01  0.51100000000E-03 0. -1.
        -11    1    3    3    0    0 -0.25907110098E+00 -0.15186019060E+01 -0.62540604342E+00  0.16626492608E+01  0.51100000000E-03 0.  1.
        -12    1    3    3    0    0  0.15665310283E+02 -0.20911499572E+02 -0.27067080225E+02  0.37620733546E+02  0.00000000000E+00 0.  1.
</event>
<event>
 7    1  0.3910495E-008  0.4614232E+02  0.7816164E-02  0.1320468E+00
        -11   -1    0    0    0    0  0.00000000000E+00  0.00000000000E+00  0.45593999997E+02  0.45594000000E+02  0.51100000000E-03 0.  1.
         11   -1    0    0    0    0 -0.00000000000E+00 -0.00000000000E+00 -0.45593999997E+02  0.45594000000E+02  0.51100000000E-03 0. -1.
    9900012    2    1    2    0    0  0.20432237765E+02  0.26170174294E+02 -0.30442712128E+02  0.46142322246E+02  0.10000040895E+02 0.  0.
        -12    1    1    2    0    0 -0.20432237765E+02 -0.26170174294E+02  0.30442712128E+02  0.45045677754E+02  0.00000000000E+00 0.  1.
         11    1    3    3    0    0  0.15813499401E+02  0.18158081504E+02 -0.22362067920E+02  0.32860991603E+02  0.51100000000E-03 0. -1.
        -11    1    3    3    0    0  0.38994432865E+01  0.24195216993E+01 -0.20528183975E+01  0.50273061208E+01  0.51100000000E-03 0.  1.
         12    1    3    3    0    0  0.71929507732E+00  0.55925710907E+01 -0.60278258106E+01  0.82540245224E+01  0.00000000000E+00 0. -1.
</event>
<event>
 7    1  0.3910495E-008  0.4614232E+02  0.7816164E-02  0.1320468E+00
        -11   -1    0    0    0    0  0.00000000000E+00  0.00000000000E+00  0.45593999997E+02  0.45594000000E+02  0.51100000000E-03 0.  1.
         11   -1    0    0    0    0 -0.00000000000E+00 -0.00000000000E+00 -0.45593999997E+02  0.45594000000E+02  0.51100000000E-03 0. -1.
    9900012    2    1    2    0    0 -0.31799661240E+02  0.29686903214E+02 -0.11686860991E+02  0.46142318773E+02  0.10000009226E+02 0.  0.
        -12    1    1    2    0    0  0.31799661240E+02 -0.29686903214E+02  0.11686860991E+02  0.45045681227E+02  0.00000000000E+00 0.  1.
         11    1    3    3    0    0 -0.18110439142E+02  0.16122653917E+02 -0.52508946644E+01  0.24809269846E+02  0.51100000000E-03 0. -1.
        -11    1    3    3    0    0 -0.50302722159E+01  0.95314755051E+01 -0.37396396986E+01  0.11407785465E+02  0.51100000000E-03 0.  1.
        -12    1    3    3    0    0 -0.86589498822E+01  0.40327737914E+01 -0.26963266276E+01  0.99252634624E+01  0.00000000000E+00 0.  1.
</event>
<event>
 7    1  0.3910495E-008  0.4614232E+02  0.7816164E-02  0.1320468E+00
        -11   -1    0    0    0    0  0.00000000000E+00  0.00000000000E+00  0.45593999997E+02  0.45594000000E+02  0.51100000000E-03 0. -1.
         11   -1    0    0    0    0 -0.00000000000E+00 -0.00000000000E+00 -0.45593999997E+02  0.45594000000E+02  0.51100000000E-03 0.  1.
    9900012    2    1    2    0    0 -0.44800027045E+02 -0.45649393959E+01 -0.11101297643E+01  0.46142317820E+02  0.10000000539E+02 0.  0.
        -12    1    1    2    0    0  0.44800027045E+02  0.45649393959E+01  0.11101297643E+01  0.45045682180E+02  0.00000000000E+00 0.  1.
         11    1    3    3    0    0 -0.69014675208E+00  0.24140535979E-01  0.14776826960E+00  0.70620183199E+00  0.51100000000E-03 0. -1.
        -11    1    3    3    0    0 -0.12610673618E+02  0.30488042448E+01 -0.11392195205E+01  0.13023905628E+02  0.51100000000E-03 0.  1.
        -12    1    3    3    0    0 -0.31499206675E+02 -0.76378841767E+01 -0.11867851339E+00  0.32412210360E+02  0.00000000000E+00 0.  1.
</event>
<event>
 7    1  0.3910495E-008  0.4614232E+02  0.7816164E-02  0.1320468E+00
        -11   -1    0    0    0    0  0.00000000000E+00  0.00000000000E+00  0.45593999997E+02  0.45594000000E+02  0.51100000000E-03 0.  1.
         11   -1    0    0    0    0 -0.00000000000E+00 -0.00000000000E+00 -0.45593999997E+02  0.45594000000E+02  0.51100000000E-03 0. -1.
    9900012    2    1    2    0    0 -0.24055435913E+02  0.34112683219E+02 -0.16934412475E+02  0.46142317863E+02  0.10000000925E+02 0.  0.
        -12    1    1    2    0    0  0.24055435913E+02 -0.34112683219E+02  0.16934412475E+02  0.45045682137E+02  0.00000000000E+00 0.  1.
         11    1    3    3    0    0 -0.12810878187E+02  0.14058683176E+02 -0.69934608380E+01  0.20265084932E+02  0.51100000000E-03 0.  1.
        -11    1    3    3    0    0 -0.81482523361E+01  0.15817091618E+02 -0.45740074078E+01  0.18371062773E+02  0.51100000000E-03 0. -1.
         12    1    3    3    0    0 -0.30963053905E+01  0.42369084248E+01 -0.53669442289E+01  0.75061701571E+01  0.00000000000E+00 0. -1.
</event>
<event>
 7    1  0.3910495E-008  0.4614232E+02  0.7816164E-02  0.1320468E+00
        -11   -1    0    0    0    0  0.00000000000E+00  0.00000000000E+00  0.45593999997E+02  0.45594000000E+02  0.51100000000E-03 0.  1.
         11   -1    0    0    0    0 -0.00000000000E+00 -0.00000000000E+00 -0.45593999997E+02  0.45594000000E+02  0.51100000000E-03 0. -1.
    9900012    2    1    2    0    0 -0.33499088633E+02  0.14835660957E+02 -0.26207398583E+02  0.46142317457E+02  0.99999972286E+01 0.  0.
        -12    1    1    2    0    0  0.33499088633E+02 -0.14835660957E+02  0.26207398583E+02  0.45045682543E+02  0.00000000000E+00 0.  1.
         11    1    3    3    0    0 -0.29111091217E+01  0.11592366694E+01 -0.60375864511E+01  0.68022670037E+01  0.51100000000E-03 0. -1.
        -11    1    3    3    0    0 -0.57062546154E+01  0.20698290342E+01 -0.18968177355E+01  0.63595166286E+01  0.51100000000E-03 0.  1.
        -12    1    3    3    0    0 -0.24881724896E+02  0.11606595253E+02 -0.18272994396E+02  0.32980533825E+02  0.00000000000E+00 0.  1.
</event>
<event>
 7    1  0.3910495E-008  0.4614232E+02  0.7816164E-02  0.1320468E+00
        -11   -1    0    0    0    0  0.00000000000E+00  0.00000000000E+00  0.45593999997E+02  0.45594000000E+02  0.51100000000E-03 0. -1.
         11   -1    0    0    0    0 -0.00000000000E+00 -0.00000000000E+00 -0.45593999997E+02  0.45594000000E+02  0.51100000000E-03 0.  1.
    9900012    2    1    2    0    0 -0.76735716107E+01  0.23597229837E+01  0.44324502251E+02  0.46142317703E+02  0.99999994676E+01 0.  0.
        -12    1    1    2    0    0  0.76735716107E+01 -0.23597229837E+01 -0.44324502251E+02  0.45045682297E+02  0.00000000000E+00 0.  1.
         11    1    3    3    0    0  0.10765736495E+01  0.11806857098E+00  0.51267244543E+01  0.52398716494E+01  0.51100000000E-03 0. -1.
        -11    1    3    3    0    0  0.67976027773E+00  0.19233517378E+01  0.44296017780E+01  0.48767538502E+01  0.51100000000E-03 0.  1.
         12    1    3    3    0    0 -0.94299055379E+01  0.31830267490E+00  0.34768176019E+02  0.36025692203E+02  0.00000000000E+00 0. -1.
</event>
<event>
 7    1  0.3910495E-008  0.4614232E+02  0.7816164E-02  0.1320468E+00
        -11   -1    0    0    0    0  0.00000000000E+00  0.00000000000E+00  0.45593999997E+02  0.45594000000E+02  0.51100000000E-03 0. -1.
         11   -1    0    0    0    0 -0.00000000000E+00 -0.00000000000E+00 -0.45593999997E+02  0.45594000000E+02  0.51100000000E-03 0.  1.
    9900012    2    1    2    0    0 -0.36987066482E+02 -0.91342813177E+00  0.25695057943E+02  0.46142318291E+02  0.10000004836E+02 0.  0.
        -12    1    1    2    0    0  0.36987066482E+02  0.91342813177E+00 -0.25695057943E+02  0.45045681709E+02  0.00000000000E+00 0.  1.
         11    1    3    3    0    0 -0.44968668734E+01 -0.32239108310E-01  0.35488270081E+01  0.57286145299E+01  0.51100000000E-03 0. -1.
        -11    1    3    3    0    0 -0.26383189253E+02  0.26432968780E+01  0.15441844321E+02  0.30684039008E+02  0.51100000000E-03 0.  1.
         12    1    3    3    0    0 -0.61070103559E+01 -0.35244859014E+01  0.67043866136E+01  0.97296647538E+01  0.00000000000E+00 0. -1.
</event>
<event>
 7    1  0.3910495E-008  0.4614232E+02  0.7816164E-02  0.1320468E+00
        -11   -1    0    0    0    0  0.00000000000E+00  0.00000000000E+00  0.45593999997E+02  0.45594000000E+02  0.51100000000E-03 0.  1.
         11   -1    0    0    0    0 -0.00000000000E+00 -0.00000000000E+00 -0.45593999997E+02  0.45594000000E+02  0.51100000000E-03 0. -1.
    9900012    2    1    2    0    0  0.88328936999E+01 -0.44136108118E+01 -0.43950124444E+02  0.46142318630E+02  0.10000007920E+02 0.  0.
        -12    1    1    2    0    0 -0.88328936999E+01  0.44136108118E+01  0.43950124444E+02  0.45045681370E+02  0.00000000000E+00 0.  1.
         11    1    3    3    0    0  0.25251330112E+01 -0.33693035340E+01 -0.16648675365E+02  0.17172853424E+02  0.51100000000E-03 0. -1.
        -11    1    3    3    0    0  0.71518038694E+01  0.80996666583E+00 -0.16875183896E+02  0.18346012547E+02  0.51100000000E-03 0.  1.
        -12    1    3    3    0    0 -0.84404318066E+00 -0.18542739436E+01 -0.10426265182E+02  0.10623452659E+02  0.00000000000E+00 0.  1.
</event>
<event>
 7    1  0.3910495E-008  0.4614232E+02  0.7816164E-02  0.1320468E+00
        -11   -1    0    0    0    0  0.00000000000E+00  0.00000000000E+00  0.45593999997E+02  0.45594000000E+02  0.51100000000E-03 0. -1.
         11   -1    0    0    0    0 -0.00000000000E+00 -0.00000000000E+00 -0.45593999997E+02  0.45594000000E+02  0.51100000000E-03 0.  1.
    9900012    2    1    2    0    0 -0.40888022576E+02  0.13739916295E+02 -0.12980672392E+02  0.46142317124E+02  0.99999941907E+01 0.  0.
        -12    1    1    2    0    0  0.40888022576E+02 -0.13739916295E+02  0.12980672392E+02  0.45045682876E+02  0.00000000000E+00 0.  1.
         11    1    3    3    0    0 -0.61726202798E+01  0.29408112023E+01  0.73482113512E+00  0.68767415255E+01  0.51100000000E-03 0. -1.
        -11    1    3    3    0    0 -0.11584412796E+02  0.25021316272E+01 -0.71043953715E+01  0.13817804325E+02  0.51100000000E-03 0.  1.
        -12    1    3    3    0    0 -0.23130989501E+02  0.82969734652E+01 -0.66110981561E+01  0.25447771274E+02  0.00000000000E+00 0.  1.
</event>
<event>
 7    1  0.3910495E-008  0.4614232E+02  0.7816164E-02  0.1320468E+00
        -11   -1    0    0    0    0  0.00000000000E+00  0.00000000000E+00  0.45593999997E+02  0.45594000000E+02  0.51100000000E-03 0.  1.
         11   -1    0    0    0    0 -0.00000000000E+00 -0.00000000000E+00 -0.45593999997E+02  0.45594000000E+02  0.51100000000E-03 0. -1.
    9900012    2    1    2    0    0  0.20939931577E+02 -0.15156763855E+02 -0.36890449818E+02  0.46142317490E+02  0.99999975238E+01 0.  0.
        -12    1    1    2    0    0 -0.20939931577E+02  0.15156763855E+02  0.36890449818E+02  0.45045682510E+02  0.00000000000E+00 0.  1.
         11    1    3    3    0    0  0.14979869425E+02 -0.11314461079E+02 -0.28714365722E+02  0.34306388859E+02  0.51100000000E-03 0. -1.
        -11    1    3    3    0    0  0.36110638845E+01  0.11895194001E+00 -0.19931616227E+01  0.41263331733E+01  0.51100000000E-03 0.  1.
        -12    1    3    3    0    0  0.23489982672E+01 -0.39612547166E+01 -0.61829224742E+01  0.77095954570E+01  0.00000000000E+00 0.  1.
</event>
<event>
 7    1  0.3910495E-008  0.4614232E+02  0.7816164E-02  0.1320468E+00
        -11   -1    0    0    0    0  0.00000000000E+00  0.00000000000E+00  0.45593999997E+02  0.45594000000E+02  0.51100000000E-03 0. -1.
         11   -1    0    0    0    0 -0.00000000000E+00 -0.00000000000E+00 -0.45593999997E+02  0.45594000000E+02  0.51100000000E-03 0.  1.
    9900012    2    1    2    0    0  0.86510681762E+01 -0.27010178473E+02  0.34996038817E+02  0.46142318136E+02  0.10000003414E+02 0.  0.
        -12    1    1    2    0    0 -0.86510681762E+01  0.27010178473E+02 -0.34996038817E+02  0.45045681864E+02  0.00000000000E+00 0.  1.
         11    1    3    3    0    0 -0.38299103387E+00 -0.27956075507E+00  0.35176987225E+01  0.35495127710E+01  0.51100000000E-03 0. -1.
        -11    1    3    3    0    0 -0.13694235118E-01 -0.80828051408E+00  0.26988882640E+01  0.28173574577E+01  0.51100000000E-03 0.  1.
         12    1    3    3    0    0  0.90477534452E+01 -0.25922337204E+02  0.28779451831E+02  0.39775447907E+02  0.00000000000E+00 0. -1.
</event>
<event>
 7    1  0.3910495E-008  0.4614232E+02  0.7816164E-02  0.1320468E+00
        -11   -1    0    0    0    0  0.00000000000E+00  0.00000000000E+00  0.45593999997E+02  0.45594000000E+02  0.51100000000E-03 0.  1.
         11   -1    0    0    0    0 -0.00000000000E+00 -0.00000000000E+00 -0.45593999997E+02  0.45594000000E+02  0.51100000000E-03 0. -1.
    9900012    2    1    2    0    0  0.35647089422E+02 -0.18871497819E+02 -0.20056547640E+02  0.46142317438E+02  0.99999970572E+01 0.  0.
        -12    1    1    2    0    0 -0.35647089422E+02  0.18871497819E+02  0.20056547640E+02  0.45045682562E+02  0.00000000000E+00 0.  1.
         11    1    3    3    0    0  0.14878298643E+02 -0.97978060583E+01 -0.96074122946E+01  0.20240136989E+02  0.51100000000E-03 0. -1.
        -11    1    3    3    0    0  0.18953690327E+02 -0.78841588075E+01 -0.67425816175E+01  0.21607053114E+02  0.51100000000E-03 0.  1.
        -12    1    3    3    0    0  0.18151004521E+01 -0.11895329532E+01 -0.37065537274E+01  0.42951273359E+01  0.00000000000E+00 0.  1.
</event>
<event>
 7    1  0.3910495E-008  0.4614232E+02  0.7816164E-02  0.1320468E+00
        -11   -1    0    0    0    0  0.00000000000E+00  0.00000000000E+00  0.45593999997E+02  0.45594000000E+02  0.51100000000E-03 0. -1.
         11   -1    0    0    0    0 -0.00000000000E+00 -0.00000000000E+00 -0.45593999997E+02  0.45594000000E+02  0.51100000000E-03 0.  1.
    9900012    2    1    2    0    0 -0.10844018079E+02  0.23178551055E+02  0.37071223642E+02  0.46142316750E+02  0.99999907812E+01 0.  0.
        -12    1    1    2    0    0  0.10844018079E+02 -0.23178551055E+02 -0.37071223642E+02  0.45045683250E+02  0.00000000000E+00 0.  1.
         11    1    3    3    0    0 -0.13589355170E+01  0.77599518311E+01  0.14502086369E+02  0.16503759192E+02  0.51100000000E-03 0. -1.
        -11    1    3    3    0    0 -0.88230328769E+01  0.86654229414E+01  0.15664646540E+02  0.19957871013E+02  0.51100000000E-03 0.  1.
        -12    1    3    3    0    0 -0.66204968469E+00  0.67531762824E+01  0.69044907340E+01  0.96806865450E+01  0.00000000000E+00 0.  1.
</event>
<event>
 7    1  0.3910495E-008  0.4614232E+02  0.7816164E-02  0.1320468E+00
        -11   -1    0    0    0    0  0.00000000000E+00  0.00000000000E+00  0.45593999997E+02  0.45594000000E+02  0.51100000000E-03 0.  1.
         11   -1    0    0    0    0 -0.00000000000E+00 -0.00000000000E+00 -0.45593999997E+02  0.45594000000E+02  0.51100000000E-03 0. -1.
    9900012    2    1    2    0    0  0.25106944337E+02  0.35317011192E+02 -0.12307054358E+02  0.46142317405E+02  0.99999967546E+01 0.  0.
        -12    1    1    2    0    0 -0.25106944337E+02 -0.35317011192E+02  0.12307054358E+02  0.45045682595E+02  0.00000000000E+00 0.  1.
         11    1    3    3    0    0  0.13429702397E+02  0.13735077049E+02 -0.56633312143E+01  0.20027045931E+02  0.51100000000E-03 0.  1.
        -11    1    3    3    0    0  0.30038463546E+01  0.44896200158E+01 -0.40970593883E+01  0.67797991637E+01  0.51100000000E-03 0. -1.
        -12    1    3    3    0    0  0.86733955857E+01  0.17092314127E+02 -0.25466637554E+01  0.19335472311E+02  0.00000000000E+00 0.  1.
</event>
<event>
 7    1  0.3910495E-008  0.4614232E+02  0.7816164E-02  0.1320468E+00
        -11   -1    0    0    0    0  0.00000000000E+00  0.00000000000E+00  0.45593999997E+02  0.45594000000E+02  0.51100000000E-03 0.  1.
         11   -1    0    0    0    0 -0.00000000000E+00 -0.00000000000E+00 -0.45593999997E+02  0.45594000000E+02  0.51100000000E-03 0. -1.
    9900012    2    1    2    0    0 -0.56464738940E+01  0.30171974828E+02 -0.32967904565E+02  0.46142318033E+02  0.10000002480E+02 0.  0.
        -12    1    1    2    0    0  0.56464738940E+01 -0.30171974828E+02  0.32967904565E+02  0.45045681967E+02  0.00000000000E+00 0.  1.
         11    1    3    3    0    0 -0.62464118431E+01  0.24568334809E+02 -0.26388316422E+02  0.36591856745E+02  0.51100000000E-03 0. -1.
        -11    1    3    3    0    0 -0.18595530468E+00  0.53303170604E+01 -0.35458321765E+01  0.64046690332E+01  0.51100000000E-03 0.  1.
        -12    1    3    3    0    0  0.78589325373E+00  0.27332295842E+00 -0.30337559666E+01  0.31457922548E+01  0.00000000000E+00 0.  1.
</event>
<event>
 7    1  0.3910495E-008  0.4614232E+02  0.7816164E-02  0.1320468E+00
        -11   -1    0    0    0    0  0.00000000000E+00  0.00000000000E+00  0.45593999997E+02  0.45594000000E+02  0.51100000000E-03 0.  1.
         11   -1    0    0    0    0 -0.00000000000E+00 -0.00000000000E+00 -0.45593999997E+02  0.45594000000E+02  0.51100000000E-03 0. -1.
    9900012    2    1    2    0    0  0.28482029126E+02  0.31857748544E+02 -0.14246801712E+02  0.46142317805E+02  0.10000000403E+02 0.  0.
        -12    1    1    2    0    0 -0.28482029126E+02 -0.31857748544E+02  0.14246801712E+02  0.45045682195E+02  0.00000000000E+00 0.  1.
         11    1    3    3    0    0  0.15996301278E+02  0.18087691366E+02 -0.42942190642E+01  0.24525222755E+02  0.51100000000E-03 0. -1.
        -11    1    3    3    0    0 -0.22078656953E+00  0.46647636105E+00  0.25773185652E+00  0.57686469444E+00  0.51100000000E-03 0.  1.
        -12    1    3    3    0    0  0.12706514417E+02  0.13303580817E+02 -0.10210314504E+02  0.21040230356E+02  0.00000000000E+00 0.  1.
</event>
<event>
 7    1  0.3910495E-008  0.4614232E+02  0.7816164E-02  0.1320468E+00
        -11   -1    0    0    0    0  0.00000000000E+00  0.00000000000E+00  0.45593999997E+02  0.45594000000E+02  0.51100000000E-03 0.  1.
         11   -1    0    0    0    0 -0.00000000000E+00 -0.00000000000E+00 -0.45593999997E+02  0.45594000000E+02  0.51100000000E-03 0. -1.
    9900012    2    1    2    0    0  0.18101084672E+02  0.23043703236E+02 -0.34211868248E+02  0.46142318140E+02  0.10000003458E+02 0.  0.
        -12    1    1    2    0    0 -0.18101084672E+02 -0.23043703236E+02  0.34211868248E+02  0.45045681860E+02  0.00000000000E+00 0.  1.
         11    1    3    3    0    0  0.10886416168E+01  0.43932518685E+00 -0.53528639726E+01  0.54800821307E+01  0.51100000000E-03 0.  1.
        -11    1    3    3    0    0  0.42861268406E+01  0.71593412852E+01 -0.11240601128E+02  0.13999220154E+02  0.51100000000E-03 0. -1.
        -12    1    3    3    0    0  0.12726316215E+02  0.15445036764E+02 -0.17618403148E+02  0.26663015856E+02  0.00000000000E+00 0.  1.
</event>
<event>
 7    1  0.3910495E-008  0.4614232E+02  0.7816164E-02  0.1320468E+00
        -11   -1    0    0    0    0  0.00000000000E+00  0.00000000000E+00  0.45593999997E+02  0.45594000000E+02  0.51100000000E-03 0.  1.
         11   -1    0    0    0    0 -0.00000000000E+00 -0.00000000000E+00 -0.45593999997E+02  0.45594000000E+02  0.51100000000E-03 0. -1.
    9900012    2    1    2    0    0 -0.14209328758E+02 -0.42707693250E+02 -0.18059027754E+01  0.46142319060E+02  0.10000011843E+02 0.  0.
        -12    1    1    2    0    0  0.14209328758E+02  0.42707693250E+02  0.18059027754E+01  0.45045680940E+02  0.00000000000E+00 0.  1.
         11    1    3    3    0    0 -0.54346537003E+01 -0.25091462389E+02 -0.45043414681E+01  0.26065418431E+02  0.51100000000E-03 0. -1.
        -11    1    3    3    0    0 -0.26825769511E+01 -0.46281683079E+01 -0.51948513581E+00  0.53745721739E+01  0.51100000000E-03 0.  1.
         12    1    3    3    0    0 -0.60920981064E+01 -0.12988062554E+02  0.32179238285E+01  0.14702328455E+02  0.00000000000E+00 0. -1.
</event>
<event>
 7    1  0.3910495E-008  0.4614232E+02  0.7816164E-02  0.1320468E+00
        -11   -1    0    0    0    0  0.00000000000E+00  0.00000000000E+00  0.45593999997E+02  0.45594000000E+02  0.51100000000E-03 0.  1.
         11   -1    0    0    0    0 -0.00000000000E+00 -0.00000000000E+00 -0.45593999997E+02  0.45594000000E+02  0.51100000000E-03 0. -1.
    9900012    2    1    2    0    0 -0.42434635415E+02 -0.13700561892E+02 -0.63804198949E+01  0.46142318332E+02  0.10000005204E+02 0.  0.
        -12    1    1    2    0    0  0.42434635415E+02  0.13700561892E+02  0.63804198949E+01  0.45045681668E+02  0.00000000000E+00 0.  1.
         11    1    3    3    0    0 -0.16196019602E+02 -0.14247115354E+01 -0.99673307549E-03  0.16258562518E+02  0.51100000000E-03 0. -1.
        -11    1    3    3    0    0 -0.53927169950E+01 -0.38321342207E+01 -0.48650252068E+00  0.66335009036E+01  0.51100000000E-03 0.  1.
         12    1    3    3    0    0 -0.20845898818E+02 -0.84437161355E+01 -0.58929206411E+01  0.23250254910E+02  0.00000000000E+00 0. -1.
</event>
<event>
 7    1  0.3910495E-008  0.4614232E+02  0.7816164E-02  0.1320468E+00
        -11   -1    0    0    0    0  0.00000000000E+00  0.00000000000E+00  0.45593999997E+02  0.45594000000E+02  0.51100000000E-03 0. -1.
         11   -1    0    0    0    0 -0.00000000000E+00 -0.00000000000E+00 -0.45593999997E+02  0.45594000000E+02  0.51100000000E-03 0.  1.
    9900012    2    1    2    0    0 -0.44688721328E+02  0.39848356840E-02 -0.56596514090E+01  0.46142317811E+02  0.10000000455E+02 0.  0.
        -12    1    1    2    0    0  0.44688721328E+02 -0.39848356840E-02  0.56596514090E+01  0.45045682189E+02  0.00000000000E+00 0.  1.
         11    1    3    3    0    0 -0.10432599088E+02 -0.20825670509E+01 -0.21542796149E+01  0.10854359961E+02  0.51100000000E-03 0. -1.
        -11    1    3    3    0    0 -0.50143476460E+01 -0.19341332557E+01 -0.19939164837E+01  0.57323866732E+01  0.51100000000E-03 0.  1.
         12    1    3    3    0    0 -0.29241774594E+02  0.40206851423E+01 -0.15114553104E+01  0.29555571176E+02  0.00000000000E+00 0. -1.
</event>
<event>
 7    1  0.3910495E-008  0.4614232E+02  0.7816164E-02  0.1320468E+00
        -11   -1    0    0    0    0  0.00000000000E+00  0.00000000000E+00  0.45593999997E+02  0.45594000000E+02  0.51100000000E-03 0.  1.
         11   -1    0    0    0    0 -0.00000000000E+00 -0.00000000000E+00 -0.45593999997E+02  0.45594000000E+02  0.51100000000E-03 0. -1.
    9900012    2    1    2    0    0  0.15239100177E+02 -0.42297271950E+02 -0.27971511833E+01  0.46142318261E+02  0.10000004554E+02 0.  0.
        -12    1    1    2    0    0 -0.15239100177E+02  0.42297271950E+02  0.27971511833E+01  0.45045681739E+02  0.00000000000E+00 0.  1.
         11    1    3    3    0    0  0.11609655856E+02 -0.26870111743E+02 -0.54319906897E+01  0.29770682513E+02  0.51100000000E-03 0. -1.
        -11    1    3    3    0    0  0.28184077966E+01 -0.65255433935E+01  0.21515907621E+00  0.71114297280E+01  0.51100000000E-03 0.  1.
         12    1    3    3    0    0  0.81103652499E+00 -0.89016168133E+01  0.24196804301E+01  0.92602060193E+01  0.00000000000E+00 0. -1.
</event>
<event>
 7    1  0.3910495E-008  0.4614232E+02  0.7816164E-02  0.1320468E+00
        -11   -1    0    0    0    0  0.00000000000E+00  0.00000000000E+00  0.45593999997E+02  0.45594000000E+02  0.51100000000E-03 0.  1.
         11   -1    0    0    0    0 -0.00000000000E+00 -0.00000000000E+00 -0.45593999997E+02  0.45594000000E+02  0.51100000000E-03 0. -1.
    9900012    2    1    2    0    0  0.12385872364E+02 -0.31237916640E+02 -0.29998262275E+02  0.46142323074E+02  0.10000048446E+02 0.  0.
        -12    1    1    2    0    0 -0.12385872364E+02  0.31237916640E+02  0.29998262275E+02  0.45045676926E+02  0.00000000000E+00 0.  1.
         11    1    3    3    0    0  0.41211203317E+01 -0.11511188610E+02 -0.10456213870E+02  0.16087992564E+02  0.51100000000E-03 0. -1.
        -11    1    3    3    0    0  0.77635386891E+01 -0.18788405457E+02 -0.20314670935E+02  0.28739564507E+02  0.51100000000E-03 0.  1.
        -12    1    3    3    0    0  0.50121334280E+00 -0.93832257386E+00  0.77262253028E+00  0.13147660027E+01  0.00000000000E+00 0.  1.
</event>
<event>
 7    1  0.3910495E-008  0.4614232E+02  0.7816164E-02  0.1320468E+00
        -11   -1    0    0    0    0  0.00000000000E+00  0.00000000000E+00  0.45593999997E+02  0.45594000000E+02  0.51100000000E-03 0. -1.
         11   -1    0    0    0    0 -0.00000000000E+00 -0.00000000000E+00 -0.45593999997E+02  0.45594000000E+02  0.51100000000E-03 0.  1.
    9900012    2    1    2    0    0 -0.24431707376E+02 -0.60229926727E+01  0.37362129828E+02  0.46142317506E+02  0.99999976783E+01 0.  0.
        -12    1    1    2    0    0  0.24431707376E+02  0.60229926727E+01 -0.37362129828E+02  0.45045682494E+02  0.00000000000E+00 0.  1.
         11    1    3    3    0    0 -0.19276563915E+02 -0.28116831856E+01  0.26657022870E+02  0.33016485992E+02  0.51100000000E-03 0. -1.
        -11    1    3    3    0    0 -0.34866983209E+01  0.48234555898E+00  0.44759042951E+01  0.56941585804E+01  0.51100000000E-03 0.  1.
         12    1    3    3    0    0 -0.16684451397E+01 -0.36936550462E+01  0.62292026627E+01  0.74316729340E+01  0.00000000000E+00 0. -1.
</event>
<event>
 7    1  0.3910495E-008  0.4614232E+02  0.7816164E-02  0.1320468E+00
        -11   -1    0    0    0    0  0.00000000000E+00  0.00000000000E+00  0.45593999997E+02  0.45594000000E+02  0.51100000000E-03 0. -1.
         11   -1    0    0    0    0 -0.00000000000E+00 -0.00000000000E+00 -0.45593999997E+02  0.45594000000E+02  0.51100000000E-03 0.  1.
    9900012    2    1    2    0    0  0.31358630439E+02 -0.96381932417E+01  0.30868350006E+02  0.46142317587E+02  0.99999984152E+01 0.  0.
        -12    1    1    2    0    0 -0.31358630439E+02  0.96381932417E+01 -0.30868350006E+02  0.45045682413E+02  0.00000000000E+00 0.  1.
         11    1    3    3    0    0  0.13500757415E+02 -0.19668550691E+01  0.17005284237E+02  0.21801804097E+02  0.51100000000E-03 0. -1.
        -11    1    3    3    0    0  0.88955111199E+01 -0.12590848879E+01  0.64251736258E+01  0.11045282668E+02  0.51100000000E-03 0.  1.
         12    1    3    3    0    0  0.89623619040E+01 -0.64122532847E+01  0.74378921426E+01  0.13295230822E+02  0.00000000000E+00 0. -1.
</event>
<event>
 7    1  0.3910495E-008  0.4614232E+02  0.7816164E-02  0.1320468E+00
        -11   -1    0    0    0    0  0.00000000000E+00  0.00000000000E+00  0.45593999997E+02  0.45594000000E+02  0.51100000000E-03 0.  1.
         11   -1    0    0    0    0 -0.00000000000E+00 -0.00000000000E+00 -0.45593999997E+02  0.45594000000E+02  0.51100000000E-03 0. -1.
    9900012    2    1    2    0    0  0.33930132836E+02  0.27997623939E+02 -0.96949920775E+01  0.46142315058E+02  0.99999753491E+01 0.  0.
        -12    1    1    2    0    0 -0.33930132836E+02 -0.27997623939E+02  0.96949920775E+01  0.45045684942E+02  0.00000000000E+00 0.  1.
         11    1    3    3    0    0  0.27635390387E+02  0.24775994462E+02 -0.11000475919E+02  0.38711434669E+02  0.51100000000E-03 0. -1.
        -11    1    3    3    0    0  0.34113265702E+01  0.27666920343E+01  0.66400665752E+00  0.44421435010E+01  0.51100000000E-03 0.  1.
         12    1    3    3    0    0  0.28834158790E+01  0.45493744338E+00  0.64147718397E+00  0.29887368881E+01  0.00000000000E+00 0. -1.
</event>
<event>
 7    1  0.3910495E-008  0.4614232E+02  0.7816164E-02  0.1320468E+00
        -11   -1    0    0    0    0  0.00000000000E+00  0.00000000000E+00  0.45593999997E+02  0.45594000000E+02  0.51100000000E-03 0. -1.
         11   -1    0    0    0    0 -0.00000000000E+00 -0.00000000000E+00 -0.45593999997E+02  0.45594000000E+02  0.51100000000E-03 0.  1.
    9900012    2    1    2    0    0  0.38652544805E+02  0.32726523616E+00  0.23129789802E+02  0.46142317646E+02  0.99999989514E+01 0.  0.
        -12    1    1    2    0    0 -0.38652544805E+02 -0.32726523616E+00 -0.23129789802E+02  0.45045682354E+02  0.00000000000E+00 0.  1.
         11    1    3    3    0    0  0.12222337498E+02 -0.21021108738E+01  0.48846317016E+01  0.13329067153E+02  0.51100000000E-03 0. -1.
        -11    1    3    3    0    0  0.31263885249E+01  0.23328393121E+01  0.34640351916E+01  0.52168941464E+01  0.51100000000E-03 0.  1.
        -12    1    3    3    0    0  0.23303818782E+02  0.96536797842E-01  0.14781122908E+02  0.27596356347E+02  0.00000000000E+00 0.  1.
</event>
<event>
 7    1  0.3910495E-008  0.4614232E+02  0.7816164E-02  0.1320468E+00
        -11   -1    0    0    0    0  0.00000000000E+00  0.00000000000E+00  0.45593999997E+02  0.45594000000E+02  0.51100000000E-03 0.  1.
         11   -1    0    0    0    0 -0.00000000000E+00 -0.00000000000E+00 -0.45593999997E+02  0.45594000000E+02  0.51100000000E-03 0. -1.
    9900012    2    1    2    0    0  0.19660690770E+02 -0.21023852098E+02 -0.34649219669E+02  0.46142317163E+02  0.99999945495E+01 0.  0.
        -12    1    1    2    0    0 -0.19660690770E+02  0.21023852098E+02  0.34649219669E+02  0.45045682837E+02  0.00000000000E+00 0.  1.
         11    1    3    3    0    0  0.15328289364E+02 -0.11245717826E+02 -0.19434793080E+02  0.27187015404E+02  0.51100000000E-03 0. -1.
        -11    1    3    3    0    0  0.34353333516E+01 -0.66369334873E+01 -0.75476485710E+01  0.10621553585E+02  0.51100000000E-03 0.  1.
        -12    1    3    3    0    0  0.89706805457E+00 -0.31412007841E+01 -0.76667780179E+01  0.83337481745E+01  0.00000000000E+00 0.  1.
</event>
<event>
 7    1  0.3910495E-008  0.4614231E+02  0.7816164E-02  0.1320468E+00
        -11   -1    0    0    0    0  0.00000000000E+00  0.00000000000E+00  0.45593999997E+02  0.45594000000E+02  0.51100000000E-03 0.  1.
         11   -1    0    0    0    0 -0.00000000000E+00 -0.00000000000E+00 -0.45593999997E+02  0.45594000000E+02  0.51100000000E-03 0. -1.
    9900012    2    1    2    0    0 -0.36173781588E+02 -0.22159938173E+02 -0.15149539576E+02  0.46142313374E+02  0.99999599982E+01 0.  0.
        -12    1    1    2    0    0  0.36173781588E+02  0.22159938173E+02  0.15149539576E+02  0.45045686626E+02  0.00000000000E+00 0.  1.
         11    1    3    3    0    0 -0.17755865703E+02 -0.97363994242E+01 -0.29518062314E+01  0.20464149162E+02  0.51100000000E-03 0. -1.
        -11    1    3    3    0    0 -0.37669578566E+01 -0.46989973814E+01 -0.29009542805E+01  0.66847650581E+01  0.51100000000E-03 0.  1.
         12    1    3    3    0    0 -0.14650958028E+02 -0.77245413673E+01 -0.92967790640E+01  0.18993399155E+02  0.00000000000E+00 0. -1.
</event>
<event>
 7    1  0.3910495E-008  0.4614232E+02  0.7816164E-02  0.1320468E+00
        -11   -1    0    0    0    0  0.00000000000E+00  0.00000000000E+00  0.45593999997E+02  0.45594000000E+02  0.51100000000E-03 0. -1.
         11   -1    0    0    0    0 -0.00000000000E+00 -0.00000000000E+00 -0.45593999997E+02  0.45594000000E+02  0.51100000000E-03 0.  1.
    9900012    2    1    2    0    0  0.40048115129E+02  0.20216995937E+02  0.40663233907E+01  0.46142318343E+02  0.10000005302E+02 0.  0.
        -12    1    1    2    0    0 -0.40048115129E+02 -0.20216995937E+02 -0.40663233907E+01  0.45045681657E+02  0.00000000000E+00 0.  1.
         11    1    3    3    0    0  0.30406792560E+02  0.17304531332E+02  0.30068945880E+01  0.35114971931E+02  0.51100000000E-03 0. -1.
        -11    1    3    3    0    0  0.54836103446E+00  0.15869397425E+01  0.73421544756E+00  0.18325256219E+01  0.51100000000E-03 0.  1.
        -12    1    3    3    0    0  0.90929615344E+01  0.13255248625E+01  0.32521335515E+00  0.91948207896E+01  0.00000000000E+00 0.  1.
</event>
<event>
 7    1  0.3910495E-008  0.4614232E+02  0.7816164E-02  0.1320468E+00
        -11   -1    0    0    0    0  0.00000000000E+00  0.00000000000E+00  0.45593999997E+02  0.45594000000E+02  0.51100000000E-03 0. -1.
         11   -1    0    0    0    0 -0.00000000000E+00 -0.00000000000E+00 -0.45593999997E+02  0.45594000000E+02  0.51100000000E-03 0.  1.
    9900012    2    1    2    0    0 -0.36296559960E+02  0.26568692930E+02 -0.24036854669E+01  0.46142318600E+02  0.10000007652E+02 0.  0.
        -12    1    1    2    0    0  0.36296559960E+02 -0.26568692930E+02  0.24036854669E+01  0.45045681400E+02  0.00000000000E+00 0.  1.
         11    1    3    3    0    0 -0.17307166360E+02  0.75982904258E+01 -0.80287617535E+00  0.18918684817E+02  0.51100000000E-03 0. -1.
        -11    1    3    3    0    0 -0.37296038032E+01  0.27348705809E+01 -0.17416624819E+01  0.49419480051E+01  0.51100000000E-03 0.  1.
         12    1    3    3    0    0 -0.15259789797E+02  0.16235531923E+02  0.14085319028E+00  0.22281685778E+02  0.00000000000E+00 0. -1.
</event>
<event>
 7    1  0.3910495E-008  0.4614232E+02  0.7816164E-02  0.1320468E+00
        -11   -1    0    0    0    0  0.00000000000E+00  0.00000000000E+00  0.45593999997E+02  0.45594000000E+02  0.51100000000E-03 0.  1.
         11   -1    0    0    0    0 -0.00000000000E+00 -0.00000000000E+00 -0.45593999997E+02  0.45594000000E+02  0.51100000000E-03 0. -1.
    9900012    2    1    2    0    0 -0.37163445816E+02 -0.12895924509E+01 -0.25422996744E+02  0.46142317443E+02  0.99999970955E+01 0.  0.
        -12    1    1    2    0    0  0.37163445816E+02  0.12895924509E+01  0.25422996744E+02  0.45045682557E+02  0.00000000000E+00 0.  1.
         11    1    3    3    0    0 -0.22724465444E+01 -0.12839463900E+01  0.52123022758E-01  0.26106031296E+01  0.51100000000E-03 0. -1.
        -11    1    3    3    0    0 -0.12730197039E+02 -0.10832439455E+00 -0.61963191034E+01  0.14158531758E+02  0.51100000000E-03 0.  1.
         12    1    3    3    0    0 -0.22160802232E+02  0.10267833361E+00 -0.19278800663E+02  0.29373182555E+02  0.00000000000E+00 0. -1.
</event>
<event>
 7    1  0.3910495E-008  0.4614232E+02  0.7816164E-02  0.1320468E+00
        -11   -1    0    0    0    0  0.00000000000E+00  0.00000000000E+00  0.45593999997E+02  0.45594000000E+02  0.51100000000E-03 0. -1.
         11   -1    0    0    0    0 -0.00000000000E+00 -0.00000000000E+00 -0.45593999997E+02  0.45594000000E+02  0.51100000000E-03 0.  1.
    9900012    2    1    2    0    0  0.15279707939E+02  0.16687494190E+02  0.38950886421E+02  0.46142317743E+02  0.99999998364E+01 0.  0.
        -12    1    1    2    0    0 -0.15279707939E+02 -0.16687494190E+02 -0.38950886421E+02  0.45045682257E+02  0.00000000000E+00 0.  1.
         11    1    3    3    0    0  0.24454834519E+01  0.32751208512E+01  0.88971909859E+01  0.97911599723E+01  0.51100000000E-03 0. -1.
        -11    1    3    3    0    0  0.15701534739E+01  0.59182486178E+01  0.14481019261E+02  0.15722307965E+02  0.51100000000E-03 0.  1.
        -12    1    3    3    0    0  0.11264071013E+02  0.74941247209E+01  0.15572676174E+02  0.20628849806E+02  0.00000000000E+00 0.  1.
</event>
<event>
 7    1  0.3910495E-008  0.4614232E+02  0.7816164E-02  0.1320468E+00
        -11   -1    0    0    0    0  0.00000000000E+00  0.00000000000E+00  0.45593999997E+02  0.45594000000E+02  0.51100000000E-03 0.  1.
         11   -1    0    0    0    0 -0.00000000000E+00 -0.00000000000E+00 -0.45593999997E+02  0.45594000000E+02  0.51100000000E-03 0. -1.
    9900012    2    1    2    0    0 -0.20505814559E+02  0.35031873850E+02 -0.19529274577E+02  0.46142321165E+02  0.10000031039E+02 0.  0.
        -12    1    1    2    0    0  0.20505814559E+02 -0.35031873850E+02  0.19529274577E+02  0.45045678835E+02  0.00000000000E+00 0.  1.
         11    1    3    3    0    0 -0.12849527182E+02  0.25838078310E+02 -0.12985073183E+02  0.31643779252E+02  0.51100000000E-03 0. -1.
        -11    1    3    3    0    0  0.60011248228E+00  0.41782995227E-01 -0.43047001588E+00  0.73971988332E+00  0.51100000000E-03 0.  1.
         12    1    3    3    0    0 -0.82563998596E+01  0.91520125457E+01 -0.61137313779E+01  0.13758822030E+02  0.00000000000E+00 0. -1.
</event>
<event>
 7    1  0.3910495E-008  0.4614232E+02  0.7816164E-02  0.1320468E+00
        -11   -1    0    0    0    0  0.00000000000E+00  0.00000000000E+00  0.45593999997E+02  0.45594000000E+02  0.51100000000E-03 0.  1.
         11   -1    0    0    0    0 -0.00000000000E+00 -0.00000000000E+00 -0.45593999997E+02  0.45594000000E+02  0.51100000000E-03 0. -1.
    9900012    2    1    2    0    0  0.14345976408E+02  0.49363129756E+01 -0.42413903925E+02  0.46142317953E+02  0.10000001747E+02 0.  0.
        -12    1    1    2    0    0 -0.14345976408E+02 -0.49363129756E+01  0.42413903925E+02  0.45045682047E+02  0.00000000000E+00 0.  1.
         11    1    3    3    0    0  0.23013224227E+00  0.26587527301E+01 -0.46091163306E+01  0.53259628743E+01  0.51100000000E-03 0. -1.
        -11    1    3    3    0    0  0.14913842173E+01  0.14122416181E+01 -0.21085330529E+01  0.29435633453E+01  0.51100000000E-03 0.  1.
         12    1    3    3    0    0  0.12624459949E+02  0.86531862740E+00 -0.35696254542E+02  0.37872791733E+02  0.00000000000E+00 0. -1.
</event>
<event>
 7    1  0.3910495E-008  0.4614232E+02  0.7816164E-02  0.1320468E+00
        -11   -1    0    0    0    0  0.00000000000E+00  0.00000000000E+00  0.45593999997E+02  0.45594000000E+02  0.51100000000E-03 0.  1.
         11   -1    0    0    0    0 -0.00000000000E+00 -0.00000000000E+00 -0.45593999997E+02  0.45594000000E+02  0.51100000000E-03 0. -1.
    9900012    2    1    2    0    0  0.43205643473E+02 -0.44562454877E+01  0.11938496966E+02  0.46142318059E+02  0.10000002714E+02 0.  0.
        -12    1    1    2    0    0 -0.43205643473E+02  0.44562454877E+01 -0.11938496966E+02  0.45045681941E+02  0.00000000000E+00 0.  1.
         11    1    3    3    0    0  0.14519495544E+02 -0.31904306512E+01  0.29539229595E+01  0.15156525318E+02  0.51100000000E-03 0. -1.
        -11    1    3    3    0    0  0.49249735537E+00  0.68790206559E+00 -0.71362028462E+00  0.11068048919E+01  0.51100000000E-03 0.  1.
        -12    1    3    3    0    0  0.28193650573E+02 -0.19537169021E+01  0.96981942911E+01  0.29878987849E+02  0.00000000000E+00 0.  1.
</event>
<event>
 7    1  0.3910495E-008  0.4614232E+02  0.7816164E-02  0.1320468E+00
        -11   -1    0    0    0    0  0.00000000000E+00  0.00000000000E+00  0.45593999997E+02  0.45594000000E+02  0.51100000000E-03 0. -1.
         11   -1    0    0    0    0 -0.00000000000E+00 -0.00000000000E+00 -0.45593999997E+02  0.45594000000E+02  0.51100000000E-03 0.  1.
    9900012    2    1    2    0    0 -0.10639752099E+02  0.43637886904E+02  0.34123411351E+01  0.46142316853E+02  0.99999917201E+01 0.  0.
        -12    1    1    2    0    0  0.10639752099E+02 -0.43637886904E+02 -0.34123411351E+01  0.45045683147E+02  0.00000000000E+00 0.  1.
         11    1    3    3    0    0  0.35445266572E+00  0.75155583663E+01 -0.23518447664E+01  0.78829200374E+01  0.51100000000E-03 0.  1.
        -11    1    3    3    0    0 -0.78598313773E+01  0.28884783834E+02  0.44799699326E+01  0.30268429382E+02  0.51100000000E-03 0. -1.
         12    1    3    3    0    0 -0.31343733878E+01  0.72375447036E+01  0.12842159689E+01  0.79909674337E+01  0.00000000000E+00 0. -1.
</event>
<event>
 7    1  0.3910495E-008  0.4614232E+02  0.7816164E-02  0.1320468E+00
        -11   -1    0    0    0    0  0.00000000000E+00  0.00000000000E+00  0.45593999997E+02  0.45594000000E+02  0.51100000000E-03 0.  1.
         11   -1    0    0    0    0 -0.00000000000E+00 -0.00000000000E+00 -0.45593999997E+02  0.45594000000E+02  0.51100000000E-03 0. -1.
    9900012    2    1    2    0    0 -0.15561331351E+02 -0.41029220516E+02 -0.10176518957E+02  0.46142317548E+02  0.99999980522E+01 0.  0.
        -12    1    1    2    0    0  0.15561331351E+02  0.41029220516E+02  0.10176518957E+02  0.45045682452E+02  0.00000000000E+00 0.  1.
         11    1    3    3    0    0 -0.30316213147E+01 -0.65345428412E+01  0.10790792024E+01  0.72839131053E+01  0.51100000000E-03 0. -1.
        -11    1    3    3    0    0 -0.11010943039E+02 -0.29053577078E+02 -0.11680980329E+02  0.33193320252E+02  0.51100000000E-03 0.  1.
        -12    1    3    3    0    0 -0.15187669976E+01 -0.54411005961E+01  0.42538217006E+00  0.56650841901E+01  0.00000000000E+00 0.  1.
</event>
<event>
 7    1  0.3910495E-008  0.4614232E+02  0.7816164E-02  0.1320468E+00
        -11   -1    0    0    0    0  0.00000000000E+00  0.00000000000E+00  0.45593999997E+02  0.45594000000E+02  0.51100000000E-03 0.  1.
         11   -1    0    0    0    0 -0.00000000000E+00 -0.00000000000E+00 -0.45593999997E+02  0.45594000000E+02  0.51100000000E-03 0. -1.
    9900012    2    1    2    0    0 -0.77122446383E+01 -0.30193293661E+02 -0.32526908776E+02  0.46142317699E+02  0.99999994297E+01 0.  0.
        -12    1    1    2    0    0  0.77122446383E+01  0.30193293661E+02  0.32526908776E+02  0.45045682301E+02  0.00000000000E+00 0.  1.
         11    1    3    3    0    0 -0.33144511429E+01 -0.13639618123E+02 -0.12535441619E+02  0.18819194078E+02  0.51100000000E-03 0. -1.
        -11    1    3    3    0    0 -0.40039701717E+01 -0.31604989840E+01 -0.69875141486E+01  0.86513516402E+01  0.51100000000E-03 0.  1.
        -12    1    3    3    0    0 -0.39382332363E+00 -0.13393176554E+02 -0.13003953009E+02  0.18671771980E+02  0.00000000000E+00 0.  1.
</event>
<event>
 7    1  0.3910495E-008  0.4614232E+02  0.7816164E-02  0.1320468E+00
        -11   -1    0    0    0    0  0.00000000000E+00  0.00000000000E+00  0.45593999997E+02  0.45594000000E+02  0.51100000000E-03 0.  1.
         11   -1    0    0    0    0 -0.00000000000E+00 -0.00000000000E+00 -0.45593999997E+02  0.45594000000E+02  0.51100000000E-03 0. -1.
    9900012    2    1    2    0    0  0.12540819516E+02  0.41580396702E+02 -0.11954584129E+02  0.46142316237E+02  0.99999861012E+01 0.  0.
        -12    1    1    2    0    0 -0.12540819516E+02 -0.41580396702E+02  0.11954584129E+02  0.45045683763E+02  0.00000000000E+00 0.  1.
         11    1    3    3    0    0  0.39162638017E+01  0.73912262685E+01 -0.85746985471E+00  0.84084839733E+01  0.51100000000E-03 0. -1.
        -11    1    3    3    0    0  0.60321774282E+01  0.10683266664E+02 -0.54258393730E+01  0.13414882940E+02  0.51100000000E-03 0.  1.
         12    1    3    3    0    0  0.25923782856E+01  0.23505903769E+02 -0.56712749015E+01  0.24318949324E+02  0.00000000000E+00 0. -1.
</event>
<event>
 7    1  0.3910495E-008  0.4614232E+02  0.7816164E-02  0.1320468E+00
        -11   -1    0    0    0    0  0.00000000000E+00  0.00000000000E+00  0.45593999997E+02  0.45594000000E+02  0.51100000000E-03 0.  1.
         11   -1    0    0    0    0 -0.00000000000E+00 -0.00000000000E+00 -0.45593999997E+02  0.45594000000E+02  0.51100000000E-03 0. -1.
    9900012    2    1    2    0    0 -0.76557106315E+00 -0.15402224918E+02 -0.42323738820E+02  0.46142317641E+02  0.99999989061E+01 0.  0.
        -12    1    1    2    0    0  0.76557106315E+00  0.15402224918E+02  0.42323738820E+02  0.45045682359E+02  0.00000000000E+00 0.  1.
         11    1    3    3    0    0  0.10918793445E+00 -0.11937306726E+01 -0.10526763408E+02  0.10594794148E+02  0.51100000000E-03 0. -1.
        -11    1    3    3    0    0  0.20400622631E+01 -0.42773773723E+01 -0.53479604481E+01  0.71455225448E+01  0.51100000000E-03 0.  1.
        -12    1    3    3    0    0 -0.29148212607E+01 -0.99311168727E+01 -0.26449014964E+02  0.28402000949E+02  0.00000000000E+00 0.  1.
</event>
<event>
 7    1  0.3910495E-008  0.4614232E+02  0.7816164E-02  0.1320468E+00
        -11   -1    0    0    0    0  0.00000000000E+00  0.00000000000E+00  0.45593999997E+02  0.45594000000E+02  0.51100000000E-03 0.  1.
         11   -1    0    0    0    0 -0.00000000000E+00 -0.00000000000E+00 -0.45593999997E+02  0.45594000000E+02  0.51100000000E-03 0. -1.
    9900012    2    1    2    0    0  0.27077920010E+02  0.61768536890E+01 -0.35464718430E+02  0.46142317334E+02  0.99999961028E+01 0.  0.
        -12    1    1    2    0    0 -0.27077920010E+02 -0.61768536890E+01  0.35464718430E+02  0.45045682666E+02  0.00000000000E+00 0.  1.
         11    1    3    3    0    0  0.21439755204E+02  0.43162195402E+01 -0.23113700785E+02  0.31820371125E+02  0.51100000000E-03 0. -1.
        -11    1    3    3    0    0  0.38451944423E+01  0.28448002023E+00 -0.10818658241E+02  0.11485199849E+02  0.51100000000E-03 0.  1.
        -12    1    3    3    0    0  0.17929703637E+01  0.15761541286E+01 -0.15323594037E+01  0.28367463588E+01  0.00000000000E+00 0.  1.
</event>
<event>
 7    1  0.3910495E-008  0.4614232E+02  0.7816164E-02  0.1320468E+00
        -11   -1    0    0    0    0  0.00000000000E+00  0.00000000000E+00  0.45593999997E+02  0.45594000000E+02  0.51100000000E-03 0.  1.
         11   -1    0    0    0    0 -0.00000000000E+00 -0.00000000000E+00 -0.45593999997E+02  0.45594000000E+02  0.51100000000E-03 0. -1.
    9900012    2    1    2    0    0  0.43010755178E+02 -0.51090289514E+00 -0.13376378095E+02  0.46142316814E+02  0.99999913676E+01 0.  0.
        -12    1    1    2    0    0 -0.43010755178E+02  0.51090289514E+00  0.13376378095E+02  0.45045683186E+02  0.00000000000E+00 0.  1.
         11    1    3    3    0    0  0.17357422317E+02 -0.32850336541E+01 -0.57984685170E+01  0.18592842521E+02  0.51100000000E-03 0. -1.
        -11    1    3    3    0    0  0.11376863188E+02 -0.50644257032E+00 -0.58398657344E+01  0.12798184721E+02  0.51100000000E-03 0.  1.
         12    1    3    3    0    0  0.14276469672E+02  0.32805733292E+01 -0.17380438438E+01  0.14751289573E+02  0.00000000000E+00 0. -1.
</event>
<event>
 7    1  0.3910495E-008  0.4614232E+02  0.7816164E-02  0.1320468E+00
        -11   -1    0    0    0    0  0.00000000000E+00  0.00000000000E+00  0.45593999997E+02  0.45594000000E+02  0.51100000000E-03 0.  1.
         11   -1    0    0    0    0 -0.00000000000E+00 -0.00000000000E+00 -0.45593999997E+02  0.45594000000E+02  0.51100000000E-03 0. -1.
    9900012    2    1    2    0    0 -0.38333269508E+02  0.20458541966E+02 -0.11879463946E+02  0.46142321470E+02  0.10000033825E+02 0.  0.
        -12    1    1    2    0    0  0.38333269508E+02 -0.20458541966E+02  0.11879463946E+02  0.45045678530E+02  0.00000000000E+00 0.  1.
         11    1    3    3    0    0 -0.12405371116E+02  0.20442621343E+01 -0.32809811947E+01  0.12993732261E+02  0.51100000000E-03 0. -1.
        -11    1    3    3    0    0 -0.16226335529E+02  0.98585717455E+01 -0.38746098170E+01  0.19377770849E+02  0.51100000000E-03 0.  1.
         12    1    3    3    0    0 -0.97015628625E+01  0.85557080864E+01 -0.47238729342E+01  0.13770818361E+02  0.00000000000E+00 0. -1.
</event>
<event>
 7    1  0.3910495E-008  0.4614232E+02  0.7816164E-02  0.1320468E+00
        -11   -1    0    0    0    0  0.00000000000E+00  0.00000000000E+00  0.45593999997E+02  0.45594000000E+02  0.51100000000E-03 0.  1.
         11   -1    0    0    0    0 -0.00000000000E+00 -0.00000000000E+00 -0.45593999997E+02  0.45594000000E+02  0.51100000000E-03 0. -1.
    9900012    2    1    2    0    0 -0.74824859303E+01 -0.17500449605E+02 -0.40827199707E+02  0.46142316878E+02  0.99999919456E+01 0.  0.
        -12    1    1    2    0    0  0.74824859303E+01  0.17500449605E+02  0.40827199707E+02  0.45045683122E+02  0.00000000000E+00 0.  1.
         11    1    3    3    0    0 -0.68124677085E+01 -0.95205529855E+01 -0.16105241555E+02  0.19910536186E+02  0.51100000000E-03 0. -1.
        -11    1    3    3    0    0 -0.11902216814E+01 -0.48889013780E+01 -0.10177355485E+02  0.11353261614E+02  0.51100000000E-03 0.  1.
        -12    1    3    3    0    0  0.52020345964E+00 -0.30909952413E+01 -0.14544602666E+02  0.14878519078E+02  0.00000000000E+00 0.  1.
</event>
<event>
 7    1  0.3910495E-008  0.4614232E+02  0.7816164E-02  0.1320468E+00
        -11   -1    0    0    0    0  0.00000000000E+00  0.00000000000E+00  0.45593999997E+02  0.45594000000E+02  0.51100000000E-03 0.  1.
         11   -1    0    0    0    0 -0.00000000000E+00 -0.00000000000E+00 -0.45593999997E+02  0.45594000000E+02  0.51100000000E-03 0. -1.
    9900012    2    1    2    0    0 -0.29219581796E+02  0.23616960078E+02 -0.24850927634E+02  0.46142319098E+02  0.10000012193E+02 0.  0.
        -12    1    1    2    0    0  0.29219581796E+02 -0.23616960078E+02  0.24850927634E+02  0.45045680902E+02  0.00000000000E+00 0.  1.
         11    1    3    3    0    0 -0.54023496082E+01  0.34204027554E+01 -0.79905890838E+01  0.10233965530E+02  0.51100000000E-03 0.  1.
        -11    1    3    3    0    0 -0.17876543971E+02  0.17968109775E+02 -0.13069919066E+02  0.28517478463E+02  0.51100000000E-03 0. -1.
         12    1    3    3    0    0 -0.59406882165E+01  0.22284475470E+01 -0.37904194843E+01  0.73908751054E+01  0.00000000000E+00 0. -1.
</event>
<event>
 7    1  0.3910495E-008  0.4614232E+02  0.7816164E-02  0.1320468E+00
        -11   -1    0    0    0    0  0.00000000000E+00  0.00000000000E+00  0.45593999997E+02  0.45594000000E+02  0.51100000000E-03 0.  1.
         11   -1    0    0    0    0 -0.00000000000E+00 -0.00000000000E+00 -0.45593999997E+02  0.45594000000E+02  0.51100000000E-03 0. -1.
    9900012    2    1    2    0    0 -0.12407815658E+01 -0.33775200672E+02 -0.29779349459E+02  0.46142319036E+02  0.10000011625E+02 0.  0.
        -12    1    1    2    0    0  0.12407815658E+01  0.33775200672E+02  0.29779349459E+02  0.45045680964E+02  0.00000000000E+00 0.  1.
         11    1    3    3    0    0  0.13230056282E+01 -0.21325877939E+01 -0.31549713867E+01  0.40313917328E+01  0.51100000000E-03 0. -1.
        -11    1    3    3    0    0  0.19544385341E+01 -0.14344862771E+02 -0.14628395526E+02  0.20581177659E+02  0.51100000000E-03 0.  1.
        -12    1    3    3    0    0 -0.45182257281E+01 -0.17297750107E+02 -0.11995982547E+02  0.21529749644E+02  0.00000000000E+00 0.  1.
</event>
<event>
 7    1  0.3910495E-008  0.4614232E+02  0.7816164E-02  0.1320468E+00
        -11   -1    0    0    0    0  0.00000000000E+00  0.00000000000E+00  0.45593999997E+02  0.45594000000E+02  0.51100000000E-03 0. -1.
         11   -1    0    0    0    0 -0.00000000000E+00 -0.00000000000E+00 -0.45593999997E+02  0.45594000000E+02  0.51100000000E-03 0.  1.
    9900012    2    1    2    0    0 -0.39958364362E+02  0.12976274278E+02 -0.16249890347E+02  0.46142317488E+02  0.99999975127E+01 0.  0.
        -12    1    1    2    0    0  0.39958364362E+02 -0.12976274278E+02  0.16249890347E+02  0.45045682512E+02  0.00000000000E+00 0.  1.
         11    1    3    3    0    0 -0.11843909815E+02  0.57247318755E+01 -0.17007758230E+01  0.13264365549E+02  0.51100000000E-03 0. -1.
        -11    1    3    3    0    0 -0.29792604199E+01  0.22686721100E+01 -0.28674980163E+01  0.47165041001E+01  0.51100000000E-03 0.  1.
        -12    1    3    3    0    0 -0.25135194127E+02  0.49828702928E+01 -0.11681616507E+02  0.28161447839E+02  0.00000000000E+00 0.  1.
</event>
<event>
 7    1  0.4761845E-008  0.4614232E+02  0.7816164E-02  0.1320468E+00
        -11   -1    0    0    0    0  0.00000000000E+00  0.00000000000E+00  0.45593999997E+02  0.45594000000E+02  0.51100000000E-03 0. -1.
         11   -1    0    0    0    0 -0.00000000000E+00 -0.00000000000E+00 -0.45593999997E+02  0.45594000000E+02  0.51100000000E-03 0.  1.
    9900012    2    1    2    0    0 -0.28601974790E+02 -0.17326381196E+02  0.30180076027E+02  0.46142318340E+02  0.10000005279E+02 0.  0.
        -12    1    1    2    0    0  0.28601974790E+02  0.17326381196E+02 -0.30180076027E+02  0.45045681660E+02  0.00000000000E+00 0.  1.
         11    1    3    3    0    0 -0.10803738152E+01 -0.22485888989E+01  0.13124424763E+01  0.28188410973E+01  0.51100000000E-03 0. -1.
        -11    1    3    3    0    0 -0.32323021666E+01 -0.14442592966E+01  0.51448344137E+00  0.35774789566E+01  0.51100000000E-03 0.  1.
         12    1    3    3    0    0 -0.24289298808E+02 -0.13633533000E+02  0.28353150109E+02  0.39745998286E+02  0.00000000000E+00 0. -1.
</event>
<event>
 7    1  0.3910495E-008  0.4614232E+02  0.7816164E-02  0.1320468E+00
        -11   -1    0    0    0    0  0.00000000000E+00  0.00000000000E+00  0.45593999997E+02  0.45594000000E+02  0.51100000000E-03 0.  1.
         11   -1    0    0    0    0 -0.00000000000E+00 -0.00000000000E+00 -0.45593999997E+02  0.45594000000E+02  0.51100000000E-03 0. -1.
    9900012    2    1    2    0    0  0.84967407151E+01 -0.21772659879E+02 -0.38508053425E+02  0.46142317637E+02  0.99999988655E+01 0.  0.
        -12    1    1    2    0    0 -0.84967407151E+01  0.21772659879E+02  0.38508053425E+02  0.45045682363E+02  0.00000000000E+00 0.  1.
         11    1    3    3    0    0 -0.46469327115E+00 -0.23839911284E+01 -0.62744167204E+01  0.67281244771E+01  0.51100000000E-03 0. -1.
        -11    1    3    3    0    0  0.70953773906E+01 -0.78570755264E+01 -0.19095213912E+02  0.21833579889E+02  0.51100000000E-03 0.  1.
        -12    1    3    3    0    0  0.18660565957E+01 -0.11531593224E+02 -0.13138422792E+02  0.17580613271E+02  0.00000000000E+00 0.  1.
</event>
<event>
 7    1  0.3910495E-008  0.4614232E+02  0.7816164E-02  0.1320468E+00
        -11   -1    0    0    0    0  0.00000000000E+00  0.00000000000E+00  0.45593999997E+02  0.45594000000E+02  0.51100000000E-03 0.  1.
         11   -1    0    0    0    0 -0.00000000000E+00 -0.00000000000E+00 -0.45593999997E+02  0.45594000000E+02  0.51100000000E-03 0. -1.
    9900012    2    1    2    0    0 -0.31325356700E+02  0.24015034338E+02 -0.21705152179E+02  0.46142317879E+02  0.10000001077E+02 0.  0.
        -12    1    1    2    0    0  0.31325356700E+02 -0.24015034338E+02  0.21705152179E+02  0.45045682121E+02  0.00000000000E+00 0.  1.
         11    1    3    3    0    0 -0.11511409097E+02  0.13262479934E+02 -0.10097583450E+02  0.20257519720E+02  0.51100000000E-03 0. -1.
        -11    1    3    3    0    0 -0.56258966622E+01  0.56365129883E+01 -0.29382304863E+01  0.84884739837E+01  0.51100000000E-03 0.  1.
         12    1    3    3    0    0 -0.14188050941E+02  0.51160414149E+01 -0.86693382426E+01  0.17396324175E+02  0.00000000000E+00 0. -1.
</event>
<event>
 7    1  0.3910495E-008  0.4614232E+02  0.7816164E-02  0.1320468E+00
        -11   -1    0    0    0    0  0.00000000000E+00  0.00000000000E+00  0.45593999997E+02  0.45594000000E+02  0.51100000000E-03 0.  1.
         11   -1    0    0    0    0 -0.00000000000E+00 -0.00000000000E+00 -0.45593999997E+02  0.45594000000E+02  0.51100000000E-03 0. -1.
    9900012    2    1    2    0    0  0.18847588524E+02 -0.16277249285E+02 -0.37535756745E+02  0.46142317945E+02  0.10000001675E+02 0.  0.
        -12    1    1    2    0    0 -0.18847588524E+02  0.16277249285E+02  0.37535756745E+02  0.45045682055E+02  0.00000000000E+00 0.  1.
         11    1    3    3    0    0  0.35003665313E+01 -0.49972693391E+01 -0.16979543405E+02  0.18042454412E+02  0.51100000000E-03 0. -1.
        -11    1    3    3    0    0  0.10395979190E+02 -0.85270462180E+01 -0.13537444716E+02  0.19080076264E+02  0.51100000000E-03 0.  1.
         12    1    3    3    0    0  0.49512428021E+01 -0.27529337275E+01 -0.70187686237E+01  0.90197872695E+01  0.00000000000E+00 0. -1.
</event>
<event>
 7    1  0.3910495E-008  0.4614232E+02  0.7816164E-02  0.1320468E+00
        -11   -1    0    0    0    0  0.00000000000E+00  0.00000000000E+00  0.45593999997E+02  0.45594000000E+02  0.51100000000E-03 0.  1.
         11   -1    0    0    0    0 -0.00000000000E+00 -0.00000000000E+00 -0.45593999997E+02  0.45594000000E+02  0.51100000000E-03 0. -1.
    9900012    2    1    2    0    0 -0.38513365340E+02 -0.22836690725E+02  0.49314981921E+01  0.46142318437E+02  0.10000006160E+02 0.  0.
        -12    1    1    2    0    0  0.38513365340E+02  0.22836690725E+02 -0.49314981921E+01  0.45045681563E+02  0.00000000000E+00 0.  1.
         11    1    3    3    0    0 -0.32076661472E+02 -0.17525334989E+02  0.19100360754E+01  0.36601882680E+02  0.51100000000E-03 0. -1.
        -11    1    3    3    0    0 -0.15304885437E+01  0.33688441950E+00  0.56742133439E+00  0.16666893911E+01  0.51100000000E-03 0.  1.
         12    1    3    3    0    0 -0.49062153243E+01 -0.56482401556E+01  0.24540407823E+01  0.78737463653E+01  0.00000000000E+00 0. -1.
</event>
<event>
 7    1  0.3910495E-008  0.4614232E+02  0.7816164E-02  0.1320468E+00
        -11   -1    0    0    0    0  0.00000000000E+00  0.00000000000E+00  0.45593999997E+02  0.45594000000E+02  0.51100000000E-03 0.  1.
         11   -1    0    0    0    0 -0.00000000000E+00 -0.00000000000E+00 -0.45593999997E+02  0.45594000000E+02  0.51100000000E-03 0. -1.
    9900012    2    1    2    0    0  0.15008311208E+02  0.12375664001E+02 -0.40628893754E+02  0.46142317938E+02  0.10000001614E+02 0.  0.
        -12    1    1    2    0    0 -0.15008311208E+02 -0.12375664001E+02  0.40628893754E+02  0.45045682062E+02  0.00000000000E+00 0.  1.
         11    1    3    3    0    0  0.10185621082E+02  0.76812147881E+01 -0.28650159380E+02  0.31362072161E+02  0.51100000000E-03 0. -1.
        -11    1    3    3    0    0  0.29387557009E+01  0.39074664990E+01 -0.11748942149E+02  0.12725652101E+02  0.51100000000E-03 0.  1.
        -12    1    3    3    0    0  0.18839344245E+01  0.78698271398E+00 -0.22979222430E+00  0.20545936762E+01  0.00000000000E+00 0.  1.
</event>
<event>
 7    1  0.3910495E-008  0.4614232E+02  0.7816164E-02  0.1320468E+00
        -11   -1    0    0    0    0  0.00000000000E+00  0.00000000000E+00  0.45593999997E+02  0.45594000000E+02  0.51100000000E-03 0. -1.
         11   -1    0    0    0    0 -0.00000000000E+00 -0.00000000000E+00 -0.45593999997E+02  0.45594000000E+02  0.51100000000E-03 0.  1.
    9900012    2    1    2    0    0  0.26967244670E+02 -0.15922530782E+02  0.32378297816E+02  0.46142318286E+02  0.10000004787E+02 0.  0.
        -12    1    1    2    0    0 -0.26967244670E+02  0.15922530782E+02 -0.32378297816E+02  0.45045681714E+02  0.00000000000E+00 0.  1.
         11    1    3    3    0    0  0.53175409852E+01 -0.39677104093E+01  0.13410871640E+02  0.14962300840E+02  0.51100000000E-03 0. -1.
        -11    1    3    3    0    0  0.91326448113E+01 -0.55422398705E+01  0.82850891741E+01  0.13519035724E+02  0.51100000000E-03 0.  1.
        -12    1    3    3    0    0  0.12517058874E+02 -0.64125805021E+01  0.10682337002E+02  0.17660981721E+02  0.00000000000E+00 0.  1.
</event>
<event>
 7    1  0.3910495E-008  0.4614232E+02  0.7816164E-02  0.1320468E+00
        -11   -1    0    0    0    0  0.00000000000E+00  0.00000000000E+00  0.45593999997E+02  0.45594000000E+02  0.51100000000E-03 0.  1.
         11   -1    0    0    0    0 -0.00000000000E+00 -0.00000000000E+00 -0.45593999997E+02  0.45594000000E+02  0.51100000000E-03 0. -1.
    9900012    2    1    2    0    0  0.34735199439E+02  0.10571122171E+02 -0.26661410486E+02  0.46142317486E+02  0.99999974918E+01 0.  0.
        -12    1    1    2    0    0 -0.34735199439E+02 -0.10571122171E+02  0.26661410486E+02  0.45045682514E+02  0.00000000000E+00 0.  1.
         11    1    3    3    0    0  0.11087014810E+02  0.48025715718E+01 -0.45314502279E+01  0.12904287370E+02  0.51100000000E-03 0. -1.
        -11    1    3    3    0    0  0.47782061237E+01  0.68112549923E+00 -0.70911916930E+01  0.85778893438E+01  0.51100000000E-03 0.  1.
        -12    1    3    3    0    0  0.18869978506E+02  0.50874250997E+01 -0.15038768565E+02  0.24660140772E+02  0.00000000000E+00 0.  1.
</event>
<event>
 7    1  0.3910495E-008  0.4614232E+02  0.7816164E-02  0.1320468E+00
        -11   -1    0    0    0    0  0.00000000000E+00  0.00000000000E+00  0.45593999997E+02  0.45594000000E+02  0.51100000000E-03 0.  1.
         11   -1    0    0    0    0 -0.00000000000E+00 -0.00000000000E+00 -0.45593999997E+02  0.45594000000E+02  0.51100000000E-03 0. -1.
    9900012    2    1    2    0    0  0.54580169990E+01 -0.28389218077E+02 -0.34545273470E+02  0.46142316836E+02  0.99999915651E+01 0.  0.
        -12    1    1    2    0    0 -0.54580169990E+01  0.28389218077E+02  0.34545273470E+02  0.45045683164E+02  0.00000000000E+00 0.  1.
         11    1    3    3    0    0  0.55778066437E+01 -0.14336506849E+02 -0.20704597192E+02  0.25793946979E+02  0.51100000000E-03 0. -1.
        -11    1    3    3    0    0 -0.58810290382E+00 -0.83418290977E+01 -0.11355854840E+02  0.14102745021E+02  0.51100000000E-03 0.  1.
         12    1    3    3    0    0  0.46831325910E+00 -0.57108821303E+01 -0.24848214369E+01  0.62456248357E+01  0.00000000000E+00 0. -1.
</event>
<event>
 7    1  0.3910495E-008  0.4614232E+02  0.7816164E-02  0.1320468E+00
        -11   -1    0    0    0    0  0.00000000000E+00  0.00000000000E+00  0.45593999997E+02  0.45594000000E+02  0.51100000000E-03 0.  1.
         11   -1    0    0    0    0 -0.00000000000E+00 -0.00000000000E+00 -0.45593999997E+02  0.45594000000E+02  0.51100000000E-03 0. -1.
    9900012    2    1    2    0    0 -0.16923160232E+01 -0.26224911050E+02 -0.36585564966E+02  0.46142318109E+02  0.10000003173E+02 0.  0.
        -12    1    1    2    0    0  0.16923160232E+01  0.26224911050E+02  0.36585564966E+02  0.45045681891E+02  0.00000000000E+00 0.  1.
         11    1    3    3    0    0  0.58577386395E+00 -0.67699377299E+00 -0.80559792874E+00  0.12043420911E+01  0.51100000000E-03 0. -1.
        -11    1    3    3    0    0 -0.33901817341E+01 -0.60532608289E+01 -0.52615008689E+01  0.87073928651E+01  0.51100000000E-03 0.  1.
         12    1    3    3    0    0  0.11120918469E+01 -0.19494656448E+02 -0.30518466169E+02  0.36230583153E+02  0.00000000000E+00 0. -1.
</event>
<event>
 7    1  0.3910495E-008  0.4614232E+02  0.7816164E-02  0.1320468E+00
        -11   -1    0    0    0    0  0.00000000000E+00  0.00000000000E+00  0.45593999997E+02  0.45594000000E+02  0.51100000000E-03 0. -1.
         11   -1    0    0    0    0 -0.00000000000E+00 -0.00000000000E+00 -0.45593999997E+02  0.45594000000E+02  0.51100000000E-03 0.  1.
    9900012    2    1    2    0    0 -0.24066421777E+02 -0.36647905060E+02 -0.10336917203E+02  0.46142318080E+02  0.10000002904E+02 0.  0.
        -12    1    1    2    0    0  0.24066421777E+02  0.36647905060E+02  0.10336917203E+02  0.45045681920E+02  0.00000000000E+00 0.  1.
         11    1    3    3    0    0 -0.29834999785E-01 -0.53868060829E+00  0.21294424085E+00  0.58001072041E+00  0.51100000000E-03 0. -1.
        -11    1    3    3    0    0 -0.27929431168E+01 -0.33053894191E+01  0.16337058453E+01  0.46254865166E+01  0.51100000000E-03 0.  1.
         12    1    3    3    0    0 -0.21243643661E+02 -0.32803835032E+02 -0.12183567289E+02  0.40936820843E+02  0.00000000000E+00 0. -1.
</event>
<event>
 7    1  0.3910495E-008  0.4614232E+02  0.7816164E-02  0.1320468E+00
        -11   -1    0    0    0    0  0.00000000000E+00  0.00000000000E+00  0.45593999997E+02  0.45594000000E+02  0.51100000000E-03 0.  1.
         11   -1    0    0    0    0 -0.00000000000E+00 -0.00000000000E+00 -0.45593999997E+02  0.45594000000E+02  0.51100000000E-03 0. -1.
    9900012    2    1    2    0    0  0.35590942081E+02 -0.27047549747E+02  0.55523263361E+01  0.46142318373E+02  0.10000005577E+02 0.  0.
        -12    1    1    2    0    0 -0.35590942081E+02  0.27047549747E+02 -0.55523263361E+01  0.45045681627E+02  0.00000000000E+00 0.  1.
         11    1    3    3    0    0  0.58784996820E+01 -0.51509815613E+01  0.19030809040E+00  0.78182854250E+01  0.51100000000E-03 0. -1.
        -11    1    3    3    0    0  0.10430014115E+02 -0.31525702470E+01  0.31475994151E+01  0.11341572904E+02  0.51100000000E-03 0.  1.
        -12    1    3    3    0    0  0.19282428285E+02 -0.18743997938E+02  0.22144188306E+01  0.26982460044E+02  0.00000000000E+00 0.  1.
</event>
<event>
 7    1  0.3910495E-008  0.4614232E+02  0.7816164E-02  0.1320468E+00
        -11   -1    0    0    0    0  0.00000000000E+00  0.00000000000E+00  0.45593999997E+02  0.45594000000E+02  0.51100000000E-03 0.  1.
         11   -1    0    0    0    0 -0.00000000000E+00 -0.00000000000E+00 -0.45593999997E+02  0.45594000000E+02  0.51100000000E-03 0. -1.
    9900012    2    1    2    0    0 -0.17892418896E+02  0.36163160138E+02 -0.20029995714E+02  0.46142317261E+02  0.99999954389E+01 0.  0.
        -12    1    1    2    0    0  0.17892418896E+02 -0.36163160138E+02  0.20029995714E+02  0.45045682739E+02  0.00000000000E+00 0.  1.
         11    1    3    3    0    0 -0.92448448048E+01  0.10281105099E+02 -0.73765916039E+01  0.15671068294E+02  0.51100000000E-03 0. -1.
        -11    1    3    3    0    0 -0.89388513052E+00  0.87875420291E+01 -0.27673393039E+01  0.92562461410E+01  0.51100000000E-03 0.  1.
         12    1    3    3    0    0 -0.77536889608E+01  0.17094513011E+02 -0.98860648059E+01  0.21215002826E+02  0.00000000000E+00 0. -1.
</event>
<event>
 7    1  0.3910495E-008  0.4614232E+02  0.7816164E-02  0.1320468E+00
        -11   -1    0    0    0    0  0.00000000000E+00  0.00000000000E+00  0.45593999997E+02  0.45594000000E+02  0.51100000000E-03 0. -1.
         11   -1    0    0    0    0 -0.00000000000E+00 -0.00000000000E+00 -0.45593999997E+02  0.45594000000E+02  0.51100000000E-03 0.  1.
    9900012    2    1    2    0    0 -0.16998682879E+02  0.34861169387E+02  0.22909764672E+02  0.46142315767E+02  0.99999818189E+01 0.  0.
        -12    1    1    2    0    0  0.16998682879E+02 -0.34861169387E+02 -0.22909764672E+02  0.45045684233E+02  0.00000000000E+00 0.  1.
         11    1    3    3    0    0 -0.16295592912E+01  0.59796898753E+01  0.25331927940E+01  0.66954626786E+01  0.51100000000E-03 0. -1.
        -11    1    3    3    0    0 -0.26895941674E+00  0.75209071658E+01  0.33708268128E+01  0.82461419723E+01  0.51100000000E-03 0.  1.
         12    1    3    3    0    0 -0.15100164171E+02  0.21360572346E+02  0.17005745065E+02  0.31200711116E+02  0.00000000000E+00 0. -1.
</event>
<event>
 7    1  0.3910495E-008  0.4614232E+02  0.7816164E-02  0.1320468E+00
        -11   -1    0    0    0    0  0.00000000000E+00  0.00000000000E+00  0.45593999997E+02  0.45594000000E+02  0.51100000000E-03 0. -1.
         11   -1    0    0    0    0 -0.00000000000E+00 -0.00000000000E+00 -0.45593999997E+02  0.45594000000E+02  0.51100000000E-03 0.  1.
    9900012    2    1    2    0    0 -0.27918509025E+02  0.35318313371E+02 -0.15123354557E+01  0.46142316921E+02  0.99999923397E+01 0.  0.
        -12    1    1    2    0    0  0.27918509025E+02 -0.35318313371E+02  0.15123354557E+01  0.45045683079E+02  0.00000000000E+00 0.  1.
         11    1    3    3    0    0 -0.95446995432E+01  0.16114248722E+02 -0.18634244409E+01  0.18821335026E+02  0.51100000000E-03 0. -1.
        -11    1    3    3    0    0 -0.69052745370E+00  0.14184998170E+01 -0.14940663881E+01  0.21728332951E+01  0.51100000000E-03 0.  1.
        -12    1    3    3    0    0 -0.17683282028E+02  0.17785564831E+02  0.18451553733E+01  0.25148148600E+02  0.00000000000E+00 0.  1.
</event>
<event>
 7    1  0.3910495E-008  0.4614232E+02  0.7816164E-02  0.1320468E+00
        -11   -1    0    0    0    0  0.00000000000E+00  0.00000000000E+00  0.45593999997E+02  0.45594000000E+02  0.51100000000E-03 0. -1.
         11   -1    0    0    0    0 -0.00000000000E+00 -0.00000000000E+00 -0.45593999997E+02  0.45594000000E+02  0.51100000000E-03 0.  1.
    9900012    2    1    2    0    0 -0.25902092475E+02 -0.15841012449E+01  0.36819637683E+02  0.46142317738E+02  0.99999997883E+01 0.  0.
        -12    1    1    2    0    0  0.25902092475E+02  0.15841012449E+01 -0.36819637683E+02  0.45045682262E+02  0.00000000000E+00 0.  1.
         11    1    3    3    0    0 -0.78626346935E+01 -0.77776488899E+00  0.10392522082E+02  0.13054901686E+02  0.51100000000E-03 0. -1.
        -11    1    3    3    0    0 -0.83873067660E+01  0.13600313371E+01  0.18683111082E+02  0.20524503404E+02  0.51100000000E-03 0.  1.
        -12    1    3    3    0    0 -0.96521510152E+01 -0.21663676930E+01  0.77440045202E+01  0.12562912648E+02  0.00000000000E+00 0.  1.
</event>
<event>
 7    1  0.3910495E-008  0.4614232E+02  0.7816164E-02  0.1320468E+00
        -11   -1    0    0    0    0  0.00000000000E+00  0.00000000000E+00  0.45593999997E+02  0.45594000000E+02  0.51100000000E-03 0.  1.
         11   -1    0    0    0    0 -0.00000000000E+00 -0.00000000000E+00 -0.45593999997E+02  0.45594000000E+02  0.51100000000E-03 0. -1.
    9900012    2    1    2    0    0 -0.10061172152E+02  0.57603900799E+01 -0.43528200585E+02  0.46142317353E+02  0.99999962791E+01 0.  0.
        -12    1    1    2    0    0  0.10061172152E+02 -0.57603900799E+01  0.43528200585E+02  0.45045682647E+02  0.00000000000E+00 0.  1.
         11    1    3    3    0    0 -0.78244782576E+00 -0.18466171344E+00 -0.10934193593E+02  0.10963708968E+02  0.51100000000E-03 0. -1.
        -11    1    3    3    0    0  0.58640538064E+00  0.20906884083E+01 -0.98918222912E+01  0.10127339127E+02  0.51100000000E-03 0.  1.
         12    1    3    3    0    0 -0.98651297066E+01  0.38543633850E+01 -0.22702184701E+02  0.25051269258E+02  0.00000000000E+00 0. -1.
</event>
<event>
 7    1  0.3910495E-008  0.4614232E+02  0.7816164E-02  0.1320468E+00
        -11   -1    0    0    0    0  0.00000000000E+00  0.00000000000E+00  0.45593999997E+02  0.45594000000E+02  0.51100000000E-03 0.  1.
         11   -1    0    0    0    0 -0.00000000000E+00 -0.00000000000E+00 -0.45593999997E+02  0.45594000000E+02  0.51100000000E-03 0. -1.
    9900012    2    1    2    0    0 -0.38867427727E+02  0.67967291297E+01 -0.21731107279E+02  0.46142317759E+02  0.99999999809E+01 0.  0.
        -12    1    1    2    0    0  0.38867427727E+02 -0.67967291297E+01  0.21731107279E+02  0.45045682241E+02  0.00000000000E+00 0.  1.
         11    1    3    3    0    0 -0.17625062878E+02  0.18053821984E+01 -0.13103039464E+02  0.22036149613E+02  0.51100000000E-03 0. -1.
        -11    1    3    3    0    0 -0.15167200152E+01  0.93589277012E+00 -0.24730756429E+01  0.30483500912E+01  0.51100000000E-03 0.  1.
        -12    1    3    3    0    0 -0.19725644834E+02  0.40554541612E+01 -0.61549921723E+01  0.21057818055E+02  0.00000000000E+00 0.  1.
</event>
<event>
 7    1  0.3910495E-008  0.4614232E+02  0.7816164E-02  0.1320468E+00
        -11   -1    0    0    0    0  0.00000000000E+00  0.00000000000E+00  0.45593999997E+02  0.45594000000E+02  0.51100000000E-03 0.  1.
         11   -1    0    0    0    0 -0.00000000000E+00 -0.00000000000E+00 -0.45593999997E+02  0.45594000000E+02  0.51100000000E-03 0. -1.
    9900012    2    1    2    0    0  0.36016739693E+02  0.34154236186E+01 -0.26837339807E+02  0.46142318026E+02  0.10000002416E+02 0.  0.
        -12    1    1    2    0    0 -0.36016739693E+02 -0.34154236186E+01  0.26837339807E+02  0.45045681974E+02  0.00000000000E+00 0.  1.
         11    1    3    3    0    0  0.58854895657E+00  0.40729607461E-01 -0.14292160206E+01  0.15461912786E+01  0.51100000000E-03 0. -1.
        -11    1    3    3    0    0  0.70807246655E+01  0.41521032587E+01 -0.69944298533E+01  0.10784186223E+02  0.51100000000E-03 0.  1.
         12    1    3    3    0    0  0.28347466071E+02 -0.77740924760E+00 -0.18413693933E+02  0.33811940524E+02  0.00000000000E+00 0. -1.
</event>
<event>
 7    1  0.3910495E-008  0.4614232E+02  0.7816164E-02  0.1320468E+00
        -11   -1    0    0    0    0  0.00000000000E+00  0.00000000000E+00  0.45593999997E+02  0.45594000000E+02  0.51100000000E-03 0. -1.
         11   -1    0    0    0    0 -0.00000000000E+00 -0.00000000000E+00 -0.45593999997E+02  0.45594000000E+02  0.51100000000E-03 0.  1.
    9900012    2    1    2    0    0 -0.41242481804E+02 -0.17074273513E+02 -0.60531313455E+01  0.46142317405E+02  0.99999967513E+01 0.  0.
        -12    1    1    2    0    0  0.41242481804E+02  0.17074273513E+02  0.60531313455E+01  0.45045682595E+02  0.00000000000E+00 0.  1.
         11    1    3    3    0    0 -0.13919647630E+02 -0.89088346018E+01 -0.33655844042E+01  0.16865677654E+02  0.51100000000E-03 0. -1.
        -11    1    3    3    0    0 -0.36651353950E+01 -0.34269457424E+01 -0.71818026687E+00  0.50688221257E+01  0.51100000000E-03 0.  1.
        -12    1    3    3    0    0 -0.23657698780E+02 -0.47384931690E+01 -0.19693666745E+01  0.24207817625E+02  0.00000000000E+00 0.  1.
</event>
<event>
 7    1  0.4523176E-008  0.4614232E+02  0.7816164E-02  0.1320468E+00
        -11   -1    0    0    0    0  0.00000000000E+00  0.00000000000E+00  0.45593999997E+02  0.45594000000E+02  0.51100000000E-03 0.  1.
         11   -1    0    0    0    0 -0.00000000000E+00 -0.00000000000E+00 -0.45593999997E+02  0.45594000000E+02  0.51100000000E-03 0. -1.
    9900012    2    1    2    0    0  0.17643014323E+02  0.39514580918E+02 -0.12507413540E+02  0.46142318154E+02  0.10000003580E+02 0.  0.
        -12    1    1    2    0    0 -0.17643014323E+02 -0.39514580918E+02  0.12507413540E+02  0.45045681846E+02  0.00000000000E+00 0.  1.
         11    1    3    3    0    0 -0.39987132481E+00  0.79792747101E+00 -0.31232057482E+00  0.94558433150E+00  0.51100000000E-03 0. -1.
        -11    1    3    3    0    0  0.30773032751E+00  0.13342909036E+01  0.10792265725E+01  0.17434908734E+01  0.51100000000E-03 0.  1.
         12    1    3    3    0    0  0.17735155320E+02  0.37382362544E+02 -0.13274319537E+02  0.43453242949E+02  0.00000000000E+00 0. -1.
</event>
<event>
 7    1  0.3910495E-008  0.4614232E+02  0.7816164E-02  0.1320468E+00
        -11   -1    0    0    0    0  0.00000000000E+00  0.00000000000E+00  0.45593999997E+02  0.45594000000E+02  0.51100000000E-03 0. -1.
         11   -1    0    0    0    0 -0.00000000000E+00 -0.00000000000E+00 -0.45593999997E+02  0.45594000000E+02  0.51100000000E-03 0.  1.
    9900012    2    1    2    0    0 -0.36514837726E+02  0.22744728399E+02  0.13358796863E+02  0.46142317657E+02  0.99999990499E+01 0.  0.
        -12    1    1    2    0    0  0.36514837726E+02 -0.22744728399E+02 -0.13358796863E+02  0.45045682343E+02  0.00000000000E+00 0.  1.
         11    1    3    3    0    0 -0.19676670010E+02  0.10964132762E+02  0.23269642657E+01  0.22645050516E+02  0.51100000000E-03 0. -1.
        -11    1    3    3    0    0 -0.20557101473E+01  0.18804073579E+01  0.25927889033E+01  0.38058416414E+01  0.51100000000E-03 0.  1.
         12    1    3    3    0    0 -0.14782457569E+02  0.99001882795E+01  0.84390436943E+01  0.19691425500E+02  0.00000000000E+00 0. -1.
</event>
<event>
 7    1  0.3910495E-008  0.4614232E+02  0.7816164E-02  0.1320468E+00
        -11   -1    0    0    0    0  0.00000000000E+00  0.00000000000E+00  0.45593999997E+02  0.45594000000E+02  0.51100000000E-03 0. -1.
         11   -1    0    0    0    0 -0.00000000000E+00 -0.00000000000E+00 -0.45593999997E+02  0.45594000000E+02  0.51100000000E-03 0.  1.
    9900012    2    1    2    0    0  0.19471669115E+02  0.38582626768E+02 -0.12702300748E+02  0.46142318401E+02  0.10000005836E+02 0.  0.
        -12    1    1    2    0    0 -0.19471669115E+02 -0.38582626768E+02  0.12702300748E+02  0.45045681599E+02  0.00000000000E+00 0.  1.
         11    1    3    3    0    0  0.44255779477E+01  0.98342940779E+01 -0.10806102286E+01  0.10838210134E+02  0.51100000000E-03 0.  1.
        -11    1    3    3    0    0  0.24992479589E+01  0.10143481617E+02 -0.64435595797E+01  0.12274197326E+02  0.51100000000E-03 0. -1.
         12    1    3    3    0    0  0.12546843209E+02  0.18604851073E+02 -0.51781309394E+01  0.23029910941E+02  0.00000000000E+00 0. -1.
</event>
<event>
 7    1  0.3910495E-008  0.4614232E+02  0.7816164E-02  0.1320468E+00
        -11   -1    0    0    0    0  0.00000000000E+00  0.00000000000E+00  0.45593999997E+02  0.45594000000E+02  0.51100000000E-03 0. -1.
         11   -1    0    0    0    0 -0.00000000000E+00 -0.00000000000E+00 -0.45593999997E+02  0.45594000000E+02  0.51100000000E-03 0.  1.
    9900012    2    1    2    0    0 -0.33725881700E+02  0.15578094806E+02  0.25475504087E+02  0.46142318268E+02  0.10000004621E+02 0.  0.
        -12    1    1    2    0    0  0.33725881700E+02 -0.15578094806E+02 -0.25475504087E+02  0.45045681732E+02  0.00000000000E+00 0.  1.
         11    1    3    3    0    0 -0.75967513001E+01  0.12133178347E+01  0.53794865674E+01  0.93873130593E+01  0.51100000000E-03 0. -1.
        -11    1    3    3    0    0  0.30711696855E+00 -0.23921496100E-02  0.11696178152E+01  0.12092694693E+01  0.51100000000E-03 0.  1.
         12    1    3    3    0    0 -0.26436247368E+02  0.14367169121E+02  0.18926399704E+02  0.35545735739E+02  0.00000000000E+00 0. -1.
</event>
<event>
 7    1  0.3910495E-008  0.4614232E+02  0.7816164E-02  0.1320468E+00
        -11   -1    0    0    0    0  0.00000000000E+00  0.00000000000E+00  0.45593999997E+02  0.45594000000E+02  0.51100000000E-03 0.  1.
         11   -1    0    0    0    0 -0.00000000000E+00 -0.00000000000E+00 -0.45593999997E+02  0.45594000000E+02  0.51100000000E-03 0. -1.
    9900012    2    1    2    0    0 -0.20611895514E+02  0.91275132333E+01 -0.38999380109E+02  0.46142318927E+02  0.10000010628E+02 0.  0.
        -12    1    1    2    0    0  0.20611895514E+02 -0.91275132333E+01  0.38999380109E+02  0.45045681073E+02  0.00000000000E+00 0.  1.
         11    1    3    3    0    0 -0.81143097341E+01  0.56337761098E+01 -0.23178834757E+02  0.25196028193E+02  0.51100000000E-03 0. -1.
        -11    1    3    3    0    0 -0.32192812407E+01  0.30547008840E+01 -0.49759040761E+01  0.66674276024E+01  0.51100000000E-03 0.  1.
         12    1    3    3    0    0 -0.92783045388E+01  0.43903623951E+00 -0.10844641275E+02  0.14278863131E+02  0.00000000000E+00 0. -1.
</event>
<event>
 7    1  0.3910495E-008  0.4614232E+02  0.7816164E-02  0.1320468E+00
        -11   -1    0    0    0    0  0.00000000000E+00  0.00000000000E+00  0.45593999997E+02  0.45594000000E+02  0.51100000000E-03 0.  1.
         11   -1    0    0    0    0 -0.00000000000E+00 -0.00000000000E+00 -0.45593999997E+02  0.45594000000E+02  0.51100000000E-03 0. -1.
    9900012    2    1    2    0    0  0.61456723329E+01 -0.14308118353E+01 -0.44601538093E+02  0.46142315288E+02  0.99999774478E+01 0.  0.
        -12    1    1    2    0    0 -0.61456723329E+01  0.14308118353E+01  0.44601538093E+02  0.45045684712E+02  0.00000000000E+00 0.  1.
         11    1    3    3    0    0  0.37579765898E+01 -0.49536423374E+01 -0.25767085074E+02  0.26506671499E+02  0.51100000000E-03 0. -1.
        -11    1    3    3    0    0 -0.35675736558E+00 -0.23842170426E+00 -0.29564434007E+00  0.52108210859E+00  0.51100000000E-03 0.  1.
         12    1    3    3    0    0  0.27444531087E+01  0.37612522063E+01 -0.18538808679E+02  0.19114561681E+02  0.00000000000E+00 0. -1.
</event>
<event>
 7    1  0.3910495E-008  0.4614232E+02  0.7816164E-02  0.1320468E+00
        -11   -1    0    0    0    0  0.00000000000E+00  0.00000000000E+00  0.45593999997E+02  0.45594000000E+02  0.51100000000E-03 0.  1.
         11   -1    0    0    0    0 -0.00000000000E+00 -0.00000000000E+00 -0.45593999997E+02  0.45594000000E+02  0.51100000000E-03 0. -1.
    9900012    2    1    2    0    0 -0.40472640825E+02  0.63895268095E+01 -0.18715037874E+02  0.46142319287E+02  0.10000013918E+02 0.  0.
        -12    1    1    2    0    0  0.40472640825E+02 -0.63895268095E+01  0.18715037874E+02  0.45045680713E+02  0.00000000000E+00 0.  1.
         11    1    3    3    0    0 -0.31394101080E+02  0.65160650632E+01 -0.15728037285E+02  0.35713020645E+02  0.51100000000E-03 0. -1.
        -11    1    3    3    0    0 -0.75657599123E+01  0.14647021116E+01 -0.17252585803E+01  0.78969989715E+01  0.51100000000E-03 0.  1.
         12    1    3    3    0    0 -0.15127798333E+01 -0.15912403653E+01 -0.12617420089E+01  0.25322996705E+01  0.00000000000E+00 0. -1.
</event>
<event>
 7    1  0.3910495E-008  0.4614232E+02  0.7816164E-02  0.1320468E+00
        -11   -1    0    0    0    0  0.00000000000E+00  0.00000000000E+00  0.45593999997E+02  0.45594000000E+02  0.51100000000E-03 0.  1.
         11   -1    0    0    0    0 -0.00000000000E+00 -0.00000000000E+00 -0.45593999997E+02  0.45594000000E+02  0.51100000000E-03 0. -1.
    9900012    2    1    2    0    0 -0.70372190087E+01  0.39276049734E+02 -0.20904137933E+02  0.46142317445E+02  0.99999971211E+01 0.  0.
        -12    1    1    2    0    0  0.70372190087E+01 -0.39276049734E+02  0.20904137933E+02  0.45045682555E+02  0.00000000000E+00 0.  1.
         11    1    3    3    0    0 -0.58253266498E+01  0.21849744507E+02 -0.11015757249E+02  0.25153382946E+02  0.51100000000E-03 0. -1.
        -11    1    3    3    0    0  0.15705650186E+01  0.38578606184E+01 -0.44866577404E+01  0.61220797912E+01  0.51100000000E-03 0.  1.
        -12    1    3    3    0    0 -0.27824573775E+01  0.13568444609E+02 -0.54017229435E+01  0.14866854708E+02  0.00000000000E+00 0.  1.
</event>
<event>
 7    1  0.3910495E-008  0.4614232E+02  0.7816164E-02  0.1320468E+00
        -11   -1    0    0    0    0  0.00000000000E+00  0.00000000000E+00  0.45593999997E+02  0.45594000000E+02  0.51100000000E-03 0.  1.
         11   -1    0    0    0    0 -0.00000000000E+00 -0.00000000000E+00 -0.45593999997E+02  0.45594000000E+02  0.51100000000E-03 0. -1.
    9900012    2    1    2    0    0 -0.30492495628E+02 -0.16050207455E+00 -0.33155624513E+02  0.46142317772E+02  0.10000000098E+02 0.  0.
        -12    1    1    2    0    0  0.30492495628E+02  0.16050207455E+00  0.33155624513E+02  0.45045682228E+02  0.00000000000E+00 0.  1.
         11    1    3    3    0    0 -0.98335623723E+01 -0.22854317030E+01 -0.15049325305E+02  0.18121929793E+02  0.51100000000E-03 0. -1.
        -11    1    3    3    0    0 -0.16077365672E+02  0.24284734625E+01 -0.11263881836E+02  0.19780146728E+02  0.51100000000E-03 0.  1.
        -12    1    3    3    0    0 -0.45815675834E+01 -0.30354383401E+00 -0.68424173724E+01  0.82402412513E+01  0.00000000000E+00 0.  1.
</event>
<event>
 7    1  0.3910495E-008  0.4614232E+02  0.7816164E-02  0.1320468E+00
        -11   -1    0    0    0    0  0.00000000000E+00  0.00000000000E+00  0.45593999997E+02  0.45594000000E+02  0.51100000000E-03 0.  1.
         11   -1    0    0    0    0 -0.00000000000E+00 -0.00000000000E+00 -0.45593999997E+02  0.45594000000E+02  0.51100000000E-03 0. -1.
    9900012    2    1    2    0    0  0.37857643650E+02 -0.24460787513E+01 -0.24288453831E+02  0.46142317926E+02  0.10000001503E+02 0.  0.
        -12    1    1    2    0    0 -0.37857643650E+02  0.24460787513E+01  0.24288453831E+02  0.45045682074E+02  0.00000000000E+00 0.  1.
         11    1    3    3    0    0  0.13237746722E+02 -0.27005645515E+01 -0.83875034975E+01  0.15902238910E+02  0.51100000000E-03 0. -1.
        -11    1    3    3    0    0  0.18182422926E+02 -0.31272089361E+01 -0.11523913646E+02  0.21752713053E+02  0.51100000000E-03 0.  1.
        -12    1    3    3    0    0  0.64374740025E+01  0.33816947362E+01 -0.43770366875E+01  0.84873659628E+01  0.00000000000E+00 0.  1.
</event>
<event>
 7    1  0.3910495E-008  0.4614232E+02  0.7816164E-02  0.1320468E+00
        -11   -1    0    0    0    0  0.00000000000E+00  0.00000000000E+00  0.45593999997E+02  0.45594000000E+02  0.51100000000E-03 0.  1.
         11   -1    0    0    0    0 -0.00000000000E+00 -0.00000000000E+00 -0.45593999997E+02  0.45594000000E+02  0.51100000000E-03 0. -1.
    9900012    2    1    2    0    0  0.59751534488E+01 -0.35303901840E+01 -0.44507835392E+02  0.46142317356E+02  0.99999963079E+01 0.  0.
        -12    1    1    2    0    0 -0.59751534488E+01  0.35303901840E+01  0.44507835392E+02  0.45045682644E+02  0.00000000000E+00 0.  1.
         11    1    3    3    0    0  0.35405617835E+01  0.99496119030E+00 -0.28323592886E+02  0.28561362708E+02  0.51100000000E-03 0. -1.
        -11    1    3    3    0    0 -0.94894827212E-01 -0.41784448306E+01 -0.11653864689E+02  0.12380669153E+02  0.51100000000E-03 0.  1.
         12    1    3    3    0    0  0.25294864925E+01 -0.34690654374E+00 -0.45303778165E+01  0.52002854947E+01  0.00000000000E+00 0. -1.
</event>
<event>
 7    1  0.3910495E-008  0.4614232E+02  0.7816164E-02  0.1320468E+00
        -11   -1    0    0    0    0  0.00000000000E+00  0.00000000000E+00  0.45593999997E+02  0.45594000000E+02  0.51100000000E-03 0.  1.
         11   -1    0    0    0    0 -0.00000000000E+00 -0.00000000000E+00 -0.45593999997E+02  0.45594000000E+02  0.51100000000E-03 0. -1.
    9900012    2    1    2    0    0 -0.16617600904E+00 -0.99083262059E+01 -0.43942134537E+02  0.46142315075E+02  0.99999755087E+01 0.  0.
        -12    1    1    2    0    0  0.16617600904E+00  0.99083262059E+01  0.43942134537E+02  0.45045684925E+02  0.00000000000E+00 0.  1.
         11    1    3    3    0    0 -0.44145816493E+00  0.20913766961E+00 -0.34619527896E+01  0.34962467383E+01  0.51100000000E-03 0. -1.
        -11    1    3    3    0    0  0.42985601993E+01 -0.42683837460E+01 -0.14527140690E+02  0.15739585016E+02  0.51100000000E-03 0.  1.
         12    1    3    3    0    0 -0.40232780434E+01 -0.58490801294E+01 -0.25953041057E+02  0.26906483321E+02  0.00000000000E+00 0. -1.
</event>
<event>
 7    1  0.3910495E-008  0.4614232E+02  0.7816164E-02  0.1320468E+00
        -11   -1    0    0    0    0  0.00000000000E+00  0.00000000000E+00  0.45593999997E+02  0.45594000000E+02  0.51100000000E-03 0.  1.
         11   -1    0    0    0    0 -0.00000000000E+00 -0.00000000000E+00 -0.45593999997E+02  0.45594000000E+02  0.51100000000E-03 0. -1.
    9900012    2    1    2    0    0 -0.42435778391E+02  0.21346087262E+01  0.14958667965E+02  0.46142316640E+02  0.99999897767E+01 0.  0.
        -12    1    1    2    0    0  0.42435778391E+02 -0.21346087262E+01 -0.14958667965E+02  0.45045683360E+02  0.00000000000E+00 0.  1.
         11    1    3    3    0    0 -0.33335891173E+02  0.37068816230E+00  0.10409315457E+02  0.34925247294E+02  0.51100000000E-03 0. -1.
        -11    1    3    3    0    0 -0.46946207057E+01 -0.23701854956E-01  0.85102533444E-01  0.46954518473E+01  0.51100000000E-03 0.  1.
         12    1    3    3    0    0 -0.44052665127E+01  0.17876224189E+01  0.44642499753E+01  0.65216174989E+01  0.00000000000E+00 0. -1.
</event>
<event>
 7    1  0.3910495E-008  0.4614232E+02  0.7816164E-02  0.1320468E+00
        -11   -1    0    0    0    0  0.00000000000E+00  0.00000000000E+00  0.45593999997E+02  0.45594000000E+02  0.51100000000E-03 0.  1.
         11   -1    0    0    0    0 -0.00000000000E+00 -0.00000000000E+00 -0.45593999997E+02  0.45594000000E+02  0.51100000000E-03 0. -1.
    9900012    2    1    2    0    0 -0.18243822938E+02  0.12075110654E+01 -0.41168171071E+02  0.46142317990E+02  0.10000002087E+02 0.  0.
        -12    1    1    2    0    0  0.18243822938E+02 -0.12075110654E+01  0.41168171071E+02  0.45045682010E+02  0.00000000000E+00 0.  1.
         11    1    3    3    0    0 -0.96284087233E+01  0.23612930784E+01 -0.25898539374E+02  0.27731143170E+02  0.51100000000E-03 0. -1.
        -11    1    3    3    0    0  0.83451877867E-01  0.12567050608E+01 -0.18283366227E+01  0.22201547002E+01  0.51100000000E-03 0.  1.
        -12    1    3    3    0    0 -0.86988660930E+01 -0.24104870738E+01 -0.13441295074E+02  0.16191020120E+02  0.00000000000E+00 0.  1.
</event>
<event>
 7    1  0.3910495E-008  0.4614232E+02  0.7816164E-02  0.1320468E+00
        -11   -1    0    0    0    0  0.00000000000E+00  0.00000000000E+00  0.45593999997E+02  0.45594000000E+02  0.51100000000E-03 0. -1.
         11   -1    0    0    0    0 -0.00000000000E+00 -0.00000000000E+00 -0.45593999997E+02  0.45594000000E+02  0.51100000000E-03 0.  1.
    9900012    2    1    2    0    0  0.13392915426E+02 -0.38595085020E+02  0.18977954499E+02  0.46142317318E+02  0.99999959578E+01 0.  0.
        -12    1    1    2    0    0 -0.13392915426E+02  0.38595085020E+02 -0.18977954499E+02  0.45045682682E+02  0.00000000000E+00 0.  1.
         11    1    3    3    0    0  0.11705355507E+02 -0.30174127136E+02  0.13963399324E+02  0.35248685322E+02  0.51100000000E-03 0. -1.
        -11    1    3    3    0    0  0.17415489667E+01 -0.51384200257E+01  0.53173110392E+01  0.75967196942E+01  0.51100000000E-03 0.  1.
         12    1    3    3    0    0 -0.53989047795E-01 -0.32825378591E+01 -0.30275586474E+00  0.32969123021E+01  0.00000000000E+00 0. -1.
</event>
<event>
 7    1  0.3910495E-008  0.4614232E+02  0.7816164E-02  0.1320468E+00
        -11   -1    0    0    0    0  0.00000000000E+00  0.00000000000E+00  0.45593999997E+02  0.45594000000E+02  0.51100000000E-03 0.  1.
         11   -1    0    0    0    0 -0.00000000000E+00 -0.00000000000E+00 -0.45593999997E+02  0.45594000000E+02  0.51100000000E-03 0. -1.
    9900012    2    1    2    0    0 -0.12567664416E+02 -0.38987833878E+02 -0.18738096451E+02  0.46142316100E+02  0.99999848527E+01 0.  0.
        -12    1    1    2    0    0  0.12567664416E+02  0.38987833878E+02  0.18738096451E+02  0.45045683900E+02  0.00000000000E+00 0.  1.
         11    1    3    3    0    0  0.40078912300E+00 -0.36182155904E+01 -0.15650982480E+01  0.39625306014E+01  0.51100000000E-03 0. -1.
        -11    1    3    3    0    0 -0.40082739012E+01 -0.36010727348E+01 -0.36550989336E+01  0.65110469959E+01  0.51100000000E-03 0.  1.
         12    1    3    3    0    0 -0.89601796376E+01 -0.31768545553E+02 -0.13517899270E+02  0.35668738503E+02  0.00000000000E+00 0. -1.
</event>
<event>
 7    1  0.3910495E-008  0.4614232E+02  0.7816164E-02  0.1320468E+00
        -11   -1    0    0    0    0  0.00000000000E+00  0.00000000000E+00  0.45593999997E+02  0.45594000000E+02  0.51100000000E-03 0.  1.
         11   -1    0    0    0    0 -0.00000000000E+00 -0.00000000000E+00 -0.45593999997E+02  0.45594000000E+02  0.51100000000E-03 0. -1.
    9900012    2    1    2    0    0  0.43738824963E+02 -0.10749735955E+02  0.68700291110E+00  0.46142316464E+02  0.99999881718E+01 0.  0.
        -12    1    1    2    0    0 -0.43738824963E+02  0.10749735955E+02 -0.68700291110E+00  0.45045683536E+02  0.00000000000E+00 0.  1.
         11    1    3    3    0    0  0.13351674790E+02 -0.26637816968E+01  0.17390739794E+01  0.13725426449E+02  0.51100000000E-03 0. -1.
        -11    1    3    3    0    0  0.10026746338E+02 -0.10531958682E+01  0.29561290905E+01  0.10506358224E+02  0.51100000000E-03 0.  1.
        -12    1    3    3    0    0  0.20360403835E+02 -0.70327583897E+01 -0.40082001588E+01  0.21910531792E+02  0.00000000000E+00 0.  1.
</event>
<event>
 7    1  0.3910495E-008  0.4614232E+02  0.7816164E-02  0.1320468E+00
        -11   -1    0    0    0    0  0.00000000000E+00  0.00000000000E+00  0.45593999997E+02  0.45594000000E+02  0.51100000000E-03 0.  1.
         11   -1    0    0    0    0 -0.00000000000E+00 -0.00000000000E+00 -0.45593999997E+02  0.45594000000E+02  0.51100000000E-03 0. -1.
    9900012    2    1    2    0    0  0.92501900278E+01  0.60647594828E+01 -0.43666535351E+02  0.46142316159E+02  0.99999853894E+01 0.  0.
        -12    1    1    2    0    0 -0.92501900278E+01 -0.60647594828E+01  0.43666535351E+02  0.45045683841E+02  0.00000000000E+00 0.  1.
         11    1    3    3    0    0  0.75617948507E+01  0.35788557604E+01 -0.38159342889E+02  0.39065642192E+02  0.51100000000E-03 0. -1.
        -11    1    3    3    0    0  0.21846682301E+01  0.27966960168E+01 -0.54288691937E+01  0.64859004671E+01  0.51100000000E-03 0.  1.
        -12    1    3    3    0    0 -0.49627305296E+00 -0.31079229448E+00 -0.78323268740E-01  0.59077349960E+00  0.00000000000E+00 0.  1.
</event>
<event>
 7    1  0.3910495E-008  0.4614232E+02  0.7816164E-02  0.1320468E+00
        -11   -1    0    0    0    0  0.00000000000E+00  0.00000000000E+00  0.45593999997E+02  0.45594000000E+02  0.51100000000E-03 0.  1.
         11   -1    0    0    0    0 -0.00000000000E+00 -0.00000000000E+00 -0.45593999997E+02  0.45594000000E+02  0.51100000000E-03 0. -1.
    9900012    2    1    2    0    0 -0.33165617199E+01 -0.24628228314E+02 -0.37570782651E+02  0.46142324064E+02  0.10000057472E+02 0.  0.
        -12    1    1    2    0    0  0.33165617199E+01  0.24628228314E+02  0.37570782651E+02  0.45045675936E+02  0.00000000000E+00 0.  1.
         11    1    3    3    0    0 -0.18058805578E+01 -0.32011921544E+01 -0.70844004952E+01  0.79810755188E+01  0.51100000000E-03 0. -1.
        -11    1    3    3    0    0 -0.12340791799E+01 -0.42709123977E+01 -0.19301131405E+01  0.48465432142E+01  0.51100000000E-03 0.  1.
         12    1    3    3    0    0 -0.27660198224E+00 -0.17156123762E+02 -0.28556269016E+02  0.33314705331E+02  0.00000000000E+00 0. -1.
</event>
<event>
 7    1  0.3910495E-008  0.4614232E+02  0.7816164E-02  0.1320468E+00
        -11   -1    0    0    0    0  0.00000000000E+00  0.00000000000E+00  0.45593999997E+02  0.45594000000E+02  0.51100000000E-03 0.  1.
         11   -1    0    0    0    0 -0.00000000000E+00 -0.00000000000E+00 -0.45593999997E+02  0.45594000000E+02  0.51100000000E-03 0. -1.
    9900012    2    1    2    0    0 -0.25273490300E+02 -0.35056067735E+02  0.12705758191E+02  0.46142317763E+02  0.10000000017E+02 0.  0.
        -12    1    1    2    0    0  0.25273490300E+02  0.35056067735E+02 -0.12705758191E+02  0.45045682237E+02  0.00000000000E+00 0.  1.
         11    1    3    3    0    0 -0.58436370885E+01 -0.81055011104E+01  0.67104826218E+01  0.12036520259E+02  0.51100000000E-03 0. -1.
        -11    1    3    3    0    0 -0.16012087253E+01 -0.51490217309E+01  0.13899653810E+01  0.55685095123E+01  0.51100000000E-03 0.  1.
         12    1    3    3    0    0 -0.17828644487E+02 -0.21801544894E+02  0.46053101880E+01  0.28537287991E+02  0.00000000000E+00 0. -1.
</event>
<event>
 7    1  0.3910495E-008  0.4614232E+02  0.7816164E-02  0.1320468E+00
        -11   -1    0    0    0    0  0.00000000000E+00  0.00000000000E+00  0.45593999997E+02  0.45594000000E+02  0.51100000000E-03 0.  1.
         11   -1    0    0    0    0 -0.00000000000E+00 -0.00000000000E+00 -0.45593999997E+02  0.45594000000E+02  0.51100000000E-03 0. -1.
    9900012    2    1    2    0    0  0.21765456609E+02 -0.11421852745E+02 -0.37748108364E+02  0.46142317559E+02  0.99999981547E+01 0.  0.
        -12    1    1    2    0    0 -0.21765456609E+02  0.11421852745E+02  0.37748108364E+02  0.45045682441E+02  0.00000000000E+00 0.  1.
         11    1    3    3    0    0  0.45814156648E+01 -0.24180136029E+01 -0.34834055667E+01  0.62426175505E+01  0.51100000000E-03 0. -1.
        -11    1    3    3    0    0  0.81416417803E+01 -0.24828197345E+01 -0.95854562837E+01  0.12819192531E+02  0.51100000000E-03 0.  1.
         12    1    3    3    0    0  0.90423991636E+01 -0.65210194071E+01 -0.24679246514E+02  0.27080507478E+02  0.00000000000E+00 0. -1.
</event>
<event>
 7    1  0.3910495E-008  0.4614232E+02  0.7816164E-02  0.1320468E+00
        -11   -1    0    0    0    0  0.00000000000E+00  0.00000000000E+00  0.45593999997E+02  0.45594000000E+02  0.51100000000E-03 0. -1.
         11   -1    0    0    0    0 -0.00000000000E+00 -0.00000000000E+00 -0.45593999997E+02  0.45594000000E+02  0.51100000000E-03 0.  1.
    9900012    2    1    2    0    0  0.25457973034E+02  0.37049466776E+02  0.28882398699E+01  0.46142319753E+02  0.10000018162E+02 0.  0.
        -12    1    1    2    0    0 -0.25457973034E+02 -0.37049466776E+02 -0.28882398699E+01  0.45045680247E+02  0.00000000000E+00 0.  1.
         11    1    3    3    0    0  0.12120045212E+02  0.12516413618E+02  0.24689255342E+01  0.17596923008E+02  0.51100000000E-03 0. -1.
        -11    1    3    3    0    0 -0.50189986485E+00  0.27951778172E+00  0.23405194388E+00  0.62033397310E+00  0.51100000000E-03 0.  1.
        -12    1    3    3    0    0  0.13839827687E+02  0.24253535376E+02  0.18526239178E+00  0.27925062771E+02  0.00000000000E+00 0.  1.
</event>
<event>
 7    1  0.3910495E-008  0.4614232E+02  0.7816164E-02  0.1320468E+00
        -11   -1    0    0    0    0  0.00000000000E+00  0.00000000000E+00  0.45593999997E+02  0.45594000000E+02  0.51100000000E-03 0. -1.
         11   -1    0    0    0    0 -0.00000000000E+00 -0.00000000000E+00 -0.45593999997E+02  0.45594000000E+02  0.51100000000E-03 0.  1.
    9900012    2    1    2    0    0 -0.36962252120E+02  0.25666597019E+02 -0.20325277150E+01  0.46142318151E+02  0.10000003557E+02 0.  0.
        -12    1    1    2    0    0  0.36962252120E+02 -0.25666597019E+02  0.20325277150E+01  0.45045681849E+02  0.00000000000E+00 0.  1.
         11    1    3    3    0    0 -0.98389921055E+01  0.71581640957E+01 -0.15940486185E+01  0.12271351602E+02  0.51100000000E-03 0. -1.
        -11    1    3    3    0    0 -0.10590673785E+02  0.90013144911E+01 -0.40146867005E+01  0.14467333664E+02  0.51100000000E-03 0.  1.
         12    1    3    3    0    0 -0.16532586230E+02  0.95071184319E+01  0.35762076040E+01  0.19403632885E+02  0.00000000000E+00 0. -1.
</event>
<event>
 7    1  0.3910495E-008  0.4614232E+02  0.7816164E-02  0.1320468E+00
        -11   -1    0    0    0    0  0.00000000000E+00  0.00000000000E+00  0.45593999997E+02  0.45594000000E+02  0.51100000000E-03 0.  1.
         11   -1    0    0    0    0 -0.00000000000E+00 -0.00000000000E+00 -0.45593999997E+02  0.45594000000E+02  0.51100000000E-03 0. -1.
    9900012    2    1    2    0    0 -0.36094775849E+01 -0.15043738111E+02 -0.42305687018E+02  0.46142317201E+02  0.99999948889E+01 0.  0.
        -12    1    1    2    0    0  0.36094775849E+01  0.15043738111E+02  0.42305687018E+02  0.45045682799E+02  0.00000000000E+00 0.  1.
         11    1    3    3    0    0  0.15404428095E+01 -0.16838926743E+01 -0.79017500473E+01  0.82247256889E+01  0.51100000000E-03 0.  1.
        -11    1    3    3    0    0 -0.15596531765E+01 -0.18043638602E+01 -0.13950181229E+02  0.14152589995E+02  0.51100000000E-03 0. -1.
         12    1    3    3    0    0 -0.35902672179E+01 -0.11555481576E+02 -0.20453755742E+02  0.23765001517E+02  0.00000000000E+00 0. -1.
</event>
<event>
 7    1  0.3910495E-008  0.4614232E+02  0.7816164E-02  0.1320468E+00
        -11   -1    0    0    0    0  0.00000000000E+00  0.00000000000E+00  0.45593999997E+02  0.45594000000E+02  0.51100000000E-03 0.  1.
         11   -1    0    0    0    0 -0.00000000000E+00 -0.00000000000E+00 -0.45593999997E+02  0.45594000000E+02  0.51100000000E-03 0. -1.
    9900012    2    1    2    0    0  0.69339824620E+01 -0.20441500478E+01 -0.44461834831E+02  0.46142318534E+02  0.10000007046E+02 0.  0.
        -12    1    1    2    0    0 -0.69339824620E+01  0.20441500478E+01  0.44461834831E+02  0.45045681466E+02  0.00000000000E+00 0.  1.
         11    1    3    3    0    0  0.35964943834E+01 -0.10203673729E+01 -0.21824882577E+02  0.22142750985E+02  0.51100000000E-03 0. -1.
        -11    1    3    3    0    0 -0.48016125278E-01 -0.11689779312E+01 -0.18972283970E+02  0.19008323815E+02  0.51100000000E-03 0.  1.
        -12    1    3    3    0    0  0.33855042039E+01  0.14519525630E+00 -0.36646682838E+01  0.49912437335E+01  0.00000000000E+00 0.  1.
</event>
<event>
 7    1  0.3910495E-008  0.4614232E+02  0.7816164E-02  0.1320468E+00
        -11   -1    0    0    0    0  0.00000000000E+00  0.00000000000E+00  0.45593999997E+02  0.45594000000E+02  0.51100000000E-03 0. -1.
         11   -1    0    0    0    0 -0.00000000000E+00 -0.00000000000E+00 -0.45593999997E+02  0.45594000000E+02  0.51100000000E-03 0.  1.
    9900012    2    1    2    0    0  0.53621412329E+01  0.32019481188E+02  0.31226811915E+02  0.46142317448E+02  0.99999971485E+01 0.  0.
        -12    1    1    2    0    0 -0.53621412329E+01 -0.32019481188E+02 -0.31226811915E+02  0.45045682552E+02  0.00000000000E+00 0.  1.
         11    1    3    3    0    0 -0.92248628769E-02  0.14000349647E+02  0.91109902520E+01  0.16703892330E+02  0.51100000000E-03 0. -1.
        -11    1    3    3    0    0  0.13689490099E+01  0.59565884592E+01  0.10858667186E+02  0.12460562619E+02  0.51100000000E-03 0.  1.
        -12    1    3    3    0    0  0.40024170858E+01  0.12062543082E+02  0.11257154478E+02  0.16977862500E+02  0.00000000000E+00 0.  1.
</event>
<event>
 7    1  0.3910495E-008  0.4614232E+02  0.7816164E-02  0.1320468E+00
        -11   -1    0    0    0    0  0.00000000000E+00  0.00000000000E+00  0.45593999997E+02  0.45594000000E+02  0.51100000000E-03 0. -1.
         11   -1    0    0    0    0 -0.00000000000E+00 -0.00000000000E+00 -0.45593999997E+02  0.45594000000E+02  0.51100000000E-03 0.  1.
    9900012    2    1    2    0    0 -0.23565020947E+02  0.36619946684E+02  0.11523142589E+02  0.46142317382E+02  0.99999965436E+01 0.  0.
        -12    1    1    2    0    0  0.23565020947E+02 -0.36619946684E+02 -0.11523142589E+02  0.45045682618E+02  0.00000000000E+00 0.  1.
         11    1    3    3    0    0 -0.58404787652E+01  0.55274172063E+01  0.28754484544E+01  0.85400080360E+01  0.51100000000E-03 0. -1.
        -11    1    3    3    0    0  0.69158875189E+00  0.18264683579E+01 -0.24379712537E-01  0.19531708312E+01  0.51100000000E-03 0.  1.
        -12    1    3    3    0    0 -0.18416130934E+02  0.29266061120E+02  0.86720738476E+01  0.35649138515E+02  0.00000000000E+00 0.  1.
</event>
<event>
 7    1  0.3910495E-008  0.4614231E+02  0.7816164E-02  0.1320468E+00
        -11   -1    0    0    0    0  0.00000000000E+00  0.00000000000E+00  0.45593999997E+02  0.45594000000E+02  0.51100000000E-03 0.  1.
         11   -1    0    0    0    0 -0.00000000000E+00 -0.00000000000E+00 -0.45593999997E+02  0.45594000000E+02  0.51100000000E-03 0. -1.
    9900012    2    1    2    0    0 -0.55517055244E+01 -0.65552362840E+01 -0.44219015163E+02  0.46142313648E+02  0.99999624929E+01 0.  0.
        -12    1    1    2    0    0  0.55517055244E+01  0.65552362840E+01  0.44219015163E+02  0.45045686352E+02  0.00000000000E+00 0.  1.
         11    1    3    3    0    0 -0.71879327813E+01 -0.41575339299E+01 -0.25538146289E+02  0.26854206043E+02  0.51100000000E-03 0. -1.
        -11    1    3    3    0    0  0.14277573330E+01 -0.33713285178E+01 -0.16324207738E+02  0.16729737162E+02  0.51100000000E-03 0.  1.
         12    1    3    3    0    0  0.20846992389E+00  0.97362616373E+00 -0.23566611355E+01  0.25583704430E+01  0.00000000000E+00 0. -1.
</event>
<event>
 7    1  0.3910495E-008  0.4614232E+02  0.7816164E-02  0.1320468E+00
        -11   -1    0    0    0    0  0.00000000000E+00  0.00000000000E+00  0.45593999997E+02  0.45594000000E+02  0.51100000000E-03 0.  1.
         11   -1    0    0    0    0 -0.00000000000E+00 -0.00000000000E+00 -0.45593999997E+02  0.45594000000E+02  0.51100000000E-03 0. -1.
    9900012    2    1    2    0    0  0.15282009274E+02 -0.41398543239E+02  0.90407028100E+01  0.46142317665E+02  0.99999991220E+01 0.  0.
        -12    1    1    2    0    0 -0.15282009274E+02  0.41398543239E+02 -0.90407028100E+01  0.45045682335E+02  0.00000000000E+00 0.  1.
         11    1    3    3    0    0  0.60485225895E+01 -0.24923473642E+02  0.67115793094E+01  0.26510553766E+02  0.51100000000E-03 0. -1.
        -11    1    3    3    0    0  0.39327712375E+01 -0.65836231135E+01  0.33390030027E+01  0.83641929808E+01  0.51100000000E-03 0.  1.
        -12    1    3    3    0    0  0.53007154467E+01 -0.98914464831E+01 -0.10098795021E+01  0.11267570918E+02  0.00000000000E+00 0.  1.
</event>
<event>
 7    1  0.3910495E-008  0.4614232E+02  0.7816164E-02  0.1320468E+00
        -11   -1    0    0    0    0  0.00000000000E+00  0.00000000000E+00  0.45593999997E+02  0.45594000000E+02  0.51100000000E-03 0.  1.
         11   -1    0    0    0    0 -0.00000000000E+00 -0.00000000000E+00 -0.45593999997E+02  0.45594000000E+02  0.51100000000E-03 0. -1.
    9900012    2    1    2    0    0  0.34193412908E+02 -0.26308783062E+02  0.12952683701E+02  0.46142316882E+02  0.99999919829E+01 0.  0.
        -12    1    1    2    0    0 -0.34193412908E+02  0.26308783062E+02 -0.12952683701E+02  0.45045683118E+02  0.00000000000E+00 0.  1.
         11    1    3    3    0    0  0.17036192001E+02 -0.17123768686E+02  0.78713435369E+01  0.25404986543E+02  0.51100000000E-03 0. -1.
        -11    1    3    3    0    0  0.25996946505E+00 -0.44044139980E+00  0.12209553880E+01  0.13237466034E+01  0.51100000000E-03 0.  1.
        -12    1    3    3    0    0  0.16897251442E+02 -0.87445729757E+01  0.38603847764E+01  0.19413583735E+02  0.00000000000E+00 0.  1.
</event>
<event>
 7    1  0.3910495E-008  0.4614232E+02  0.7816164E-02  0.1320468E+00
        -11   -1    0    0    0    0  0.00000000000E+00  0.00000000000E+00  0.45593999997E+02  0.45594000000E+02  0.51100000000E-03 0.  1.
         11   -1    0    0    0    0 -0.00000000000E+00 -0.00000000000E+00 -0.45593999997E+02  0.45594000000E+02  0.51100000000E-03 0. -1.
    9900012    2    1    2    0    0 -0.31579244780E+02 -0.16128094994E+02 -0.27780376975E+02  0.46142317700E+02  0.99999994419E+01 0.  0.
        -12    1    1    2    0    0  0.31579244780E+02  0.16128094994E+02  0.27780376975E+02  0.45045682300E+02  0.00000000000E+00 0.  1.
         11    1    3    3    0    0 -0.16926318116E+02 -0.81135044040E+01 -0.17396600293E+02  0.25592399275E+02  0.51100000000E-03 0.  1.
        -11    1    3    3    0    0 -0.14518826864E+02 -0.84811991637E+01 -0.10736405357E+02  0.19949874010E+02  0.51100000000E-03 0. -1.
        -12    1    3    3    0    0 -0.13409980086E+00  0.46660857385E+00  0.35262867459E+00  0.60004441497E+00  0.00000000000E+00 0.  1.
</event>
<event>
 7    1  0.3910495E-008  0.4614232E+02  0.7816164E-02  0.1320468E+00
        -11   -1    0    0    0    0  0.00000000000E+00  0.00000000000E+00  0.45593999997E+02  0.45594000000E+02  0.51100000000E-03 0.  1.
         11   -1    0    0    0    0 -0.00000000000E+00 -0.00000000000E+00 -0.45593999997E+02  0.45594000000E+02  0.51100000000E-03 0. -1.
    9900012    2    1    2    0    0 -0.97325418748E+01  0.38835575174E+02 -0.20644347357E+02  0.46142319316E+02  0.10000014182E+02 0.  0.
        -12    1    1    2    0    0  0.97325418748E+01 -0.38835575174E+02  0.20644347357E+02  0.45045680684E+02  0.00000000000E+00 0.  1.
         11    1    3    3    0    0 -0.24530328920E+00  0.53257977601E+01 -0.65331183953E+01  0.84324333211E+01  0.51100000000E-03 0. -1.
        -11    1    3    3    0    0  0.12994106241E+00  0.22187114709E+00  0.76676405186E-01  0.26831141952E+00  0.51100000000E-03 0.  1.
        -12    1    3    3    0    0 -0.96171796480E+01  0.33287906267E+02 -0.14187905367E+02  0.37441574576E+02  0.00000000000E+00 0.  1.
</event>
<event>
 7    1  0.3910495E-008  0.4614232E+02  0.7816164E-02  0.1320468E+00
        -11   -1    0    0    0    0  0.00000000000E+00  0.00000000000E+00  0.45593999997E+02  0.45594000000E+02  0.51100000000E-03 0. -1.
         11   -1    0    0    0    0 -0.00000000000E+00 -0.00000000000E+00 -0.45593999997E+02  0.45594000000E+02  0.51100000000E-03 0.  1.
    9900012    2    1    2    0    0 -0.38839860646E+02  0.10550639850E+02  0.20230241952E+02  0.46142318013E+02  0.10000002298E+02 0.  0.
        -12    1    1    2    0    0  0.38839860646E+02 -0.10550639850E+02 -0.20230241952E+02  0.45045681987E+02  0.00000000000E+00 0.  1.
         11    1    3    3    0    0 -0.24275302695E+02  0.71672478388E+01  0.14796930082E+02  0.29319087684E+02  0.51100000000E-03 0. -1.
        -11    1    3    3    0    0 -0.12526479772E+02  0.11034902284E+01  0.55892909770E+01  0.13761197624E+02  0.51100000000E-03 0.  1.
        -12    1    3    3    0    0 -0.20380781790E+01  0.22799017832E+01 -0.15597910721E+00  0.30620327050E+01  0.00000000000E+00 0.  1.
</event>
<event>
 7    1  0.3910495E-008  0.4614232E+02  0.7816164E-02  0.1320468E+00
        -11   -1    0    0    0    0  0.00000000000E+00  0.00000000000E+00  0.45593999997E+02  0.45594000000E+02  0.51100000000E-03 0.  1.
         11   -1    0    0    0    0 -0.00000000000E+00 -0.00000000000E+00 -0.45593999997E+02  0.45594000000E+02  0.51100000000E-03 0. -1.
    9900012    2    1    2    0    0  0.27037296928E+02  0.32324524855E+02 -0.15912984387E+02  0.46142318694E+02  0.10000008503E+02 0.  0.
        -12    1    1    2    0    0 -0.27037296928E+02 -0.32324524855E+02  0.15912984387E+02  0.45045681306E+02  0.00000000000E+00 0.  1.
         11    1    3    3    0    0  0.13046113586E+02  0.16747910689E+02 -0.11640651035E+02  0.24211533387E+02  0.51100000000E-03 0. -1.
        -11    1    3    3    0    0  0.27553852803E+01  0.33833321584E+01 -0.30125312482E+01  0.53023041519E+01  0.51100000000E-03 0.  1.
        -12    1    3    3    0    0  0.11235798061E+02  0.12193282007E+02 -0.12598021045E+01  0.16628481155E+02  0.00000000000E+00 0.  1.
</event>
<event>
 7    1  0.3910495E-008  0.4614230E+02  0.7816164E-02  0.1320468E+00
        -11   -1    0    0    0    0  0.00000000000E+00  0.00000000000E+00  0.45593999997E+02  0.45594000000E+02  0.51100000000E-03 0.  1.
         11   -1    0    0    0    0 -0.00000000000E+00 -0.00000000000E+00 -0.45593999997E+02  0.45594000000E+02  0.51100000000E-03 0. -1.
    9900012    2    1    2    0    0  0.25883200028E+02 -0.18786450408E+02 -0.31721348497E+02  0.46142304167E+02  0.99998760333E+01 0.  0.
        -12    1    1    2    0    0 -0.25883200028E+02  0.18786450408E+02  0.31721348497E+02  0.45045695833E+02  0.00000000000E+00 0.  1.
         11    1    3    3    0    0  0.13750437071E+02 -0.95263777071E+01 -0.16472783407E+02  0.23477201394E+02  0.51100000000E-03 0. -1.
        -11    1    3    3    0    0  0.40414358367E+01  0.50939690505E+00 -0.40492328235E+01  0.57436030111E+01  0.51100000000E-03 0.  1.
        -12    1    3    3    0    0  0.80913271204E+01 -0.97694696061E+01 -0.11199332267E+02  0.16921499761E+02  0.00000000000E+00 0.  1.
</event>
<event>
 7    1  0.3910495E-008  0.4614232E+02  0.7816164E-02  0.1320468E+00
        -11   -1    0    0    0    0  0.00000000000E+00  0.00000000000E+00  0.45593999997E+02  0.45594000000E+02  0.51100000000E-03 0. -1.
         11   -1    0    0    0    0 -0.00000000000E+00 -0.00000000000E+00 -0.45593999997E+02  0.45594000000E+02  0.51100000000E-03 0.  1.
    9900012    2    1    2    0    0 -0.24280756347E+02  0.36837281736E+02 -0.90869686422E+01  0.46142318147E+02  0.10000003521E+02 0.  0.
        -12    1    1    2    0    0  0.24280756347E+02 -0.36837281736E+02  0.90869686422E+01  0.45045681853E+02  0.00000000000E+00 0.  1.
         11    1    3    3    0    0 -0.16516632404E+01  0.35247204489E+01 -0.74586391595E+00  0.39633267523E+01  0.51100000000E-03 0. -1.
        -11    1    3    3    0    0 -0.20896521487E+02  0.33301105784E+02 -0.89893141298E+01  0.40329096512E+02  0.51100000000E-03 0.  1.
        -12    1    3    3    0    0 -0.17325716199E+01  0.11455502751E-01  0.64820940355E+00  0.18498948828E+01  0.00000000000E+00 0.  1.
</event>
<event>
 7    1  0.3910495E-008  0.4614232E+02  0.7816164E-02  0.1320468E+00
        -11   -1    0    0    0    0  0.00000000000E+00  0.00000000000E+00  0.45593999997E+02  0.45594000000E+02  0.51100000000E-03 0. -1.
         11   -1    0    0    0    0 -0.00000000000E+00 -0.00000000000E+00 -0.45593999997E+02  0.45594000000E+02  0.51100000000E-03 0.  1.
    9900012    2    1    2    0    0  0.38245625336E+02  0.87065645836E+01  0.22149070952E+02  0.46142317985E+02  0.10000002037E+02 0.  0.
        -12    1    1    2    0    0 -0.38245625336E+02 -0.87065645836E+01 -0.22149070952E+02  0.45045682015E+02  0.00000000000E+00 0.  1.
         11    1    3    3    0    0  0.26655899858E+02  0.59201019293E+01  0.11366508472E+02  0.29576715828E+02  0.51100000000E-03 0.  1.
        -11    1    3    3    0    0  0.11739094648E+02  0.26927081763E+01  0.96878094637E+01  0.15456735520E+02  0.51100000000E-03 0. -1.
        -12    1    3    3    0    0 -0.14936916903E+00  0.93754477988E-01  0.10947530162E+01  0.11088666364E+01  0.00000000000E+00 0.  1.
</event>
<event>
 7    1  0.3910495E-008  0.4614232E+02  0.7816164E-02  0.1320468E+00
        -11   -1    0    0    0    0  0.00000000000E+00  0.00000000000E+00  0.45593999997E+02  0.45594000000E+02  0.51100000000E-03 0.  1.
         11   -1    0    0    0    0 -0.00000000000E+00 -0.00000000000E+00 -0.45593999997E+02  0.45594000000E+02  0.51100000000E-03 0. -1.
    9900012    2    1    2    0    0  0.82595768821E+01 -0.32611315918E+02 -0.29956552813E+02  0.46142316604E+02  0.99999894504E+01 0.  0.
        -12    1    1    2    0    0 -0.82595768821E+01  0.32611315918E+02  0.29956552813E+02  0.45045683396E+02  0.00000000000E+00 0.  1.
         11    1    3    3    0    0  0.29594108197E+01 -0.50314706249E+01 -0.91547035739E+01  0.10857366478E+02  0.51100000000E-03 0. -1.
        -11    1    3    3    0    0  0.94984352759E+00 -0.12077046884E+02 -0.11425120790E+02  0.16652046406E+02  0.51100000000E-03 0.  1.
        -12    1    3    3    0    0  0.43503225348E+01 -0.15502798409E+02 -0.93767284494E+01  0.18632903721E+02  0.00000000000E+00 0.  1.
</event>
<event>
 7    1  0.3910495E-008  0.4614232E+02  0.7816164E-02  0.1320468E+00
        -11   -1    0    0    0    0  0.00000000000E+00  0.00000000000E+00  0.45593999997E+02  0.45594000000E+02  0.51100000000E-03 0. -1.
         11   -1    0    0    0    0 -0.00000000000E+00 -0.00000000000E+00 -0.45593999997E+02  0.45594000000E+02  0.51100000000E-03 0.  1.
    9900012    2    1    2    0    0 -0.44315537556E+02 -0.78813579560E+01  0.17694180836E+01  0.46142317493E+02  0.99999975587E+01 0.  0.
        -12    1    1    2    0    0  0.44315537556E+02  0.78813579560E+01 -0.17694180836E+01  0.45045682507E+02  0.00000000000E+00 0.  1.
         11    1    3    3    0    0 -0.12096985568E+02 -0.47818910901E+01 -0.24046386088E+01  0.13228220944E+02  0.51100000000E-03 0.  1.
        -11    1    3    3    0    0 -0.96535127735E+01  0.99211507193E+00  0.85108577874E+00  0.97416091303E+01  0.51100000000E-03 0. -1.
        -12    1    3    3    0    0 -0.22565039215E+02 -0.40915819379E+01  0.33229709137E+01  0.23172487419E+02  0.00000000000E+00 0.  1.
</event>
